 vasp.5.4.4.18Apr17-6-g9f103f2a35 (build Nov 30 2020 22:55:02) complex          
  
 executed on             LinuxIFC date 2023.09.08  18:27:23
 running on   40 total cores
 distrk:  each k-point on   40 cores,    1 groups
 distr:  one band on NCORES_PER_BAND=   4 cores,   10 groups


--------------------------------------------------------------------------------------------------------


 INCAR:
 POTCAR:    PAW_PBE Pt 04Feb2005                  
 POTCAR:    PAW_PBE Pt 04Feb2005                  
   VRHFIN =Pt: s1d9                                                             
   LEXCH  = PE                                                                  
   EATOM  =   729.1176 eV,   53.5886 Ry                                         
                                                                                
   TITEL  = PAW_PBE Pt 04Feb2005                                                
   LULTRA =        F    use ultrasoft PP ?                                      
   IUNSCR =        1    unscreen: 0-lin 1-nonlin 2-no                           
   RPACOR =    2.330    partial core radius                                     
   POMASS =  195.080; ZVAL   =   10.000    mass and valenz                      
   RCORE  =    2.600    outmost cutoff radius                                   
   RWIGS  =    2.750; RWIGS  =    1.455    wigner-seitz radius (au A)           
   ENMAX  =  230.283; ENMIN  =  172.712 eV                                      
   ICORE  =        3    local potential                                         
   LCOR   =        T    correct aug charges                                     
   LPAW   =        T    paw PP                                                  
   EAUG   =  358.966                                                            
   DEXC   =    0.000                                                            
   RMAX   =    2.658    core radius for proj-oper                               
   RAUG   =    1.300    factor for augmentation sphere                          
   RDEP   =    2.761    radius for radial grids                                 
   RDEPT  =    2.203    core radius for aug-charge                              
                                                                                
   Atomic configuration                                                         
   16 entries                                                                   
     n  l   j            E        occ.                                          
     1  0  0.50    -78401.1885   2.0000                                         
     2  0  0.50    -13770.7750   2.0000                                         
     2  1  1.50    -11931.0468   6.0000                                         
     3  0  0.50     -3234.7234   2.0000                                         
     3  1  1.50     -2699.2216   6.0000                                         
     3  2  2.50     -2119.5714  10.0000                                         
     4  0  0.50      -695.1528   2.0000                                         
     4  1  1.50      -519.6034   6.0000                                         
     4  2  2.50      -306.6786  10.0000                                         
     4  3  3.50       -70.1041  14.0000                                         
     5  0  0.50      -101.7747   2.0000                                         
     5  1  1.50       -55.9873   6.0000                                         
     5  2  2.50        -6.1423   9.0000                                         
     6  0  0.50        -5.6573   1.0000                                         
     6  1  1.50        -6.8029   0.0000                                         
     5  3  2.50        -1.3606   0.0000                                         
   Description                                                                  
     l       E           TYP  RCUT    TYP  RCUT                                 
     2     -6.1423404     23  2.500                                             
     2     -7.5029230     23  2.500                                             
     0     -5.6573207     23  2.500                                             
     0      0.7416693     23  2.500                                             
     1     -2.7211652     23  2.600                                             
     1     20.4087390     23  2.600                                             
     3     -1.3605826     23  2.500                                             
  local pseudopotential read in
  partial core-charges read in
  partial kinetic energy density read in
  atomic valenz-charges read in
  non local Contribution for L=           2  read in
    real space projection operators read in
  non local Contribution for L=           2  read in
    real space projection operators read in
  non local Contribution for L=           0  read in
    real space projection operators read in
  non local Contribution for L=           0  read in
    real space projection operators read in
  non local Contribution for L=           1  read in
    real space projection operators read in
  non local Contribution for L=           1  read in
    real space projection operators read in
    PAW grid and wavefunctions read in
 
   number of l-projection  operators is LMAX  =           6
   number of lm-projection operators is LMMAX =          18
 
 Optimization of the real space projectors (new method)

 maximal supplied QI-value         = 14.36
 optimisation between [QCUT,QGAM] = [ 11.92, 23.98] = [ 39.79,161.09] Ry 
 Optimized for a Real-space Cutoff    1.49 Angstroem

   l    n(q)    QCUT    max X(q) W(low)/X(q) W(high)/X(q)  e(spline) 
   2     10    11.920    66.195    0.79E-04    0.18E-03    0.24E-06
   2     10    11.920    64.643    0.81E-04    0.19E-03    0.24E-06
   0     11    11.920    95.520    0.28E-04    0.54E-04    0.18E-06
   0     11    11.920    63.403    0.27E-04    0.52E-04    0.17E-06
   1     10    11.920    19.961    0.18E-04    0.11E-03    0.23E-06
   1     10    11.920    13.289    0.25E-04    0.87E-04    0.19E-06
  PAW_PBE Pt 04Feb2005                  :
 energy of atom  1       EATOM= -729.1176
 kinetic energy error for atom=    0.0021 (will be added to EATOM!!)
 
 
 POSCAR: Pt111                                   
  positions in direct lattice
  velocities in cartesian coordinates
 exchange correlation table for  LEXCH =        8
   RHO(1)=    0.500       N(1)  =     2000
   RHO(2)=  100.500       N(2)  =     4000
 


--------------------------------------------------------------------------------------------------------


 ion  position               nearest neighbor table
   1  0.785  0.869  0.333-  72 2.69   2 2.69  73 2.69  56 2.69  43 2.69   3 2.69  20 2.81  71 2.81
                            55 2.81  27 2.84  35 2.84  34 2.85
   2  0.035  0.869  0.333-  57 2.69  47 2.69   1 2.69  23 2.69  72 2.69   3 2.69  55 2.81  65 2.81
                            68 2.81  29 2.84  39 2.84  27 2.85
   3  0.035  0.619  0.333-  15 2.69  57 2.69   9 2.69  56 2.69   1 2.69   2 2.69  12 2.81  55 2.81
                            76 2.81  39 2.84  35 2.84  28 2.85
   4  0.787  0.868  0.012-  44 2.69  75 2.69  74 2.69  58 2.69   5 2.69   6 2.69  78 2.84  21 2.84
                            19 2.85
   5  0.037  0.868  0.012-  59 2.69   6 2.69  24 2.69  48 2.69   4 2.69  74 2.69  70 2.84  49 2.84
                            78 2.85
   6  0.037  0.618  0.012-  59 2.69   5 2.69  10 2.69  58 2.69  18 2.69   4 2.69  46 2.84  70 2.84
                            21 2.85
   7  0.619  0.202  0.120-  11 2.69  78 2.69  61 2.69  22 2.69  19 2.69  53 2.69  71 2.80  79 2.80
                            80 2.81  42 2.84  44 2.84  74 2.85
   8  0.370  0.952  0.120-  19 2.69  53 2.69  60 2.69  25 2.69  54 2.69  49 2.69  66 2.80  69 2.80
                            26 2.81  16 2.84  24 2.84  75 2.85
   9  0.034  0.369  0.333-  47 2.69  15 2.69   3 2.69  56 2.69  63 2.69  13 2.69  12 2.81  77 2.81
                            62 2.81  33 2.84  28 2.84  30 2.84
  10  0.037  0.368  0.012-  16 2.69  18 2.69   6 2.69  48 2.69  58 2.69  64 2.69  54 2.84  46 2.84
                            45 2.85
  11  0.869  0.202  0.120-  78 2.69  22 2.69   7 2.69  49 2.69  45 2.69  54 2.69  65 2.81  77 2.81
                            79 2.81  64 2.84  74 2.84  48 2.85
  12  0.952  0.536  0.227-  62 2.69  67 2.69  77 2.69  20 2.69  55 2.69  76 2.69   9 2.81   3 2.81
                            21 2.81  45 2.81  56 2.81  46 2.81
  13  0.284  0.119  0.333-  23 2.69  47 2.69   9 2.69  15 2.69  43 2.69  73 2.69  62 2.80  26 2.81
                            69 2.81  31 2.84  36 2.84  33 2.85
  14  0.534  0.619  0.333-  23 2.69  73 2.69  56 2.69  63 2.69  57 2.69  41 2.69  51 2.80  66 2.80
                            67 2.81  52 2.84  38 2.84  37 2.85
  15  0.284  0.370  0.333-   3 2.69   9 2.69  57 2.69  13 2.69  41 2.69  43 2.69  76 2.81  62 2.81
                            80 2.82  36 2.84  50 2.84  28 2.85
  16  0.287  0.118  0.012-  10 2.69  48 2.69  18 2.69  24 2.69  44 2.69  75 2.69   8 2.84  53 2.84
                            54 2.85
  17  0.537  0.618  0.012-  75 2.69  58 2.69  64 2.69  42 2.69  24 2.69  59 2.69  22 2.84  25 2.84
                            60 2.85
  18  0.287  0.368  0.012-  10 2.69  16 2.69  44 2.69  42 2.69   6 2.69  59 2.69  53 2.84  61 2.84
                            46 2.85
  19  0.619  0.952  0.120-   8 2.69  25 2.69  53 2.69   7 2.69  78 2.69  21 2.69  20 2.80  71 2.80
                            69 2.81  44 2.84  75 2.84   4 2.85
  20  0.702  0.786  0.227-  66 2.69  71 2.69  69 2.69  67 2.69  12 2.69  55 2.69  19 2.80  25 2.80
                             1 2.81  56 2.81  73 2.81  21 2.81
  21  0.870  0.702  0.120-  70 2.69  46 2.69  78 2.69  25 2.69  45 2.69  19 2.69  55 2.81  12 2.81
                            20 2.81  58 2.84   4 2.84   6 2.85
  22  0.620  0.452  0.120-  11 2.69  45 2.69   7 2.69  60 2.69  61 2.69  25 2.69  79 2.80  67 2.80
                            51 2.81  17 2.84  42 2.84  64 2.85
  23  0.285  0.869  0.333-  14 2.69  13 2.69  73 2.69   2 2.69  57 2.69  47 2.69  26 2.80  68 2.80
                            66 2.81  31 2.84  37 2.84  29 2.85
  24  0.287  0.868  0.012-   5 2.69  48 2.69  16 2.69  59 2.69  75 2.69  17 2.69  60 2.84   8 2.84
                            49 2.85
  25  0.620  0.702  0.120-  19 2.69  60 2.69   8 2.69  45 2.69  21 2.69  22 2.69  67 2.80  20 2.80
                            66 2.81  17 2.84  75 2.84  58 2.85
  26  0.202  0.036  0.227-  62 2.69  69 2.69  68 2.69  65 2.69  77 2.69  66 2.69  54 2.80  23 2.80
                            13 2.81  49 2.81  47 2.81   8 2.81
  27  0.867  0.953  0.441-  35 2.69  39 2.69  34 2.69  40 2.69  32 2.69  29 2.69   1 2.84  72 2.84
                             2 2.85
  28  0.117  0.453  0.442-  33 2.69  36 2.69  30 2.69  35 2.69  50 2.69  39 2.69   9 2.84   3 2.85
                            15 2.85
  29  0.117  0.953  0.441-  33 2.69  37 2.69  31 2.69  32 2.69  39 2.69  27 2.69  47 2.84   2 2.84
                            23 2.85
  30  0.867  0.453  0.441-  28 2.69  38 2.69  32 2.69  33 2.69  52 2.69  35 2.69  63 2.84  56 2.84
                             9 2.84
  31  0.367  0.953  0.441-  52 2.69  34 2.69  29 2.69  37 2.69  36 2.69  33 2.69  13 2.84  23 2.84
                            73 2.85
  32  0.867  0.203  0.441-  33 2.69  30 2.69  40 2.69  29 2.69  38 2.69  27 2.69  63 2.84  72 2.84
                            47 2.85
  33  0.117  0.203  0.441-  29 2.69  32 2.69  28 2.69  30 2.69  36 2.69  31 2.69   9 2.84  47 2.84
                            13 2.85
  34  0.617  0.953  0.441-  31 2.69  52 2.69  27 2.69  36 2.69  40 2.69  35 2.69  43 2.84  73 2.84
                             1 2.85
  35  0.867  0.703  0.441-  39 2.69  27 2.69  28 2.69  34 2.69  30 2.69  52 2.69  56 2.84   1 2.84
                             3 2.84
  36  0.367  0.203  0.441-  50 2.69  28 2.69  40 2.69  34 2.69  31 2.69  33 2.69  15 2.84  13 2.84
                            43 2.85
  37  0.367  0.703  0.441-  29 2.69  39 2.69  31 2.69  38 2.69  50 2.69  52 2.69  57 2.84  23 2.84
                            14 2.85
  38  0.617  0.453  0.441-  30 2.69  40 2.69  50 2.69  37 2.69  52 2.69  32 2.69  41 2.84  14 2.84
                            63 2.85
  39  0.117  0.703  0.441-  35 2.69  27 2.69  37 2.69  29 2.69  28 2.69  50 2.69   3 2.84   2 2.84
                            57 2.85
  40  0.617  0.203  0.441-  50 2.69  36 2.69  38 2.69  32 2.69  27 2.69  34 2.69  41 2.84  43 2.84
                            72 2.85
  41  0.534  0.369  0.333-  57 2.69  43 2.69  63 2.69  72 2.69  14 2.69  15 2.69  51 2.80  80 2.80
                            79 2.81  40 2.84  38 2.84  50 2.85
  42  0.537  0.368  0.012-  64 2.69  17 2.69  18 2.69  59 2.69  74 2.69  44 2.69   7 2.84  22 2.84
                            61 2.85
  43  0.534  0.119  0.333-  41 2.69  73 2.69  72 2.69   1 2.69  13 2.69  15 2.69  80 2.80  69 2.81
                            71 2.81  40 2.84  34 2.84  36 2.85
  44  0.537  0.118  0.012-   4 2.69  74 2.69  18 2.69  75 2.69  42 2.69  16 2.69  19 2.84   7 2.84
                            53 2.85
  45  0.870  0.452  0.120-  22 2.69  54 2.69  25 2.69  21 2.69  46 2.69  11 2.69  77 2.80  12 2.81
                            67 2.81  58 2.84  64 2.85  10 2.85
  46  0.120  0.452  0.121-  61 2.69  70 2.69  21 2.69  53 2.69  45 2.69  54 2.69  62 2.80  76 2.81
                            12 2.81   6 2.84  10 2.84  18 2.85
  47  0.034  0.119  0.333-   9 2.69  72 2.69  63 2.69  13 2.69   2 2.69  23 2.69  77 2.81  65 2.81
                            26 2.81  29 2.84  33 2.84  32 2.85
  48  0.037  0.118  0.012-  16 2.69  24 2.69  64 2.69  74 2.69  10 2.69   5 2.69  49 2.84  54 2.85
                            11 2.85
  49  0.119  0.952  0.120-  78 2.69  70 2.69  11 2.69  54 2.69   8 2.69  60 2.69  68 2.81  26 2.81
                            65 2.81  48 2.84   5 2.84  24 2.85
  50  0.367  0.453  0.441-  36 2.69  40 2.69  38 2.69  37 2.69  28 2.69  39 2.69  15 2.84  57 2.84
                            41 2.85
  51  0.452  0.536  0.227-  79 2.69  67 2.69  76 2.69  68 2.69  80 2.69  66 2.69  60 2.80  14 2.80
                            61 2.80  41 2.80  57 2.81  22 2.81
  52  0.617  0.703  0.441-  31 2.69  34 2.69  38 2.69  30 2.69  37 2.69  35 2.69  14 2.84  73 2.84
                            56 2.85
  53  0.369  0.202  0.121-  54 2.69  19 2.69   8 2.69  46 2.69  61 2.69   7 2.69  69 2.80  80 2.80
                            62 2.81  18 2.84  16 2.84  44 2.85
  54  0.119  0.202  0.120-  53 2.69  45 2.69   8 2.69  49 2.69  46 2.69  11 2.69  26 2.80  62 2.81
                            77 2.81  10 2.84  48 2.85  16 2.85
  55  0.952  0.786  0.227-  65 2.69  68 2.69  76 2.69  12 2.69  20 2.69  71 2.69   2 2.81  21 2.81
                            78 2.81   3 2.81  70 2.81   1 2.81
  56  0.784  0.619  0.333-  73 2.69   9 2.69  14 2.69   1 2.69   3 2.69  63 2.69  67 2.81  20 2.81
                            12 2.81  35 2.84  30 2.84  52 2.85
  57  0.284  0.619  0.333-   3 2.69  41 2.69  15 2.69   2 2.69  14 2.69  23 2.69  76 2.80  68 2.81
                            51 2.81  37 2.84  50 2.84  39 2.85
  58  0.787  0.618  0.012-  17 2.69  75 2.69   6 2.69   4 2.69  10 2.69  64 2.69  45 2.84  21 2.84
                            25 2.85
  59  0.287  0.618  0.012-   5 2.69   6 2.69  24 2.69  42 2.69  18 2.69  17 2.69  61 2.84  60 2.84
                            70 2.85
  60  0.370  0.702  0.120-   8 2.69  25 2.69  22 2.69  61 2.69  70 2.69  49 2.69  51 2.80  66 2.80
                            68 2.81  24 2.84  59 2.84  17 2.85
  61  0.370  0.452  0.121-  46 2.69   7 2.69  70 2.69  53 2.69  60 2.69  22 2.69  80 2.80  51 2.80
                            76 2.81  59 2.84  18 2.84  42 2.85
  62  0.202  0.286  0.227-  26 2.69  12 2.69  69 2.69  77 2.69  80 2.69  76 2.69  13 2.80  46 2.80
                            54 2.81  15 2.81   9 2.81  53 2.81
  63  0.784  0.369  0.333-  72 2.69  47 2.69   9 2.69  41 2.69  14 2.69  56 2.69  67 2.81  79 2.81
                            77 2.81  32 2.84  30 2.84  38 2.85
  64  0.787  0.368  0.012-  74 2.69  17 2.69  48 2.69  42 2.69  58 2.69  10 2.69  11 2.84  45 2.85
                            22 2.85
  65  0.952  0.036  0.227-  55 2.69  77 2.69  71 2.69  26 2.69  68 2.69  79 2.69  11 2.81  78 2.81
                             2 2.81  47 2.81  49 2.81  72 2.81
  66  0.452  0.786  0.227-  20 2.69  67 2.69  69 2.69  51 2.69  26 2.69  68 2.69   8 2.80  14 2.80
                            60 2.80  73 2.80  23 2.81  25 2.81
  67  0.702  0.536  0.227-  66 2.69  51 2.69  12 2.69  77 2.69  20 2.69  79 2.69  25 2.80  22 2.80
                            56 2.81  63 2.81  14 2.81  45 2.81
  68  0.202  0.786  0.227-  55 2.69  76 2.69  51 2.69  26 2.69  65 2.69  66 2.69  23 2.80  70 2.81
                            49 2.81  57 2.81   2 2.81  60 2.81
  69  0.452  0.036  0.227-  66 2.69  71 2.69  20 2.69  26 2.69  62 2.69  80 2.69  53 2.80  73 2.80
                             8 2.80  43 2.81  13 2.81  19 2.81
  70  0.120  0.702  0.120-  46 2.69  21 2.69  49 2.69  61 2.69  78 2.69  60 2.69  68 2.81  76 2.81
                            55 2.81   5 2.84   6 2.84  59 2.85
  71  0.702  0.036  0.227-  69 2.69  20 2.69  79 2.69  80 2.69  65 2.69  55 2.69   7 2.80  19 2.80
                             1 2.81  72 2.81  78 2.81  43 2.81
  72  0.784  0.119  0.333-  63 2.69  47 2.69   1 2.69  43 2.69   2 2.69  41 2.69  79 2.81  71 2.81
                            65 2.81  27 2.84  32 2.84  40 2.85
  73  0.535  0.869  0.333-  56 2.69  23 2.69  14 2.69  43 2.69   1 2.69  13 2.69  69 2.80  66 2.80
                            20 2.81  34 2.84  52 2.84  31 2.85
  74  0.787  0.118  0.012-  64 2.69  44 2.69   4 2.69  48 2.69  42 2.69   5 2.69  78 2.84  11 2.84
                             7 2.85
  75  0.537  0.868  0.012-  17 2.69   4 2.69  58 2.69  24 2.69  44 2.69  16 2.69  25 2.84  19 2.84
                             8 2.85
  76  0.202  0.536  0.227-  68 2.69  80 2.69  55 2.69  51 2.69  12 2.69  62 2.69  57 2.80  70 2.81
                            46 2.81  15 2.81   3 2.81  61 2.81
  77  0.952  0.286  0.227-  67 2.69  79 2.69  65 2.69  12 2.69  62 2.69  26 2.69  45 2.80  47 2.81
                             9 2.81  11 2.81  63 2.81  54 2.81
  78  0.869  0.952  0.120-  11 2.69  49 2.69   7 2.69  21 2.69  70 2.69  19 2.69  65 2.81  55 2.81
                            71 2.81  74 2.84   4 2.84   5 2.85
  79  0.702  0.286  0.227-  51 2.69  80 2.69  71 2.69  77 2.69  67 2.69  65 2.69  22 2.80   7 2.80
                            72 2.81  63 2.81  11 2.81  41 2.81
  80  0.452  0.286  0.227-  79 2.69  76 2.69  71 2.69  51 2.69  69 2.69  62 2.69  61 2.80  43 2.80
                            53 2.80  41 2.80   7 2.81  15 2.82
 
  LATTYP: Found a hexagonal cell.
 ALAT       =    10.7600001566
 C/A-ratio  =     2.0446096357
  
  Lattice vectors:
  
 A1 = (   5.3799999700,  -9.3184335429,   0.0000000000)
 A2 = ( -10.7600000000,   0.0000000000,   0.0000000000)
 A3 = (   0.0000000000,   0.0000000000, -22.0000000000)


Analysis of symmetry for initial positions (statically):
=====================================================================
 Subroutine PRICEL returns:
 Original cell was already a primitive cell.
 

 Routine SETGRP: Setting up the symmetry group for a 
 hexagonal supercell.


 Subroutine GETGRP returns: Found  1 space group operations
 (whereof  1 operations were pure point group operations)
 out of a pool of 24 trial point group operations.


The static configuration has the point symmetry C_1 .


Analysis of symmetry for dynamics (positions and initial velocities):
=====================================================================
 Subroutine PRICEL returns:
 Original cell was already a primitive cell.
 

 Routine SETGRP: Setting up the symmetry group for a 
 hexagonal supercell.


 Subroutine GETGRP returns: Found  1 space group operations
 (whereof  1 operations were pure point group operations)
 out of a pool of 24 trial point group operations.


The dynamic configuration has the point symmetry C_1 .


Analysis of structural, dynamic, and magnetic symmetry:
=====================================================================
 Subroutine PRICEL returns:
 Original cell was already a primitive cell.
 

 Routine SETGRP: Setting up the symmetry group for a 
 hexagonal supercell.


 Subroutine GETGRP returns: Found  1 space group operations
 (whereof  1 operations were pure point group operations)
 out of a pool of 24 trial point group operations.


The magnetic configuration has the point symmetry C_1 .


 Subroutine INISYM returns: Found  1 space group operations
 (whereof  1 operations are pure point group operations),
 and found     1 'primitive' translations

 
 
 KPOINTS: mesh auto                               

Automatic generation of k-mesh.
Space group operators:
 irot       det(A)        alpha          n_x          n_y          n_z        tau_x        tau_y        tau_z
    1     1.000000     0.000000     1.000000     0.000000     0.000000     0.000000     0.000000     0.000000
 
 Subroutine IBZKPT returns following result:
 ===========================================
 
 Found      4 irreducible k-points:
 
 Following reciprocal coordinates:
            Coordinates               Weight
  0.000000  0.000000  0.000000      1.000000
  0.500000  0.000000  0.000000      1.000000
  0.000000  0.500000  0.000000      1.000000
  0.500000  0.500000  0.000000      1.000000
 
 Following cartesian coordinates:
            Coordinates               Weight
  0.000000  0.000000  0.000000      1.000000
  0.046468 -0.026829  0.000000      1.000000
  0.000000  0.053657  0.000000      1.000000
  0.046468  0.026829  0.000000      1.000000
 


--------------------------------------------------------------------------------------------------------




 Dimension of arrays:
   k-points           NKPTS =      4   k-points in BZ     NKDIM =      4   number of bands    NBANDS=    520
   number of dos      NEDOS =    301   number of ions     NIONS =     80
   non local maximal  LDIM  =      6   non local SUM 2l+1 LMDIM =     18
   total plane-waves  NPLWV = ******
   max r-space proj   IRMAX =   7517   max aug-charges    IRDMAX=  32744
   dimension x,y,z NGX =    84 NGY =   84 NGZ =  168
   dimension x,y,z NGXF=   168 NGYF=  168 NGZF=  336
   support grid    NGXF=   168 NGYF=  168 NGZF=  336
   ions per type =              80
   NGX,Y,Z   is equivalent  to a cutoff of  12.98, 12.98, 12.70 a.u.
   NGXF,Y,Z  is equivalent  to a cutoff of  25.96, 25.96, 25.39 a.u.

 SYSTEM =  Pt111                                   
 POSCAR =  Pt111                                   

 Startparameter for this run:
   NWRITE =      2    write-flag & timer
   PREC   = accura    normal or accurate (medium, high low for compatibility)
   ISTART =      0    job   : 0-new  1-cont  2-samecut
   ICHARG =      2    charge: 1-file 2-atom 10-const
   ISPIN  =      2    spin polarized calculation?
   LNONCOLLINEAR =      F non collinear calculations
   LSORBIT =      F    spin-orbit coupling
   INIWAV =      1    electr: 0-lowe 1-rand  2-diag
   LASPH  =      F    aspherical Exc in radial PAW
   METAGGA=      F    non-selfconsistent MetaGGA calc.

 Electronic Relaxation 1
   ENCUT  =  550.0 eV  40.42 Ry    6.36 a.u.  20.58 20.58 42.07*2*pi/ulx,y,z
   ENINI  =  550.0     initial cutoff
   ENAUG  =  359.0 eV  augmentation charge cutoff
   NELM   =    200;   NELMIN=  2; NELMDL= -5     # of ELM steps 
   EDIFF  = 0.1E-04   stopping-criterion for ELM
   LREAL  =      T    real-space projection
   NLSPLINE    = F    spline interpolate recip. space projectors
   LCOMPAT=      F    compatible to vasp.4.4
   GGA_COMPAT  = T    GGA compatible to vasp.4.4-vasp.4.6
   LMAXPAW     = -100 max onsite density
   LMAXMIX     =    2 max onsite mixed and CHGCAR
   VOSKOWN=      0    Vosko Wilk Nusair interpolation
   ROPT   =   -0.00025
 Ionic relaxation
   EDIFFG = -.5E-01   stopping-criterion for IOM
   NSW    =    300    number of steps for IOM
   NBLOCK =      1;   KBLOCK =    300    inner block; outer block 
   IBRION =      2    ionic relax: 0-MD 1-quasi-New 2-CG
   NFREE  =      1    steps in history (QN), initial steepest desc. (CG)
   ISIF   =      2    stress and relaxation
   IWAVPR =     11    prediction:  0-non 1-charg 2-wave 3-comb
   ISYM   =      2    0-nonsym 1-usesym 2-fastsym
   LCORR  =      T    Harris-Foulkes like correction to forces

   POTIM  = 0.5000    time-step for ionic-motion
   TEIN   =    0.0    initial temperature
   TEBEG  =    0.0;   TEEND  =   0.0 temperature during run
   SMASS  =  -3.00    Nose mass-parameter (am)
   estimated Nose-frequenzy (Omega)   =  0.10E-29 period in steps =****** mass=  -0.265E-26a.u.
   SCALEE = 1.0000    scale energy and forces
   NPACO  =    256;   APACO  = 16.0  distance and # of slots for P.C.
   PSTRESS=    0.0 pullay stress

  Mass of Ions in am
   POMASS = 195.08
  Ionic Valenz
   ZVAL   =  10.00
  Atomic Wigner-Seitz radii
   RWIGS  =  -1.00
  virtual crystal weights 
   VCA    =   1.00
   NELECT =     800.0000    total number of electrons
   NUPDOWN=      -1.0000    fix difference up-down

 DOS related values:
   EMIN   =  10.00;   EMAX   =-10.00  energy-range for DOS
   EFERMI =   0.00
   ISMEAR =     1;   SIGMA  =   0.10  broadening in eV -4-tet -1-fermi 0-gaus

 Electronic relaxation 2 (details)
   IALGO  =     68    algorithm
   LDIAG  =      T    sub-space diagonalisation (order eigenvalues)
   LSUBROT=      F    optimize rotation matrix (better conditioning)
   TURBO    =      0    0=normal 1=particle mesh
   IRESTART =      0    0=no restart 2=restart with 2 vectors
   NREBOOT  =      0    no. of reboots
   NMIN     =      0    reboot dimension
   EREF     =   0.00    reference energy to select bands
   IMIX   =      4    mixing-type and parameters
     AMIX     =   0.40;   BMIX     =  1.00
     AMIX_MAG =   1.60;   BMIX_MAG =  1.00
     AMIN     =   0.10
     WC   =   100.;   INIMIX=   1;  MIXPRE=   1;  MAXMIX= -45

 Intra band minimization:
   WEIMIN = 0.0010     energy-eigenvalue tresh-hold
   EBREAK =  0.48E-08  absolut break condition
   DEPER  =   0.30     relativ break condition  

   TIME   =   0.40     timestep for ELM

  volume/ion in A,a.u.               =      27.57       186.07
  Fermi-wavevector in a.u.,A,eV,Ry     =   1.167469  2.206197 18.544537  1.362985
  Thomas-Fermi vector in A             =   2.303969
 
 Write flags
   LWAVE        =      F    write WAVECAR
   LDOWNSAMPLE  =      F    k-point downsampling of WAVECAR
   LCHARG       =      F    write CHGCAR
   LVTOT        =      F    write LOCPOT, total local potential
   LVHAR        =      F    write LOCPOT, Hartree potential only
   LELF         =      F    write electronic localiz. function (ELF)
   LORBIT       =      0    0 simple, 1 ext, 2 COOP (PROOUT), +10 PAW based schemes


 Dipole corrections
   LMONO  =      F    monopole corrections only (constant potential shift)
   LDIPOL =      F    correct potential (dipole corrections)
   IDIPOL =      0    1-x, 2-y, 3-z, 4-all directions 
   EPSILON=  1.0000000 bulk dielectric constant

 Exchange correlation treatment:
   GGA     =    --    GGA type
   LEXCH   =     8    internal setting for exchange type
   VOSKOWN=      0    Vosko Wilk Nusair interpolation
   LHFCALC =     F    Hartree Fock is set to
   LHFONE  =     F    Hartree Fock one center treatment
   AEXX    =    0.0000 exact exchange contribution

 Linear response parameters
   LEPSILON=     F    determine dielectric tensor
   LRPA    =     F    only Hartree local field effects (RPA)
   LNABLA  =     F    use nabla operator in PAW spheres
   LVEL    =     F    velocity operator in full k-point grid
   LINTERFAST=   F  fast interpolation
   KINTER  =     0    interpolate to denser k-point grid
   CSHIFT  =0.1000    complex shift for real part using Kramers Kronig
   OMEGAMAX=  -1.0    maximum frequency
   DEG_THRESHOLD= 0.2000000E-02 threshold for treating states as degnerate
   RTIME   =   -0.100 relaxation time in fs
  (WPLASMAI=    0.000 imaginary part of plasma frequency in eV, 0.658/RTIME)
   DFIELD  = 0.0000000 0.0000000 0.0000000 field for delta impulse in time
 
 Orbital magnetization related:
   ORBITALMAG=     F  switch on orbital magnetization
   LCHIMAG   =     F  perturbation theory with respect to B field
   DQ        =  0.001000  dq finite difference perturbation B field
   LLRAUG    =     F  two centre corrections for induced B field



--------------------------------------------------------------------------------------------------------


 conjugate gradient relaxation of ions
 charge density and potential will be updated during run
 spin polarized calculation
 RMM-DIIS sequential band-by-band and
  variant of blocked Davidson during initial phase
 perform sub-space diagonalisation
    before iterative eigenvector-optimisation
 modified Broyden-mixing scheme, WC =      100.0
 initial mixing is a Kerker type mixing with AMIX =  0.4000 and BMIX =      1.0000
 Hartree-type preconditioning will be used
 using additional bands          120
 real space projection scheme for non local part
 use partial core corrections
 calculate Harris-corrections to forces 
   (improved forces if not selfconsistent)
 use gradient corrections 
 use of overlap-Matrix (Vanderbilt PP)
 Methfessel and Paxton  Order N= 1 SIGMA  =   0.10


--------------------------------------------------------------------------------------------------------


  energy-cutoff  :      550.00
  volume of cell :     2205.86
      direct lattice vectors                 reciprocal lattice vectors
    10.760000000  0.000000000  0.000000000     0.092936803 -0.053657087  0.000000000
     5.380000030  9.318433543  0.000000000     0.000000000  0.107314174  0.000000000
     0.000000000  0.000000000 22.000000000     0.000000000  0.000000000  0.045454545

  length of vectors
    10.760000000 10.760000187 22.000000000     0.107314176  0.107314174  0.045454545


 
 k-points in units of 2pi/SCALE and weight: mesh auto                               
   0.00000000  0.00000000  0.00000000       0.250
   0.04646840 -0.02682854  0.00000000       0.250
   0.00000000  0.05365709  0.00000000       0.250
   0.04646840  0.02682854  0.00000000       0.250
 
 k-points in reciprocal lattice and weights: mesh auto                               
   0.00000000  0.00000000  0.00000000       0.250
   0.50000000  0.00000000  0.00000000       0.250
   0.00000000  0.50000000  0.00000000       0.250
   0.50000000  0.50000000  0.00000000       0.250
 
 position of ions in fractional coordinates (direct lattice) 
   0.78453311  0.86943977  0.33285267
   0.03454594  0.86941815  0.33294784
   0.03456401  0.61931727  0.33311343
   0.78705077  0.86784265  0.01189147
   0.03727793  0.86759573  0.01202723
   0.03721765  0.61770434  0.01214216
   0.61949887  0.20174958  0.12029971
   0.36952475  0.95171599  0.12041262
   0.03440073  0.36942006  0.33312893
   0.03732961  0.36769119  0.01220904
   0.86940931  0.20170267  0.12021775
   0.95188852  0.53564585  0.22677309
   0.28441101  0.11945224  0.33307801
   0.53445961  0.61949189  0.33290470
   0.28429492  0.36950902  0.33322599
   0.28706002  0.11776341  0.01215837
   0.53733718  0.61770409  0.01206401
   0.28723046  0.36763935  0.01221852
   0.61939605  0.95176001  0.12027306
   0.70188517  0.78570615  0.22658123
   0.86956830  0.70173885  0.12035805
   0.61960658  0.45166863  0.12035424
   0.28458069  0.86941268  0.33297742
   0.28713287  0.86773717  0.01210887
   0.61954509  0.70176677  0.12033167
   0.20189797  0.03565656  0.22672152
   0.86710971  0.95303826  0.44113252
   0.11708376  0.45296264  0.44156294
   0.11721755  0.95309017  0.44128827
   0.86707515  0.45308725  0.44128400
   0.36729517  0.95295426  0.44132664
   0.86715832  0.20307150  0.44126248
   0.11705723  0.20305407  0.44137413
   0.61709754  0.95308232  0.44119083
   0.86726906  0.70310771  0.44126334
   0.36713691  0.20315476  0.44142011
   0.36704107  0.70306925  0.44132928
   0.61711650  0.45309473  0.44124035
   0.11704627  0.70311233  0.44138040
   0.61712683  0.20309988  0.44114867
   0.53440414  0.36945579  0.33296472
   0.53715249  0.36779616  0.01202389
   0.53447915  0.11943542  0.33294092
   0.53723947  0.11768709  0.01198975
   0.86951096  0.45173779  0.12039640
   0.11954664  0.45178316  0.12055505
   0.03442718  0.11946984  0.33300397
   0.03720682  0.11771233  0.01196428
   0.11942259  0.95173499  0.12038949
   0.36719337  0.45295078  0.44149641
   0.45194706  0.53567016  0.22671371
   0.61704937  0.70315984  0.44122166
   0.36944487  0.20171322  0.12051891
   0.11948894  0.20174156  0.12048135
   0.95204127  0.78565691  0.22665993
   0.78447183  0.61946561  0.33292407
   0.28444982  0.61939022  0.33310117
   0.78724511  0.61770366  0.01201728
   0.28710747  0.61775577  0.01213995
   0.36960454  0.70171654  0.12047054
   0.36952376  0.45171075  0.12051227
   0.20183390  0.28564787  0.22685923
   0.78441986  0.36940693  0.33293665
   0.78721155  0.36766757  0.01192219
   0.95188809  0.03561578  0.22657261
   0.45204125  0.78567439  0.22665910
   0.70186654  0.53572322  0.22662234
   0.20196899  0.78562816  0.22675975
   0.45188656  0.03564514  0.22667480
   0.11951660  0.70173931  0.12048280
   0.70182355  0.03570556  0.22652342
   0.78448234  0.11943850  0.33285300
   0.53454276  0.86941240  0.33289731
   0.78717410  0.11775621  0.01184648
   0.53722897  0.86763205  0.01190011
   0.20197317  0.53569696  0.22686713
   0.95178801  0.28566860  0.22669177
   0.86947635  0.95179220  0.12025512
   0.70178133  0.28569597  0.22653473
   0.45184973  0.28569847  0.22673023
 
 position of ions in cartesian coordinates  (Angst):
  13.11916224  8.10181676  7.32275874
   5.04918400  8.10161526  7.32485245
   3.70383571  5.77106686  7.32849546
  13.13765981  8.08693406  0.26161223
   5.06877555  8.08463315  0.26459907
   3.72371131  5.75603680  0.26712753
   7.75122059  1.87999005  2.64659359
   9.09631837  8.86850224  2.64907764
   2.35763183  3.44241630  7.32883655
   2.37984519  3.42630588  0.26859898
  10.44000456  1.87955290  2.64479041
  13.12409523  4.99138029  4.98900789
   3.70291551  1.11310777  7.32771617
   9.08365175  5.77269403  7.32390339
   5.04697191  3.44324524  7.33097189
   3.72233294  1.09737047  0.26748422
   9.10499613  5.75603454  0.26540829
   5.06849943  3.42582285  0.26880741
  11.78517042  8.86891242  2.64600734
  11.77938353  7.32155052  4.98478714
  13.13191000  6.53910686  2.64787716
   9.09694405  4.20884409  2.64779324
   7.73952848  8.10156425  7.32550316
   7.75797572  8.08595118  0.26639516
  10.44181040  6.53936702  2.64729680
   2.36425445  0.33226328  4.98787345
  14.45744640  8.88082372  9.70491553
   3.69676029  4.22090229  9.71438475
   6.38888604  8.88130743  9.70834199
  11.76733799  4.22206340  9.70824802
   9.07899002  8.88004095  9.70918602
  10.42314817  1.89230832  9.70777449
   2.35196670  1.89214587  9.71023089
  11.76755242  8.88123426  9.70619820
  13.11453454  6.55186243  9.70779348
   5.04336574  1.89308415  9.71124252
   7.73187444  6.55150406  9.70924410
   9.07782323  4.22213309  9.70728781
   5.04216221  6.55190553  9.71036870
   7.73296211  1.89257275  9.70527072
   7.73786070  3.44274925  7.32522388
   7.75850417  3.42728403  0.26452552
   6.39355822  1.11295098  7.32470014
   6.41385330  1.09665934  0.26377444
  11.78628726  4.20948859  2.64872091
   3.71691529  4.20991133  2.65221114
   1.01318419  1.11327172  7.32608733
   1.03363771  1.09689453  0.26321425
   6.40532135  8.86867924  2.64856878
   6.38787584  4.22079175  9.71292111
   7.74485584  4.99160681  4.98770166
  10.42245114  6.55234826  9.70687641
   5.06044389  1.87965119  2.65141612
   2.37107060  1.87991529  2.65058967
  14.47079828  7.32109168  4.98651836
  11.77364184  5.77244911  7.32432945
   6.39299951  5.77174661  7.32822584
  11.79400305  5.75603048  0.26438009
   6.41280248  5.75651609  0.26707900
   7.75217984  6.53889896  2.65035189
   6.40627948  4.20923658  2.65126993
   3.70851831  2.66179068  4.99090299
  10.42776697  3.44229393  7.32460627
  10.44844777  3.42608583  0.26228810
  10.43392870  0.33188324  4.98459750
   9.09089210  7.32125457  4.98650017
  10.43427491  4.99210127  4.98569142
   6.39986591  7.32082381  4.98871451
   5.05407021  0.33215687  4.98684563
   5.06135616  6.53911113  2.65062150
   7.74371732  0.33271988  4.98351525
   9.08360906  1.11297970  7.32276591
  10.42911882  8.10156167  7.32374088
   9.10352177  1.09730341  0.26062252
  10.44844413  8.08497156  0.26180232
   5.05528097  4.99185654  4.99107679
  11.77813614  2.66198391  4.98721898
  14.47620763  8.86921240  2.64561265
   9.08821138  2.66223890  4.98376415
   6.39896088  2.66226222  4.98806497
 


--------------------------------------------------------------------------------------------------------


 k-point  1 :   0.0000 0.0000 0.0000  plane waves:   64687
 k-point  2 :   0.5000 0.0000 0.0000  plane waves:   64612
 k-point  3 :   0.0000 0.5000 0.0000  plane waves:   64612
 k-point  4 :   0.5000 0.5000 0.0000  plane waves:   64612

 maximum and minimum number of plane-waves per node :     16191    16134

 maximum number of plane-waves:     64687
 maximum index in each direction: 
   IXMAX=   20   IYMAX=   20   IZMAX=   42
   IXMIN=  -21   IYMIN=  -21   IZMIN=  -42


 real space projection operators:
  total allocation   :      81694.83 KBytes
  max/ min on nodes  :      20425.50      20422.69


 parallel 3D FFT for wavefunctions:
    minimum data exchange during FFTs selected (reduces bandwidth)
 parallel 3D FFT for charge:
    minimum data exchange during FFTs selected (reduces bandwidth)


 total amount of memory used by VASP MPI-rank0   238060. kBytes
=======================================================================

   base      :      30000. kBytes
   nonlr-proj:      35332. kBytes
   fftplans  :      17970. kBytes
   grid      :      44179. kBytes
   one-center:        622. kBytes
   wavefun   :     109957. kBytes
 
     INWAV:  cpu time    0.0000: real time    0.0000
 Broyden mixing: mesh for mixing (old mesh)
   NGX = 41   NGY = 41   NGZ = 85
  (NGX  =168   NGY  =168   NGZ  =336)
  gives a total of 142885 points

 initial charge density was supplied:
 charge density of overlapping atoms calculated
 number of electron     800.0000000 magnetization      80.0000000
 keeping initial charge density in first step


--------------------------------------------------------------------------------------------------------


 Maximum index for non-local projection operator         1832
 Maximum index for augmentation-charges         2033 (set IRDMAX)


--------------------------------------------------------------------------------------------------------


 First call to EWALD:  gamma=   0.136
 Maximum number of real-space cells 4x 4x 2
 Maximum number of reciprocal cells 2x 2x 4

    FEWALD:  cpu time    0.0038: real time    0.0038


--------------------------------------- Iteration      1(   1)  ---------------------------------------


    POTLOK:  cpu time    0.3804: real time    0.4263
    SETDIJ:  cpu time    0.0365: real time    0.0369
     EDDAV:  cpu time   56.4098: real time   56.5722
       DOS:  cpu time    0.0018: real time    0.0019
    --------------------------------------------
      LOOP:  cpu time   56.8285: real time   57.0372

 eigenvalue-minimisations  :  8320
 total energy-change (2. order) : 0.5614337E+04  (-0.3948940E+05)
 number of electron     800.0000000 magnetization      80.0000000
 augmentation part      800.0000000 magnetization      80.0000000

 Free energy of the ion-electron system (eV)
  ---------------------------------------------------
  alpha Z        PSCENC =      2757.98564892
  Ewald energy   TEWEN  =    171200.72753710
  -Hartree energ DENC   =   -235941.79645677
  -exchange      EXHF   =         0.00000000
  -V(xc)+E(xc)   XCENC  =       300.07145954
  PAW double counting   =     55683.70208444   -53421.37691584
  entropy T*S    EENTRO =        -0.00218024
  eigenvalues    EBANDS =      6705.78155135
  atomic energy  EATOM  =     58329.24398462
  Solvation  Ediel_sol  =         0.00000000
  ---------------------------------------------------
  free energy    TOTEN  =      5614.33671312 eV

  energy without entropy =     5614.33889336  energy(sigma->0) =     5614.33743987


--------------------------------------------------------------------------------------------------------




--------------------------------------- Iteration      1(   2)  ---------------------------------------


     EDDAV:  cpu time   61.0823: real time   61.2380
       DOS:  cpu time    0.0018: real time    0.0018
    --------------------------------------------
      LOOP:  cpu time   61.0841: real time   61.2398

 eigenvalue-minimisations  :  9230
 total energy-change (2. order) :-0.5798138E+04  (-0.5338653E+04)
 number of electron     800.0000000 magnetization      80.0000000
 augmentation part      800.0000000 magnetization      80.0000000

 Free energy of the ion-electron system (eV)
  ---------------------------------------------------
  alpha Z        PSCENC =      2757.98564892
  Ewald energy   TEWEN  =    171200.72753710
  -Hartree energ DENC   =   -235941.79645677
  -exchange      EXHF   =         0.00000000
  -V(xc)+E(xc)   XCENC  =       300.07145954
  PAW double counting   =     55683.70208444   -53421.37691584
  entropy T*S    EENTRO =         0.00060506
  eigenvalues    EBANDS =       907.64035190
  atomic energy  EATOM  =     58329.24398462
  Solvation  Ediel_sol  =         0.00000000
  ---------------------------------------------------
  free energy    TOTEN  =      -183.80170103 eV

  energy without entropy =     -183.80230609  energy(sigma->0) =     -183.80190272


--------------------------------------------------------------------------------------------------------




--------------------------------------- Iteration      1(   3)  ---------------------------------------


     EDDAV:  cpu time   62.1124: real time   62.2594
       DOS:  cpu time    0.0019: real time    0.0019
    --------------------------------------------
      LOOP:  cpu time   62.1142: real time   62.2613

 eigenvalue-minimisations  :  9400
 total energy-change (2. order) :-0.2988961E+03  (-0.2751952E+03)
 number of electron     800.0000000 magnetization      80.0000000
 augmentation part      800.0000000 magnetization      80.0000000

 Free energy of the ion-electron system (eV)
  ---------------------------------------------------
  alpha Z        PSCENC =      2757.98564892
  Ewald energy   TEWEN  =    171200.72753710
  -Hartree energ DENC   =   -235941.79645677
  -exchange      EXHF   =         0.00000000
  -V(xc)+E(xc)   XCENC  =       300.07145954
  PAW double counting   =     55683.70208444   -53421.37691584
  entropy T*S    EENTRO =         0.00210419
  eigenvalues    EBANDS =       608.74278346
  atomic energy  EATOM  =     58329.24398462
  Solvation  Ediel_sol  =         0.00000000
  ---------------------------------------------------
  free energy    TOTEN  =      -482.69777034 eV

  energy without entropy =     -482.69987453  energy(sigma->0) =     -482.69847173


--------------------------------------------------------------------------------------------------------




--------------------------------------- Iteration      1(   4)  ---------------------------------------


     EDDAV:  cpu time   64.6848: real time   64.8897
       DOS:  cpu time    0.0020: real time    0.0020
    --------------------------------------------
      LOOP:  cpu time   64.6868: real time   64.8917

 eigenvalue-minimisations  :  9890
 total energy-change (2. order) :-0.8375214E+01  (-0.8285361E+01)
 number of electron     800.0000000 magnetization      80.0000000
 augmentation part      800.0000000 magnetization      80.0000000

 Free energy of the ion-electron system (eV)
  ---------------------------------------------------
  alpha Z        PSCENC =      2757.98564892
  Ewald energy   TEWEN  =    171200.72753710
  -Hartree energ DENC   =   -235941.79645677
  -exchange      EXHF   =         0.00000000
  -V(xc)+E(xc)   XCENC  =       300.07145954
  PAW double counting   =     55683.70208444   -53421.37691584
  entropy T*S    EENTRO =        -0.00051183
  eigenvalues    EBANDS =       600.37018568
  atomic energy  EATOM  =     58329.24398462
  Solvation  Ediel_sol  =         0.00000000
  ---------------------------------------------------
  free energy    TOTEN  =      -491.07298413 eV

  energy without entropy =     -491.07247230  energy(sigma->0) =     -491.07281352


--------------------------------------------------------------------------------------------------------




--------------------------------------- Iteration      1(   5)  ---------------------------------------


     EDDAV:  cpu time   63.4091: real time   63.5980
       DOS:  cpu time    0.0019: real time    0.0019
    CHARGE:  cpu time    4.0384: real time    4.0504
    MIXING:  cpu time    0.0099: real time    0.0105
    --------------------------------------------
      LOOP:  cpu time   67.4594: real time   67.6609

 eigenvalue-minimisations  :  9650
 total energy-change (2. order) :-0.2816041E+00  (-0.2808827E+00)
 number of electron     799.9999961 magnetization      75.0592783
 augmentation part      232.3783541 magnetization      53.4885917

 Broyden mixing:
  rms(total) = 0.11449E+02    rms(broyden)= 0.11449E+02
  rms(prec ) = 0.11568E+02
  weight for this iteration     100.00

 Free energy of the ion-electron system (eV)
  ---------------------------------------------------
  alpha Z        PSCENC =      2757.98564892
  Ewald energy   TEWEN  =    171200.72753710
  -Hartree energ DENC   =   -235941.79645677
  -exchange      EXHF   =         0.00000000
  -V(xc)+E(xc)   XCENC  =       300.07145954
  PAW double counting   =     55683.70208444   -53421.37691584
  entropy T*S    EENTRO =        -0.00113675
  eigenvalues    EBANDS =       600.08920646
  atomic energy  EATOM  =     58329.24398462
  Solvation  Ediel_sol  =         0.00000000
  ---------------------------------------------------
  free energy    TOTEN  =      -491.35458828 eV

  energy without entropy =     -491.35345153  energy(sigma->0) =     -491.35420936


--------------------------------------------------------------------------------------------------------




--------------------------------------- Iteration      1(   6)  ---------------------------------------


    POTLOK:  cpu time    0.3734: real time    0.3745
    SETDIJ:  cpu time    0.0325: real time    0.0328
    EDDIAG:  cpu time    9.8081: real time    9.8376
  RMM-DIIS:  cpu time   34.0269: real time   34.1286
    ORTHCH:  cpu time    1.1012: real time    1.1046
       DOS:  cpu time    0.0019: real time    0.0019
    CHARGE:  cpu time    4.0836: real time    4.0969
    MIXING:  cpu time    0.0103: real time    0.0104
    --------------------------------------------
      LOOP:  cpu time   49.4378: real time   49.5873

 eigenvalue-minimisations  :  8347
 total energy-change (2. order) : 0.1261207E+02  (-0.7261556E+01)
 number of electron     799.9999949 magnetization      70.7850656
 augmentation part      244.5135002 magnetization      53.0509040

 Broyden mixing:
  rms(total) = 0.88542E+01    rms(broyden)= 0.88542E+01
  rms(prec ) = 0.97231E+01
  weight for this iteration     100.00

 eigenvalues of (default mixing * dielectric matrix)
  average eigenvalue GAMMA=   0.8120
  0.8120

 Free energy of the ion-electron system (eV)
  ---------------------------------------------------
  alpha Z        PSCENC =      2757.98564892
  Ewald energy   TEWEN  =    171200.72753710
  -Hartree energ DENC   =   -234945.34546485
  -exchange      EXHF   =         0.00000000
  -V(xc)+E(xc)   XCENC  =       282.17241759
  PAW double counting   =     63162.96984492   -61031.26470302
  entropy T*S    EENTRO =        -0.02737788
  eigenvalues    EBANDS =      -235.20440867
  atomic energy  EATOM  =     58329.24398462
  Solvation  Ediel_sol  =         0.00000000
  ---------------------------------------------------
  free energy    TOTEN  =      -478.74252125 eV

  energy without entropy =     -478.71514337  energy(sigma->0) =     -478.73339529


--------------------------------------------------------------------------------------------------------




--------------------------------------- Iteration      1(   7)  ---------------------------------------


    POTLOK:  cpu time    0.4025: real time    0.4035
    SETDIJ:  cpu time    0.0449: real time    0.0450
    EDDIAG:  cpu time    9.8651: real time    9.8890
  RMM-DIIS:  cpu time   33.6899: real time   33.7712
    ORTHCH:  cpu time    1.0954: real time    1.0980
       DOS:  cpu time    0.0019: real time    0.0019
    CHARGE:  cpu time    4.0213: real time    4.0309
    MIXING:  cpu time    0.0101: real time    0.0102
    --------------------------------------------
      LOOP:  cpu time   49.1311: real time   49.2496

 eigenvalue-minimisations  :  8339
 total energy-change (2. order) :-0.1397942E+03  (-0.1570917E+02)
 number of electron     799.9999962 magnetization      62.7906275
 augmentation part      238.5307508 magnetization      50.6927880

 Broyden mixing:
  rms(total) = 0.11223E+02    rms(broyden)= 0.11223E+02
  rms(prec ) = 0.14305E+02
  weight for this iteration     100.00

 eigenvalues of (default mixing * dielectric matrix)
  average eigenvalue GAMMA=   0.8207
  1.3558  0.2856

 Free energy of the ion-electron system (eV)
  ---------------------------------------------------
  alpha Z        PSCENC =      2757.98564892
  Ewald energy   TEWEN  =    171200.72753710
  -Hartree energ DENC   =   -236030.84186168
  -exchange      EXHF   =         0.00000000
  -V(xc)+E(xc)   XCENC  =       276.15067074
  PAW double counting   =     67069.78963572   -64980.91374601
  entropy T*S    EENTRO =        -0.02148037
  eigenvalues    EBANDS =       759.34286701
  atomic energy  EATOM  =     58329.24398462
  Solvation  Ediel_sol  =         0.00000000
  ---------------------------------------------------
  free energy    TOTEN  =      -618.53674395 eV

  energy without entropy =     -618.51526357  energy(sigma->0) =     -618.52958382


--------------------------------------------------------------------------------------------------------




--------------------------------------- Iteration      1(   8)  ---------------------------------------


    POTLOK:  cpu time    0.3748: real time    0.3757
    SETDIJ:  cpu time    0.0326: real time    0.0327
    EDDIAG:  cpu time    9.8301: real time    9.8539
  RMM-DIIS:  cpu time   33.9710: real time   34.0513
    ORTHCH:  cpu time    1.0934: real time    1.0960
       DOS:  cpu time    0.0020: real time    0.0020
    CHARGE:  cpu time    3.9644: real time    3.9738
    MIXING:  cpu time    0.0102: real time    0.0102
    --------------------------------------------
      LOOP:  cpu time   49.2784: real time   49.3956

 eigenvalue-minimisations  :  8364
 total energy-change (2. order) : 0.1446741E+03  (-0.7387564E+01)
 number of electron     799.9999960 magnetization      58.8666602
 augmentation part      248.3611617 magnetization      46.4732477

 Broyden mixing:
  rms(total) = 0.50832E+01    rms(broyden)= 0.50832E+01
  rms(prec ) = 0.57787E+01
  weight for this iteration     100.00

 eigenvalues of (default mixing * dielectric matrix)
  average eigenvalue GAMMA=   0.9376
  1.9905  0.5702  0.2521

 Free energy of the ion-electron system (eV)
  ---------------------------------------------------
  alpha Z        PSCENC =      2757.98564892
  Ewald energy   TEWEN  =    171200.72753710
  -Hartree energ DENC   =   -235092.03753035
  -exchange      EXHF   =         0.00000000
  -V(xc)+E(xc)   XCENC  =       276.14404089
  PAW double counting   =     73030.00949580   -71018.25812743
  entropy T*S    EENTRO =        -0.13620918
  eigenvalues    EBANDS =        42.45854321
  atomic energy  EATOM  =     58329.24398462
  Solvation  Ediel_sol  =         0.00000000
  ---------------------------------------------------
  free energy    TOTEN  =      -473.86261642 eV

  energy without entropy =     -473.72640724  energy(sigma->0) =     -473.81721336


--------------------------------------------------------------------------------------------------------




--------------------------------------- Iteration      1(   9)  ---------------------------------------


    POTLOK:  cpu time    0.3745: real time    0.3754
    SETDIJ:  cpu time    0.0325: real time    0.0326
    EDDIAG:  cpu time    9.8148: real time    9.8380
  RMM-DIIS:  cpu time   33.8051: real time   33.8850
    ORTHCH:  cpu time    1.0900: real time    1.0926
       DOS:  cpu time    0.0020: real time    0.0020
    CHARGE:  cpu time    3.9500: real time    3.9594
    MIXING:  cpu time    0.0103: real time    0.0103
    --------------------------------------------
      LOOP:  cpu time   49.0791: real time   49.1953

 eigenvalue-minimisations  :  8352
 total energy-change (2. order) : 0.1654314E+02  (-0.6884747E+01)
 number of electron     799.9999955 magnetization      55.5937012
 augmentation part      248.7450579 magnetization      39.9552892

 Broyden mixing:
  rms(total) = 0.45049E+01    rms(broyden)= 0.45049E+01
  rms(prec ) = 0.49415E+01
  weight for this iteration     100.00

 eigenvalues of (default mixing * dielectric matrix)
  average eigenvalue GAMMA=   0.8411
  2.2434  0.4982  0.2393  0.3832

 Free energy of the ion-electron system (eV)
  ---------------------------------------------------
  alpha Z        PSCENC =      2757.98564892
  Ewald energy   TEWEN  =    171200.72753710
  -Hartree energ DENC   =   -234994.28982785
  -exchange      EXHF   =         0.00000000
  -V(xc)+E(xc)   XCENC  =       277.88274449
  PAW double counting   =     74243.39051267   -72239.57964388
  entropy T*S    EENTRO =        -0.05804253
  eigenvalues    EBANDS =       -32.62239003
  atomic energy  EATOM  =     58329.24398462
  Solvation  Ediel_sol  =         0.00000000
  ---------------------------------------------------
  free energy    TOTEN  =      -457.31947648 eV

  energy without entropy =     -457.26143395  energy(sigma->0) =     -457.30012897


--------------------------------------------------------------------------------------------------------




--------------------------------------- Iteration      1(  10)  ---------------------------------------


    POTLOK:  cpu time    0.3771: real time    0.3780
    SETDIJ:  cpu time    0.0370: real time    0.0371
    EDDIAG:  cpu time    9.8631: real time    9.8908
  RMM-DIIS:  cpu time   33.9951: real time   34.0968
    ORTHCH:  cpu time    1.0893: real time    1.0925
       DOS:  cpu time    0.0020: real time    0.0020
    CHARGE:  cpu time    4.0224: real time    4.0344
    MIXING:  cpu time    0.0112: real time    0.0113
    --------------------------------------------
      LOOP:  cpu time   49.3973: real time   49.5429

 eigenvalue-minimisations  :  8373
 total energy-change (2. order) :-0.2024431E+01  (-0.1014420E+01)
 number of electron     799.9999957 magnetization      54.9561503
 augmentation part      247.9633972 magnetization      40.2779048

 Broyden mixing:
  rms(total) = 0.40451E+01    rms(broyden)= 0.40451E+01
  rms(prec ) = 0.65908E+01
  weight for this iteration     100.00

 eigenvalues of (default mixing * dielectric matrix)
  average eigenvalue GAMMA=   0.7174
  2.2449  0.4515  0.4515  0.2049  0.2343

 Free energy of the ion-electron system (eV)
  ---------------------------------------------------
  alpha Z        PSCENC =      2757.98564892
  Ewald energy   TEWEN  =    171200.72753710
  -Hartree energ DENC   =   -235047.09450589
  -exchange      EXHF   =         0.00000000
  -V(xc)+E(xc)   XCENC  =       277.32560292
  PAW double counting   =     75057.21579441   -73057.48611176
  entropy T*S    EENTRO =         0.09274102
  eigenvalues    EBANDS =        22.64540110
  atomic energy  EATOM  =     58329.24398462
  Solvation  Ediel_sol  =         0.00000000
  ---------------------------------------------------
  free energy    TOTEN  =      -459.34390755 eV

  energy without entropy =     -459.43664857  energy(sigma->0) =     -459.37482123


--------------------------------------------------------------------------------------------------------




--------------------------------------- Iteration      1(  11)  ---------------------------------------


    POTLOK:  cpu time    0.3748: real time    0.3760
    SETDIJ:  cpu time    0.0327: real time    0.0329
    EDDIAG:  cpu time    9.8005: real time    9.8298
  RMM-DIIS:  cpu time   34.0370: real time   34.1389
    ORTHCH:  cpu time    1.0893: real time    1.0927
       DOS:  cpu time    0.0020: real time    0.0020
    CHARGE:  cpu time    3.9590: real time    3.9708
    MIXING:  cpu time    0.0114: real time    0.0114
    --------------------------------------------
      LOOP:  cpu time   49.3067: real time   49.4545

 eigenvalue-minimisations  :  8385
 total energy-change (2. order) : 0.7179692E+01  (-0.2781148E+00)
 number of electron     799.9999954 magnetization      50.8237552
 augmentation part      247.9762812 magnetization      34.8682469

 Broyden mixing:
  rms(total) = 0.28465E+01    rms(broyden)= 0.28465E+01
  rms(prec ) = 0.45100E+01
  weight for this iteration     100.00

 eigenvalues of (default mixing * dielectric matrix)
  average eigenvalue GAMMA=   0.7230
  2.1101  0.7875  0.7875  0.3360  0.2468  0.0701

 Free energy of the ion-electron system (eV)
  ---------------------------------------------------
  alpha Z        PSCENC =      2757.98564892
  Ewald energy   TEWEN  =    171200.72753710
  -Hartree energ DENC   =   -235064.82267444
  -exchange      EXHF   =         0.00000000
  -V(xc)+E(xc)   XCENC  =       277.32669803
  PAW double counting   =     75089.00653379   -73089.12143447
  entropy T*S    EENTRO =        -0.02638215
  eigenvalues    EBANDS =        47.51587342
  atomic energy  EATOM  =     58329.24398462
  Solvation  Ediel_sol  =         0.00000000
  ---------------------------------------------------
  free energy    TOTEN  =      -452.16421517 eV

  energy without entropy =     -452.13783302  energy(sigma->0) =     -452.15542112


--------------------------------------------------------------------------------------------------------




--------------------------------------- Iteration      1(  12)  ---------------------------------------


    POTLOK:  cpu time    0.3772: real time    0.3781
    SETDIJ:  cpu time    0.0331: real time    0.0332
    EDDIAG:  cpu time    9.8167: real time    9.8462
  RMM-DIIS:  cpu time   34.1971: real time   34.3010
    ORTHCH:  cpu time    1.0911: real time    1.0942
       DOS:  cpu time    0.0020: real time    0.0020
    CHARGE:  cpu time    3.9657: real time    3.9775
    MIXING:  cpu time    0.0114: real time    0.0114
    --------------------------------------------
      LOOP:  cpu time   49.4942: real time   49.6436

 eigenvalue-minimisations  :  8384
 total energy-change (2. order) :-0.6346096E+00  (-0.2670879E+00)
 number of electron     799.9999958 magnetization      49.2157595
 augmentation part      247.1354545 magnetization      31.9005021

 Broyden mixing:
  rms(total) = 0.17830E+01    rms(broyden)= 0.17830E+01
  rms(prec ) = 0.20788E+01
  weight for this iteration     100.00

 eigenvalues of (default mixing * dielectric matrix)
  average eigenvalue GAMMA=   0.7021
  1.9615  0.9553  0.9553  0.4011  0.3347  0.2379  0.0694

 Free energy of the ion-electron system (eV)
  ---------------------------------------------------
  alpha Z        PSCENC =      2757.98564892
  Ewald energy   TEWEN  =    171200.72753710
  -Hartree energ DENC   =   -235178.85249730
  -exchange      EXHF   =         0.00000000
  -V(xc)+E(xc)   XCENC  =       276.12277157
  PAW double counting   =     74814.33536910   -72809.24231730
  entropy T*S    EENTRO =         0.02347646
  eigenvalues    EBANDS =       156.85720210
  atomic energy  EATOM  =     58329.24398462
  Solvation  Ediel_sol  =         0.00000000
  ---------------------------------------------------
  free energy    TOTEN  =      -452.79882472 eV

  energy without entropy =     -452.82230118  energy(sigma->0) =     -452.80665021


--------------------------------------------------------------------------------------------------------




--------------------------------------- Iteration      1(  13)  ---------------------------------------


    POTLOK:  cpu time    0.3745: real time    0.3758
    SETDIJ:  cpu time    0.0328: real time    0.0329
    EDDIAG:  cpu time    9.8777: real time    9.9076
  RMM-DIIS:  cpu time   34.1766: real time   34.2786
    ORTHCH:  cpu time    1.0892: real time    1.0925
       DOS:  cpu time    0.0020: real time    0.0020
    CHARGE:  cpu time    3.9576: real time    3.9693
    MIXING:  cpu time    0.0120: real time    0.0120
    --------------------------------------------
      LOOP:  cpu time   49.5224: real time   49.6707

 eigenvalue-minimisations  :  8378
 total energy-change (2. order) :-0.2127896E+01  (-0.1497638E+00)
 number of electron     799.9999957 magnetization      46.2326898
 augmentation part      246.9812584 magnetization      29.2287317

 Broyden mixing:
  rms(total) = 0.13186E+01    rms(broyden)= 0.13186E+01
  rms(prec ) = 0.16683E+01
  weight for this iteration     100.00

 eigenvalues of (default mixing * dielectric matrix)
  average eigenvalue GAMMA=   0.7120
  1.4907  1.4907  1.2716  0.4897  0.2395  0.3221  0.3221  0.0696

 Free energy of the ion-electron system (eV)
  ---------------------------------------------------
  alpha Z        PSCENC =      2757.98564892
  Ewald energy   TEWEN  =    171200.72753710
  -Hartree energ DENC   =   -235169.55688993
  -exchange      EXHF   =         0.00000000
  -V(xc)+E(xc)   XCENC  =       274.88931825
  PAW double counting   =     74626.03076633   -72618.52916625
  entropy T*S    EENTRO =         0.04167710
  eigenvalues    EBANDS =       144.24040358
  atomic energy  EATOM  =     58329.24398462
  Solvation  Ediel_sol  =         0.00000000
  ---------------------------------------------------
  free energy    TOTEN  =      -454.92672026 eV

  energy without entropy =     -454.96839736  energy(sigma->0) =     -454.94061263


--------------------------------------------------------------------------------------------------------




--------------------------------------- Iteration      1(  14)  ---------------------------------------


    POTLOK:  cpu time    0.3755: real time    0.3765
    SETDIJ:  cpu time    0.0329: real time    0.0330
    EDDIAG:  cpu time    9.7925: real time    9.8217
  RMM-DIIS:  cpu time   34.2512: real time   34.3539
    ORTHCH:  cpu time    1.1280: real time    1.1315
       DOS:  cpu time    0.0018: real time    0.0018
    CHARGE:  cpu time    4.0448: real time    4.0568
    MIXING:  cpu time    0.0118: real time    0.0118
    --------------------------------------------
      LOOP:  cpu time   49.6385: real time   49.7870

 eigenvalue-minimisations  :  8384
 total energy-change (2. order) :-0.2481078E+01  (-0.1721414E+00)
 number of electron     799.9999956 magnetization      44.2430233
 augmentation part      246.8687452 magnetization      28.6368357

 Broyden mixing:
  rms(total) = 0.10149E+01    rms(broyden)= 0.10149E+01
  rms(prec ) = 0.11645E+01
  weight for this iteration     100.00

 eigenvalues of (default mixing * dielectric matrix)
  average eigenvalue GAMMA=   0.7146
  1.6524  1.6524  1.1860  0.6204  0.3861  0.3861  0.2390  0.2390  0.0696

 Free energy of the ion-electron system (eV)
  ---------------------------------------------------
  alpha Z        PSCENC =      2757.98564892
  Ewald energy   TEWEN  =    171200.72753710
  -Hartree energ DENC   =   -235163.03869383
  -exchange      EXHF   =         0.00000000
  -V(xc)+E(xc)   XCENC  =       273.48763447
  PAW double counting   =     74469.14696618   -72459.93200511
  entropy T*S    EENTRO =         0.07653229
  eigenvalues    EBANDS =       134.89459694
  atomic energy  EATOM  =     58329.24398462
  Solvation  Ediel_sol  =         0.00000000
  ---------------------------------------------------
  free energy    TOTEN  =      -457.40779841 eV

  energy without entropy =     -457.48433070  energy(sigma->0) =     -457.43330918


--------------------------------------------------------------------------------------------------------




--------------------------------------- Iteration      1(  15)  ---------------------------------------


    POTLOK:  cpu time    0.3756: real time    0.3765
    SETDIJ:  cpu time    0.0330: real time    0.0330
    EDDIAG:  cpu time    9.7999: real time    9.8294
  RMM-DIIS:  cpu time   34.3198: real time   34.4222
    ORTHCH:  cpu time    1.0830: real time    1.0862
       DOS:  cpu time    0.0021: real time    0.0021
    CHARGE:  cpu time    4.0392: real time    4.0512
    MIXING:  cpu time    0.0126: real time    0.0126
    --------------------------------------------
      LOOP:  cpu time   49.6652: real time   49.8133

 eigenvalue-minimisations  :  8384
 total energy-change (2. order) :-0.4828638E+00  (-0.1886594E-01)
 number of electron     799.9999956 magnetization      39.2204212
 augmentation part      246.9282323 magnetization      23.4089918

 Broyden mixing:
  rms(total) = 0.68092E+00    rms(broyden)= 0.68092E+00
  rms(prec ) = 0.75141E+00
  weight for this iteration     100.00

 eigenvalues of (default mixing * dielectric matrix)
  average eigenvalue GAMMA=   0.7581
  1.7990  1.4860  1.4860  0.8343  0.6219  0.4545  0.3477  0.2452  0.2365  0.0696

 Free energy of the ion-electron system (eV)
  ---------------------------------------------------
  alpha Z        PSCENC =      2757.98564892
  Ewald energy   TEWEN  =    171200.72753710
  -Hartree energ DENC   =   -235161.56507124
  -exchange      EXHF   =         0.00000000
  -V(xc)+E(xc)   XCENC  =       272.87020909
  PAW double counting   =     74566.21225706   -72558.45665578
  entropy T*S    EENTRO =         0.04467802
  eigenvalues    EBANDS =       135.04674997
  atomic energy  EATOM  =     58329.24398462
  Solvation  Ediel_sol  =         0.00000000
  ---------------------------------------------------
  free energy    TOTEN  =      -457.89066222 eV

  energy without entropy =     -457.93534024  energy(sigma->0) =     -457.90555490


--------------------------------------------------------------------------------------------------------




--------------------------------------- Iteration      1(  16)  ---------------------------------------


    POTLOK:  cpu time    0.3782: real time    0.3793
    SETDIJ:  cpu time    0.0328: real time    0.0329
    EDDIAG:  cpu time    9.8647: real time    9.8943
  RMM-DIIS:  cpu time   34.1015: real time   34.2033
    ORTHCH:  cpu time    1.0874: real time    1.0905
       DOS:  cpu time    0.0020: real time    0.0021
    CHARGE:  cpu time    4.0548: real time    4.0669
    MIXING:  cpu time    0.0125: real time    0.0126
    --------------------------------------------
      LOOP:  cpu time   49.5341: real time   49.6818

 eigenvalue-minimisations  :  8350
 total energy-change (2. order) :-0.2757333E+01  (-0.9450102E-01)
 number of electron     799.9999956 magnetization      36.7778802
 augmentation part      246.9710777 magnetization      21.4789476

 Broyden mixing:
  rms(total) = 0.63430E+00    rms(broyden)= 0.63430E+00
  rms(prec ) = 0.77183E+00
  weight for this iteration     100.00

 eigenvalues of (default mixing * dielectric matrix)
  average eigenvalue GAMMA=   0.8044
  2.1868  2.1868  0.9933  0.9933  0.5780  0.5780  0.4285  0.3606  0.2394  0.2344
  0.0696

 Free energy of the ion-electron system (eV)
  ---------------------------------------------------
  alpha Z        PSCENC =      2757.98564892
  Ewald energy   TEWEN  =    171200.72753710
  -Hartree energ DENC   =   -235162.23686914
  -exchange      EXHF   =         0.00000000
  -V(xc)+E(xc)   XCENC  =       270.91001905
  PAW double counting   =     74741.80461592   -72736.37884740
  entropy T*S    EENTRO =         0.01469811
  eigenvalues    EBANDS =       137.28121728
  atomic energy  EATOM  =     58329.24398462
  Solvation  Ediel_sol  =         0.00000000
  ---------------------------------------------------
  free energy    TOTEN  =      -460.64799554 eV

  energy without entropy =     -460.66269365  energy(sigma->0) =     -460.65289491


--------------------------------------------------------------------------------------------------------




--------------------------------------- Iteration      1(  17)  ---------------------------------------


    POTLOK:  cpu time    0.3790: real time    0.3803
    SETDIJ:  cpu time    0.0331: real time    0.0331
    EDDIAG:  cpu time    9.8132: real time    9.8426
  RMM-DIIS:  cpu time   34.0704: real time   34.1692
    ORTHCH:  cpu time    1.1834: real time    1.1862
       DOS:  cpu time    0.0021: real time    0.0021
    CHARGE:  cpu time    4.0519: real time    4.0616
    MIXING:  cpu time    0.0133: real time    0.0133
    --------------------------------------------
      LOOP:  cpu time   49.5463: real time   49.6884

 eigenvalue-minimisations  :  8375
 total energy-change (2. order) :-0.1417731E+01  (-0.6224677E-01)
 number of electron     799.9999956 magnetization      34.4426252
 augmentation part      246.9634231 magnetization      19.7609631

 Broyden mixing:
  rms(total) = 0.60190E+00    rms(broyden)= 0.60190E+00
  rms(prec ) = 0.73623E+00
  weight for this iteration     100.00

 eigenvalues of (default mixing * dielectric matrix)
  average eigenvalue GAMMA=   0.8299
  2.5371  2.4496  1.0535  1.0535  0.6576  0.6576  0.4172  0.3666  0.0696  0.2354
  0.2354  0.2253

 Free energy of the ion-electron system (eV)
  ---------------------------------------------------
  alpha Z        PSCENC =      2757.98564892
  Ewald energy   TEWEN  =    171200.72753710
  -Hartree energ DENC   =   -235159.94217490
  -exchange      EXHF   =         0.00000000
  -V(xc)+E(xc)   XCENC  =       269.97845378
  PAW double counting   =     74746.63351215   -72741.15009795
  entropy T*S    EENTRO =         0.00365689
  eigenvalues    EBANDS =       134.45375329
  atomic energy  EATOM  =     58329.24398462
  Solvation  Ediel_sol  =         0.00000000
  ---------------------------------------------------
  free energy    TOTEN  =      -462.06572609 eV

  energy without entropy =     -462.06938298  energy(sigma->0) =     -462.06694505


--------------------------------------------------------------------------------------------------------




--------------------------------------- Iteration      1(  18)  ---------------------------------------


    POTLOK:  cpu time    0.3830: real time    0.3840
    SETDIJ:  cpu time    0.0332: real time    0.0332
    EDDIAG:  cpu time    9.7816: real time    9.8049
  RMM-DIIS:  cpu time   34.1408: real time   34.2215
    ORTHCH:  cpu time    1.0957: real time    1.0983
       DOS:  cpu time    0.0020: real time    0.0020
    CHARGE:  cpu time    4.0479: real time    4.0575
    MIXING:  cpu time    0.0137: real time    0.0138
    --------------------------------------------
      LOOP:  cpu time   49.4979: real time   49.6151

 eigenvalue-minimisations  :  8355
 total energy-change (2. order) :-0.1044762E+01  (-0.4526322E-01)
 number of electron     799.9999956 magnetization      32.2280462
 augmentation part      246.9530276 magnetization      18.2952687

 Broyden mixing:
  rms(total) = 0.44592E+00    rms(broyden)= 0.44592E+00
  rms(prec ) = 0.49776E+00
  weight for this iteration     100.00

 eigenvalues of (default mixing * dielectric matrix)
  average eigenvalue GAMMA=   0.8656
  3.3079  2.1560  1.1845  1.1845  0.7014  0.7014  0.4593  0.4593  0.3469  0.0696
  0.2414  0.2344  0.2058

 Free energy of the ion-electron system (eV)
  ---------------------------------------------------
  alpha Z        PSCENC =      2757.98564892
  Ewald energy   TEWEN  =    171200.72753710
  -Hartree energ DENC   =   -235155.60711384
  -exchange      EXHF   =         0.00000000
  -V(xc)+E(xc)   XCENC  =       269.23004327
  PAW double counting   =     74716.83824867   -72710.74596066
  entropy T*S    EENTRO =        -0.02830633
  eigenvalues    EBANDS =       129.24542993
  atomic energy  EATOM  =     58329.24398462
  Solvation  Ediel_sol  =         0.00000000
  ---------------------------------------------------
  free energy    TOTEN  =      -463.11048831 eV

  energy without entropy =     -463.08218199  energy(sigma->0) =     -463.10105287


--------------------------------------------------------------------------------------------------------




--------------------------------------- Iteration      1(  19)  ---------------------------------------


    POTLOK:  cpu time    0.3788: real time    0.3797
    SETDIJ:  cpu time    0.0328: real time    0.0329
    EDDIAG:  cpu time    9.9046: real time    9.9404
  RMM-DIIS:  cpu time   34.0775: real time   34.1791
    ORTHCH:  cpu time    1.0883: real time    1.0914
       DOS:  cpu time    0.0021: real time    0.0021
    CHARGE:  cpu time    4.0562: real time    4.0681
    MIXING:  cpu time    0.0138: real time    0.0138
    --------------------------------------------
      LOOP:  cpu time   49.5540: real time   49.7076

 eigenvalue-minimisations  :  8353
 total energy-change (2. order) :-0.6903535E+00  (-0.2303406E-01)
 number of electron     799.9999956 magnetization      30.1627623
 augmentation part      246.9934694 magnetization      16.8919227

 Broyden mixing:
  rms(total) = 0.38040E+00    rms(broyden)= 0.38040E+00
  rms(prec ) = 0.41702E+00
  weight for this iteration     100.00

 eigenvalues of (default mixing * dielectric matrix)
  average eigenvalue GAMMA=   0.8808
  3.7014  2.1384  1.2676  1.2676  0.7504  0.7504  0.4740  0.4740  0.3932  0.3632
  0.0696  0.2401  0.2361  0.2057

 Free energy of the ion-electron system (eV)
  ---------------------------------------------------
  alpha Z        PSCENC =      2757.98564892
  Ewald energy   TEWEN  =    171200.72753710
  -Hartree energ DENC   =   -235151.85593878
  -exchange      EXHF   =         0.00000000
  -V(xc)+E(xc)   XCENC  =       268.56117043
  PAW double counting   =     74739.45802645   -72733.41960325
  entropy T*S    EENTRO =        -0.06259225
  eigenvalues    EBANDS =       125.56092498
  atomic energy  EATOM  =     58329.24398462
  Solvation  Ediel_sol  =         0.00000000
  ---------------------------------------------------
  free energy    TOTEN  =      -463.80084178 eV

  energy without entropy =     -463.73824953  energy(sigma->0) =     -463.77997770


--------------------------------------------------------------------------------------------------------




--------------------------------------- Iteration      1(  20)  ---------------------------------------


    POTLOK:  cpu time    0.3776: real time    0.3788
    SETDIJ:  cpu time    0.0330: real time    0.0330
    EDDIAG:  cpu time    9.7801: real time    9.8094
  RMM-DIIS:  cpu time   34.0813: real time   34.1849
    ORTHCH:  cpu time    1.2281: real time    1.2322
       DOS:  cpu time    0.0027: real time    0.0027
    CHARGE:  cpu time    4.0450: real time    4.0548
    MIXING:  cpu time    0.0142: real time    0.0142
    --------------------------------------------
      LOOP:  cpu time   49.5620: real time   49.7100

 eigenvalue-minimisations  :  8351
 total energy-change (2. order) :-0.4032125E+00  (-0.1433064E-01)
 number of electron     799.9999956 magnetization      26.3623502
 augmentation part      247.0368545 magnetization      13.8088336

 Broyden mixing:
  rms(total) = 0.34209E+00    rms(broyden)= 0.34209E+00
  rms(prec ) = 0.36816E+00
  weight for this iteration     100.00

 eigenvalues of (default mixing * dielectric matrix)
  average eigenvalue GAMMA=   0.9992
  5.1487  2.1888  1.5045  1.5045  0.8130  0.8130  0.6140  0.6140  0.4436  0.3533
  0.0696  0.2378  0.2389  0.2389  0.2053

 Free energy of the ion-electron system (eV)
  ---------------------------------------------------
  alpha Z        PSCENC =      2757.98564892
  Ewald energy   TEWEN  =    171200.72753710
  -Hartree energ DENC   =   -235146.90354491
  -exchange      EXHF   =         0.00000000
  -V(xc)+E(xc)   XCENC  =       268.10768456
  PAW double counting   =     74746.88639639   -72740.65532894
  entropy T*S    EENTRO =        -0.09103835
  eigenvalues    EBANDS =       120.49460629
  atomic energy  EATOM  =     58329.24398462
  Solvation  Ediel_sol  =         0.00000000
  ---------------------------------------------------
  free energy    TOTEN  =      -464.20405432 eV

  energy without entropy =     -464.11301597  energy(sigma->0) =     -464.17370820


--------------------------------------------------------------------------------------------------------




--------------------------------------- Iteration      1(  21)  ---------------------------------------


    POTLOK:  cpu time    0.3794: real time    0.3803
    SETDIJ:  cpu time    0.0331: real time    0.0331
    EDDIAG:  cpu time    9.7797: real time    9.8030
  RMM-DIIS:  cpu time   34.2119: real time   34.2928
    ORTHCH:  cpu time    1.0890: real time    1.0916
       DOS:  cpu time    0.0021: real time    0.0021
    CHARGE:  cpu time    4.0119: real time    4.0215
    MIXING:  cpu time    0.0149: real time    0.0149
    --------------------------------------------
      LOOP:  cpu time   49.5220: real time   49.6394

 eigenvalue-minimisations  :  8367
 total energy-change (2. order) :-0.3078147E+00  (-0.1857268E-01)
 number of electron     799.9999956 magnetization      23.9792708
 augmentation part      247.1088895 magnetization      12.9634969

 Broyden mixing:
  rms(total) = 0.34159E+00    rms(broyden)= 0.34159E+00
  rms(prec ) = 0.36973E+00
  weight for this iteration     100.00

 eigenvalues of (default mixing * dielectric matrix)
  average eigenvalue GAMMA=   1.0711
  6.5505  2.2297  1.5889  1.5889  0.8436  0.8436  0.6597  0.6597  0.4212  0.4212
  0.3505  0.0696  0.2416  0.2372  0.2272  0.2047

 Free energy of the ion-electron system (eV)
  ---------------------------------------------------
  alpha Z        PSCENC =      2757.98564892
  Ewald energy   TEWEN  =    171200.72753710
  -Hartree energ DENC   =   -235135.40330365
  -exchange      EXHF   =         0.00000000
  -V(xc)+E(xc)   XCENC  =       267.67512113
  PAW double counting   =     74720.25449439   -72712.95793734
  entropy T*S    EENTRO =        -0.12449463
  eigenvalues    EBANDS =       108.08708042
  atomic energy  EATOM  =     58329.24398462
  Solvation  Ediel_sol  =         0.00000000
  ---------------------------------------------------
  free energy    TOTEN  =      -464.51186905 eV

  energy without entropy =     -464.38737442  energy(sigma->0) =     -464.47037084


--------------------------------------------------------------------------------------------------------




--------------------------------------- Iteration      1(  22)  ---------------------------------------


    POTLOK:  cpu time    0.3782: real time    0.3791
    SETDIJ:  cpu time    0.0330: real time    0.0330
    EDDIAG:  cpu time    9.8751: real time    9.8985
  RMM-DIIS:  cpu time   34.0942: real time   34.1921
    ORTHCH:  cpu time    1.0845: real time    1.0877
       DOS:  cpu time    0.0020: real time    0.0020
    CHARGE:  cpu time    3.9913: real time    4.0031
    MIXING:  cpu time    0.0150: real time    0.0150
    --------------------------------------------
      LOOP:  cpu time   49.4732: real time   49.6107

 eigenvalue-minimisations  :  8381
 total energy-change (2. order) :-0.2506166E-01  (-0.5996923E-02)
 number of electron     799.9999957 magnetization      21.1948956
 augmentation part      247.1359802 magnetization      11.1348834

 Broyden mixing:
  rms(total) = 0.32549E+00    rms(broyden)= 0.32549E+00
  rms(prec ) = 0.35885E+00
  weight for this iteration     100.00

 eigenvalues of (default mixing * dielectric matrix)
[...]

  length of vectors
    10.760000000 10.760000187 22.000000000     0.107314176  0.107314174  0.045454545


 FORCES acting on ions
    electron-ion (+dipol)            ewald-force                    non-local-force                 convergence-correction
 -----------------------------------------------------------------------------------------------
   0.403E-01 0.282E-01 -.135E+04   -.418E-01 -.263E-01 0.135E+04   0.800E-03 -.621E-02 0.497E+00   -.534E-03 0.336E-03 -.379E-02
   0.161E-01 -.211E+00 -.135E+04   -.188E-01 0.216E+00 0.135E+04   0.241E-02 -.451E-02 0.500E+00   0.131E-03 0.358E-03 -.343E-02
   0.329E+00 -.379E+00 -.135E+04   -.334E+00 0.379E+00 0.135E+04   -.317E-02 0.120E-01 0.487E+00   0.800E-04 -.125E-03 -.332E-02
   -.345E+00 0.693E+00 0.267E+04   0.356E+00 -.690E+00 -.267E+04   0.952E-03 -.124E-01 -.467E+00   0.729E-04 0.835E-04 0.150E-02
   0.735E-03 0.130E+00 0.267E+04   0.109E-01 -.145E+00 -.267E+04   -.207E-01 0.279E-01 -.469E+00   0.707E-03 -.144E-04 0.147E-02
   -.730E-01 0.377E+00 0.267E+04   0.793E-01 -.381E+00 -.267E+04   -.117E-01 0.975E-02 -.472E+00   0.741E-03 -.549E-03 0.138E-02
   0.512E+00 0.158E-01 0.135E+04   -.508E+00 -.215E-01 -.135E+04   -.155E-01 0.435E-02 -.502E+00   0.486E-03 -.233E-03 -.919E-03
   0.356E+00 -.713E-01 0.135E+04   -.353E+00 0.685E-01 -.135E+04   -.936E-02 0.187E-02 -.503E+00   -.135E-03 -.236E-03 -.205E-02
   0.126E+00 -.517E-01 -.135E+04   -.133E+00 0.563E-01 0.135E+04   0.687E-02 -.540E-03 0.486E+00   -.211E-03 -.205E-03 -.303E-02
   -.853E-02 -.302E+00 0.267E+04   0.222E-01 0.291E+00 -.267E+04   -.285E-01 0.167E-01 -.472E+00   0.701E-03 -.606E-03 0.126E-02
   -.744E+00 -.895E-01 0.135E+04   0.749E+00 0.848E-01 -.135E+04   0.162E-01 0.121E-01 -.484E+00   0.374E-03 -.160E-03 -.700E-03
   -.281E+00 -.164E-01 -.812E+00   0.284E+00 0.166E-01 0.823E+00   0.779E-02 0.426E-02 -.908E-02   -.992E-03 0.636E-03 -.351E-02
   -.333E+00 0.207E+00 -.135E+04   0.329E+00 -.199E+00 0.135E+04   0.147E-01 -.101E-01 0.496E+00   0.170E-03 -.472E-03 -.184E-02
   0.539E-01 0.357E+00 -.135E+04   -.612E-01 -.356E+00 0.135E+04   0.225E-02 -.113E-01 0.509E+00   0.111E-03 -.708E-04 -.268E-02
   -.445E+00 0.498E+00 -.135E+04   0.435E+00 -.493E+00 0.135E+04   0.223E-01 -.202E-01 0.478E+00   0.525E-03 -.190E-03 -.176E-02
   -.401E+00 -.348E-01 0.267E+04   0.409E+00 0.229E-01 -.267E+04   0.897E-02 0.110E-02 -.472E+00   -.388E-03 -.755E-04 0.812E-03
   0.111E+01 -.219E+00 0.267E+04   -.109E+01 0.203E+00 -.267E+04   -.404E-01 0.159E-01 -.472E+00   -.502E-03 0.672E-03 0.136E-02
   0.448E-02 -.339E+00 0.267E+04   0.168E-01 0.317E+00 -.267E+04   -.972E-02 0.239E-01 -.472E+00   -.493E-03 0.183E-03 0.900E-03
   -.295E+00 0.677E-01 0.135E+04   0.301E+00 -.697E-01 -.135E+04   0.102E-01 0.309E-02 -.498E+00   0.874E-04 -.697E-03 -.105E-02
   -.808E+00 0.101E+00 0.138E+01   0.816E+00 -.981E-01 -.139E+01   0.122E-01 -.658E-02 0.393E-02   0.186E-03 -.458E-03 -.328E-02
   0.139E-01 -.791E-01 0.135E+04   -.803E-02 0.797E-01 -.135E+04   -.105E-01 0.844E-02 -.494E+00   0.137E-04 -.189E-04 -.544E-03
   0.192E+00 -.321E+00 0.135E+04   -.186E+00 0.315E+00 -.135E+04   -.109E-01 0.163E-01 -.501E+00   0.616E-03 0.175E-03 -.409E-03
   0.185E+00 -.111E+00 -.135E+04   -.191E+00 0.117E+00 0.135E+04   -.329E-02 -.320E-02 0.503E+00   0.573E-03 -.364E-04 -.213E-02
   -.141E+00 0.288E+00 0.267E+04   0.153E+00 -.294E+00 -.267E+04   -.429E-02 0.130E-02 -.473E+00   -.956E-04 0.585E-03 0.108E-02
   -.827E-01 0.816E-01 0.135E+04   0.906E-01 -.848E-01 -.135E+04   -.640E-02 -.573E-03 -.501E+00   0.364E-03 -.142E-03 -.630E-03
   0.283E+00 -.147E+00 -.342E+00   -.288E+00 0.153E+00 0.348E+00   0.265E-02 -.769E-02 -.176E-02   -.911E-03 -.480E-04 -.304E-02
   -.292E-01 -.656E+00 -.267E+04   0.147E-01 0.659E+00 0.267E+04   0.189E-01 0.754E-02 0.471E+00   -.112E-03 0.367E-03 -.764E-03
   0.839E-01 -.430E+00 -.267E+04   -.989E-01 0.429E+00 0.267E+04   0.199E-01 0.918E-02 0.471E+00   0.123E-02 -.865E-03 -.610E-03
   0.454E+00 0.712E-01 -.267E+04   -.458E+00 -.590E-01 0.267E+04   -.710E-02 -.128E-01 0.468E+00   0.123E-02 -.420E-03 -.666E-03
   0.684E+00 -.638E+00 -.267E+04   -.692E+00 0.648E+00 0.267E+04   0.659E-02 0.163E-02 0.468E+00   -.355E-03 -.123E-03 -.786E-03
   -.374E-01 -.114E+00 -.267E+04   0.300E-01 0.119E+00 0.267E+04   -.434E-02 0.107E-01 0.467E+00   0.362E-03 -.212E-03 -.572E-03
   0.731E+00 0.291E+00 -.267E+04   -.737E+00 -.287E+00 0.267E+04   -.336E-02 -.620E-02 0.469E+00   0.175E-04 0.781E-04 -.991E-03
   -.617E-01 0.634E+00 -.267E+04   0.482E-01 -.624E+00 0.267E+04   0.242E-01 -.119E-01 0.469E+00   0.100E-02 -.728E-03 -.668E-03
   -.597E+00 0.210E+00 -.267E+04   0.576E+00 -.202E+00 0.267E+04   0.237E-01 -.647E-02 0.468E+00   -.148E-02 0.659E-03 -.737E-03
   0.117E+01 -.432E+00 -.267E+04   -.116E+01 0.433E+00 0.267E+04   -.298E-01 -.567E-02 0.468E+00   -.357E-03 0.143E-03 -.739E-03
   -.187E+00 0.120E+01 -.267E+04   0.173E+00 -.117E+01 0.267E+04   0.174E-02 -.337E-01 0.470E+00   0.993E-04 -.234E-03 -.516E-03
   -.548E+00 0.153E+00 -.267E+04   0.517E+00 -.148E+00 0.267E+04   0.301E-01 -.820E-02 0.468E+00   0.431E-03 -.386E-04 -.519E-03
   -.325E+00 -.456E-01 -.267E+04   0.316E+00 0.542E-01 0.267E+04   0.708E-02 -.388E-02 0.468E+00   -.975E-03 0.784E-03 -.973E-03
   -.391E+00 -.416E+00 -.267E+04   0.375E+00 0.422E+00 0.267E+04   0.230E-01 -.134E-01 0.468E+00   0.130E-02 -.739E-03 -.478E-03
   -.739E+00 0.678E+00 -.267E+04   0.729E+00 -.667E+00 0.267E+04   0.129E-01 -.134E-01 0.469E+00   -.112E-02 0.561E-03 -.887E-03
   -.846E-01 0.851E-02 -.135E+04   0.777E-01 -.261E-02 0.135E+04   0.524E-02 -.289E-02 0.498E+00   0.257E-03 0.684E-04 -.270E-02
   0.852E+00 -.658E+00 0.267E+04   -.835E+00 0.648E+00 -.267E+04   -.175E-01 0.883E-02 -.470E+00   -.626E-03 0.215E-03 0.103E-02
   0.137E+00 -.873E-02 -.135E+04   -.145E+00 0.169E-01 0.135E+04   -.167E-02 -.391E-02 0.495E+00   -.654E-05 0.121E-04 -.231E-02
   0.108E+01 -.793E+00 0.267E+04   -.106E+01 0.773E+00 -.267E+04   -.326E-01 0.258E-01 -.469E+00   -.790E-03 0.153E-04 0.983E-03
   -.245E+00 0.149E+00 0.135E+04   0.251E+00 -.155E+00 -.135E+04   -.216E-02 0.214E-02 -.499E+00   -.939E-04 0.107E-03 -.510E-03
   0.104E+00 0.736E-01 0.135E+04   -.979E-01 -.751E-01 -.135E+04   -.908E-02 -.472E-02 -.496E+00   -.327E-03 0.500E-03 -.200E-02
   0.173E+00 0.296E+00 -.135E+04   -.178E+00 -.290E+00 0.135E+04   0.598E-02 -.143E-01 0.485E+00   -.133E-03 0.481E-04 -.336E-02
   -.414E+00 -.400E-01 0.267E+04   0.419E+00 0.311E-01 -.267E+04   -.104E-01 0.957E-02 -.468E+00   0.611E-03 -.424E-03 0.119E-02
   -.433E+00 -.236E-01 0.135E+04   0.435E+00 0.230E-01 -.135E+04   0.140E-01 0.747E-04 -.498E+00   -.352E-03 0.917E-04 -.158E-02
   -.725E+00 -.425E+00 -.267E+04   0.708E+00 0.429E+00 0.267E+04   0.116E-01 0.132E-01 0.468E+00   0.993E-04 -.894E-04 -.577E-03
   0.165E+00 0.287E-01 -.345E+00   -.168E+00 -.274E-01 0.351E+00   0.137E-02 0.298E-02 -.182E-02   0.107E-02 -.397E-03 -.283E-02
   -.493E+00 0.453E+00 -.267E+04   0.481E+00 -.445E+00 0.267E+04   0.195E-01 -.200E-01 0.466E+00   -.137E-02 0.853E-03 -.786E-03
   -.945E-01 -.222E+00 0.135E+04   0.101E+00 0.218E+00 -.135E+04   0.533E-02 0.453E-02 -.509E+00   -.242E-03 -.521E-04 -.224E-02
   0.292E+00 -.724E-02 0.135E+04   -.292E+00 0.499E-02 -.135E+04   -.862E-02 -.217E-02 -.501E+00   -.618E-03 -.576E-05 -.196E-02
   0.609E+00 0.104E+00 0.360E+00   -.611E+00 -.102E+00 -.360E+00   -.189E-01 -.448E-02 0.104E-02   -.514E-03 0.428E-03 -.354E-02
   -.126E-02 0.172E-01 -.135E+04   0.124E-02 -.141E-01 0.135E+04   0.179E-02 -.732E-02 0.503E+00   -.808E-03 0.208E-03 -.393E-02
   -.408E+00 0.119E-01 -.135E+04   0.399E+00 -.932E-02 0.135E+04   0.186E-01 0.168E-03 0.496E+00   0.619E-03 -.391E-03 -.210E-02
   -.400E+00 0.382E+00 0.267E+04   0.416E+00 -.394E+00 -.267E+04   -.120E-01 0.109E-01 -.471E+00   0.238E-03 0.299E-05 0.161E-02
   -.260E+00 0.385E+00 0.267E+04   0.269E+00 -.393E+00 -.267E+04   0.568E-02 0.180E-02 -.471E+00   -.477E-03 0.148E-03 0.116E-02
   0.399E+00 0.246E-01 0.135E+04   -.394E+00 -.279E-01 -.135E+04   -.123E-01 0.114E-02 -.508E+00   -.153E-03 0.168E-03 -.165E-02
   0.376E-01 -.178E+00 0.135E+04   -.313E-01 0.173E+00 -.135E+04   0.262E-02 0.533E-02 -.507E+00   -.195E-03 0.538E-03 -.182E-02
   -.623E-01 -.247E+00 -.207E+01   0.602E-01 0.252E+00 0.209E+01   0.113E-01 0.151E-02 -.116E-01   -.626E-03 0.199E-03 -.302E-02
   0.187E+00 -.794E-01 -.135E+04   -.193E+00 0.825E-01 0.135E+04   0.523E-02 0.465E-02 0.493E+00   -.569E-03 0.476E-04 -.390E-02
   -.507E+00 -.506E+00 0.267E+04   0.516E+00 0.484E+00 -.267E+04   -.184E-02 0.252E-01 -.471E+00   0.416E-03 -.585E-03 0.148E-02
   -.129E+00 -.379E+00 0.122E+01   0.128E+00 0.384E+00 -.122E+01   0.679E-02 0.447E-02 0.896E-02   -.295E-03 0.400E-03 -.327E-02
   0.525E+00 -.131E+00 0.463E+00   -.528E+00 0.135E+00 -.462E+00   -.152E-01 -.248E-02 -.242E-02   0.712E-03 -.604E-03 -.284E-02
   -.312E+00 0.464E+00 0.735E+00   0.313E+00 -.467E+00 -.737E+00   0.188E-02 -.622E-02 0.290E-02   0.182E-03 -.260E-03 -.319E-02
   -.211E+00 -.200E+00 -.654E+00   0.210E+00 0.204E+00 0.662E+00   0.149E-01 -.577E-03 -.823E-02   -.382E-03 0.530E-03 -.344E-02
   -.488E-01 -.428E+00 -.695E-01   0.474E-01 0.436E+00 0.725E-01   0.251E-02 0.167E-02 0.358E-02   0.550E-03 -.887E-03 -.280E-02
   -.201E+00 0.147E+00 0.135E+04   0.204E+00 -.149E+00 -.135E+04   0.426E-02 -.819E-04 -.503E+00   -.225E-03 0.294E-03 -.159E-02
   -.203E+00 0.232E+00 0.182E+01   0.203E+00 -.230E+00 -.183E+01   0.563E-02 -.971E-02 0.989E-02   0.657E-03 -.436E-03 -.298E-02
   -.531E-01 -.962E-02 -.135E+04   0.509E-01 0.130E-01 0.135E+04   0.279E-02 -.353E-02 0.491E+00   -.293E-04 0.529E-03 -.382E-02
   -.164E+00 -.253E+00 -.135E+04   0.161E+00 0.260E+00 0.135E+04   0.318E-02 0.213E-02 0.504E+00   -.169E-03 -.121E-03 -.237E-02
   0.309E-01 0.839E-01 0.267E+04   -.118E-01 -.965E-01 -.267E+04   -.167E-01 0.722E-02 -.469E+00   0.566E-03 -.248E-03 0.119E-02
   0.758E+00 -.584E+00 0.267E+04   -.739E+00 0.567E+00 -.267E+04   -.224E-01 0.269E-01 -.467E+00   -.688E-03 0.603E-03 0.122E-02
   0.424E+00 0.379E+00 -.200E+01   -.428E+00 -.380E+00 0.202E+01   -.694E-02 -.108E-01 -.137E-01   -.259E-03 0.577E-03 -.328E-02
   -.492E-01 0.190E+00 0.967E-01   0.437E-01 -.191E+00 -.944E-01   0.833E-02 -.373E-02 -.223E-02   -.115E-02 0.238E-03 -.316E-02
   0.334E+00 0.396E+00 0.135E+04   -.332E+00 -.397E+00 -.135E+04   -.139E-01 -.477E-02 -.495E+00   0.400E-03 -.329E-03 -.677E-03
   -.431E+00 0.294E+00 0.141E+01   0.432E+00 -.296E+00 -.141E+01   0.126E-01 -.365E-02 0.160E-01   0.754E-03 0.127E-03 -.271E-02
   0.352E+00 0.630E-01 -.810E+00   -.357E+00 -.602E-01 0.819E+00   -.358E-02 -.465E-02 0.250E-02   0.102E-02 -.497E-04 -.253E-02
 -----------------------------------------------------------------------------------------------
   0.100E-01 -.199E-01 0.117E+00   -.896E-13 -.168E-12 -.685E-11   0.226E-01 0.392E-01 -.111E+00   0.109E-04 -.709E-05 -.108E+00
 
 
 POSITION                                       TOTAL-FORCE (eV/Angst)
 -----------------------------------------------------------------------------------
     13.11916      8.10182      7.32276        -0.001235     -0.004367      0.004278
      5.04918      8.10162      7.32485        -0.000697      0.001490      0.013534
      3.70384      5.77107      7.32850        -0.008654      0.010930      0.006745
     13.13766      8.08693      0.26161         0.011292     -0.009080     -0.000924
      5.06878      8.08463      0.26460        -0.008735      0.012738     -0.008416
      3.72371      5.75604      0.26713        -0.005368      0.005277     -0.010941
      7.75122      1.87999      2.64659        -0.011303     -0.001886     -0.018874
      9.09632      8.86850      2.64908        -0.007316     -0.000827     -0.015677
      2.35763      3.44242      7.32884        -0.000484      0.003413      0.007078
      2.37985      3.42631      0.26860        -0.014423      0.005048     -0.012732
     10.44000      1.87955      2.64479         0.020929      0.006780     -0.007604
     13.12410      4.99138      4.98901         0.008689      0.004523      0.000215
      3.70292      1.11311      7.32772         0.009404     -0.002657      0.013661
      9.08365      5.77269      7.32390        -0.005292     -0.010519      0.018682
      5.04697      3.44325      7.33097         0.012707     -0.015119      0.001173
      3.72233      1.09737      0.26748         0.015497     -0.010440     -0.010802
      9.10500      5.75603      0.26541        -0.015529      0.000893     -0.007999
      5.06850      3.42582      0.26881         0.010109      0.002133     -0.009595
     11.78517      8.86891      2.64601         0.016777      0.000470     -0.015969
     11.77938      7.32155      4.98479         0.020496     -0.004225     -0.003738
     13.13191      6.53911      2.64788        -0.004831      0.008788     -0.008005
      9.09694      4.20884      2.64779        -0.004624      0.009800     -0.016887
      7.73953      8.10156      7.32550        -0.009732      0.002881      0.014634
      7.75798      8.08595      0.26640         0.006777     -0.004031     -0.007696
     10.44181      6.53937      2.64730         0.001687     -0.004275     -0.014586
      2.36425      0.33226      4.98787        -0.004370     -0.002088      0.002057
     14.45745      8.88082      9.70492         0.003855      0.010311      0.011948
      3.69676      4.22090      9.71438         0.005606      0.006231      0.010072
      6.38889      8.88131      9.70834        -0.009688     -0.001066      0.007641
     11.76734      4.22206      9.70825        -0.002058      0.010771      0.009929
      9.07899      8.88004      9.70919        -0.011429      0.015655      0.005482
     10.42315      1.89231      9.70777        -0.009596     -0.002514      0.007845
      2.35197      1.89215      9.71023         0.010927     -0.003519      0.012197
     11.76755      8.88123      9.70620         0.000910      0.002087      0.008921
     13.11453      6.55186      9.70779        -0.022250     -0.004278      0.008379
      5.04337      1.89308      9.71124        -0.011970     -0.010618      0.006738
      7.73187      6.55150      9.70924        -0.000395     -0.004273      0.005734
      9.07782      4.22213      9.70729        -0.002915      0.004914      0.006037
      5.04216      6.55191      9.71037         0.008094     -0.007979      0.008283
      7.73296      1.89257      9.70527         0.001181     -0.002181      0.013060
      7.73786      3.44275      7.32522        -0.001283      0.002306      0.009209
      7.75850      3.42728      0.26453        -0.002548     -0.000875     -0.004857
      6.39356      1.11295      7.32470        -0.009449      0.004001      0.005971
      6.41385      1.09666      0.26377        -0.007348      0.005409     -0.004349
     11.78629      4.20949      2.64872         0.002998     -0.004410     -0.011487
      3.71692      4.20991      2.65221        -0.004284     -0.005846     -0.000903
      1.01318      1.11327      7.32609         0.000009     -0.008706      0.002274
      1.03364      1.09689      0.26321        -0.005249      0.000477     -0.003380
      6.40532      8.86868      2.64857         0.014953     -0.000200     -0.011004
      6.38788      4.22079      9.71292        -0.004385      0.016063      0.004532
      7.74486      4.99161      4.98770        -0.001341      0.003117      0.003102
     10.42245      6.55235      9.70688         0.005186     -0.011823      0.005159
      5.06044      1.87965      2.65142         0.011265      0.000186     -0.016880
      2.37107      1.87992      2.65059        -0.009539     -0.004258     -0.008798
     14.47080      7.32109      4.98652        -0.021580     -0.002577     -0.001447
     11.77364      5.77245      7.32433         0.001468     -0.004685      0.016756
      6.39300      5.77175      7.32823         0.009185      0.001953      0.017366
     11.79400      5.75603      0.26438         0.004183     -0.001335     -0.007760
      6.41280      5.75652      0.26708         0.012730     -0.005950     -0.004788
      7.75218      6.53890      2.65035        -0.007825     -0.001934     -0.016133
      6.40628      4.20924      2.65127         0.007600      0.000635     -0.015935
      3.70852      2.66179      4.99090         0.007927      0.006324      0.004934
     10.42777      3.44229      7.32461        -0.000837      0.006943      0.004675
     10.44845      3.42609      0.26229         0.006920      0.002144     -0.004805
     10.43393      0.33188      4.98460         0.004927      0.010433      0.002918
      9.09089      7.32125      4.98650        -0.018228      0.000993     -0.002570
     10.43427      4.99210      4.98569         0.003725     -0.010788     -0.000560
      6.39987      7.32082      4.98871         0.012448      0.003870     -0.001987
      5.05407      0.33216      4.98685         0.001657      0.008793      0.005139
      5.06136      6.53911      2.65062         0.006001     -0.001991     -0.012450
      7.74372      0.33272      4.98352         0.006309     -0.008281      0.000967
      9.08361      1.11298      7.32277         0.000521     -0.000217      0.002452
     10.42912      8.10156      7.32374        -0.000390      0.008217      0.013372
      9.10352      1.09730      0.26062         0.002366     -0.005573     -0.005318
     10.44844      8.08497      0.26180        -0.005105      0.010244      0.000240
      5.05528      4.99186      4.99108        -0.011101     -0.012002      0.003095
     11.77814      2.66198      4.98722         0.001491     -0.004708     -0.001733
     14.47621      8.86921      2.64561        -0.011380     -0.006418     -0.016774
      9.08821      2.66224      4.98376         0.013966     -0.006354      0.007595
      6.39896      2.66226      4.98806        -0.008005     -0.002367      0.010280
 -----------------------------------------------------------------------------------
    total drift:                                0.032651      0.019311     -0.101458


--------------------------------------------------------------------------------------------------------



  FREE ENERGIE OF THE ION-ELECTRON SYSTEM (eV)
  ---------------------------------------------------
  free  energy   TOTEN  =      -515.30857674 eV

  energy  without entropy=     -515.28560126  energy(sigma->0) =     -515.30091825
 


--------------------------------------------------------------------------------------------------------


    POTLOK:  cpu time    0.4131: real time    0.4141


--------------------------------------------------------------------------------------------------------




--------------------------------------------------------------------------------------------------------


  
 reached required accuracy - stopping structural energy minimisation
     LOOP+:  cpu time 2466.8306: real time 2473.6477
    4ORBIT:  cpu time    0.0000: real time    0.0000

 total amount of memory used by VASP MPI-rank0   238060. kBytes
=======================================================================

   base      :      30000. kBytes
   nonlr-proj:      35332. kBytes
   fftplans  :      17970. kBytes
   grid      :      44179. kBytes
   one-center:        622. kBytes
   wavefun   :     109957. kBytes
 
  
  
 General timing and accounting informations for this job:
 ========================================================
  
                  Total CPU time used (sec):     2487.271
                            User time (sec):     2482.572
                          System time (sec):        4.699
                         Elapsed time (sec):     2494.641
  
                   Maximum memory used (kb):      653192.
                   Average memory used (kb):           0.
  
                          Minor page faults:       888102
                          Major page faults:            0
                 Voluntary context switches:         2928
