 vasp.5.4.4.18Apr17-6-g9f103f2a35 (build Nov 30 2020 22:55:02) complex          
  
 executed on             LinuxIFC date 2023.09.08  21:28:21
 running on   40 total cores
 distrk:  each k-point on   40 cores,    1 groups
 distr:  one band on NCORES_PER_BAND=   1 cores,   40 groups


--------------------------------------------------------------------------------------------------------


 INCAR:
 POTCAR:    PAW_PBE Co 02Aug2007                  
 POTCAR:    PAW_PBE Pt 04Feb2005                  
 POTCAR:    PAW_PBE H 15Jun2001                   

 ----------------------------------------------------------------------------- 
|                                                                             |
|           W    W    AA    RRRRR   N    N  II  N    N   GGGG   !!!           |
|           W    W   A  A   R    R  NN   N  II  NN   N  G    G  !!!           |
|           W    W  A    A  R    R  N N  N  II  N N  N  G       !!!           |
|           W WW W  AAAAAA  RRRRR   N  N N  II  N  N N  G  GGG   !            |
|           WW  WW  A    A  R   R   N   NN  II  N   NN  G    G                |
|           W    W  A    A  R    R  N    N  II  N    N   GGGG   !!!           |
|                                                                             |
|      For optimal performance we recommend to set                            |
|        NCORE= 4 - approx SQRT( number of cores)                             |
|      NCORE specifies how many cores store one orbital (NPAR=cpu/NCORE).     |
|      This setting can  greatly improve the performance of VASP for DFT.     |
|      The default,   NCORE=1            might be grossly inefficient         |
|      on modern multi-core architectures or massively parallel machines.     |
|      Do your own testing !!!!                                               |
|      Unfortunately you need to use the default for GW and RPA calculations. |
|      (for HF NCORE is supported but not extensively tested yet)             |
|                                                                             |
 ----------------------------------------------------------------------------- 

 POTCAR:    PAW_PBE Co 02Aug2007                  
   VRHFIN =Co: d8 s1                                                            
   LEXCH  = PE                                                                  
   EATOM  =   813.3670 eV,   59.7808 Ry                                         
                                                                                
   TITEL  = PAW_PBE Co 02Aug2007                                                
   LULTRA =        F    use ultrasoft PP ?                                      
   IUNSCR =        1    unscreen: 0-lin 1-nonlin 2-no                           
   RPACOR =    2.000    partial core radius                                     
   POMASS =   58.933; ZVAL   =    9.000    mass and valenz                      
   RCORE  =    2.300    outmost cutoff radius                                   
   RWIGS  =    2.460; RWIGS  =    1.302    wigner-seitz radius (au A)           
   ENMAX  =  267.968; ENMIN  =  200.976 eV                                      
   RCLOC  =    1.203    cutoff for local pot                                    
   LCOR   =        T    correct aug charges                                     
   LPAW   =        T    paw PP                                                  
   EAUG   =  477.818                                                            
   DEXC   =    0.000                                                            
   RMAX   =    2.360    core radius for proj-oper                               
   RAUG   =    1.300    factor for augmentation sphere                          
   RDEP   =    2.393    radius for radial grids                                 
   RDEPT  =    1.864    core radius for aug-charge                              
                                                                                
   Atomic configuration                                                         
    9 entries                                                                   
     n  l   j            E        occ.                                          
     1  0  0.50     -7587.6674   2.0000                                         
     2  0  0.50      -893.6084   2.0000                                         
     2  1  1.50      -764.5805   6.0000                                         
     3  0  0.50       -97.5973   2.0000                                         
     3  1  1.50       -60.9648   6.0000                                         
     3  2  2.50        -4.2382   8.0000                                         
     4  0  0.50        -4.3746   1.0000                                         
     4  1  1.50        -4.0817   0.0000                                         
     4  3  2.50        -1.3606   0.0000                                         
   Description                                                                  
     l       E           TYP  RCUT    TYP  RCUT                                 
     2     -4.2382362     23  2.300                                             
     2     -5.5988188     23  2.300                                             
     0     -4.3745797     23  2.300                                             
     0      5.7660125     23  2.300                                             
     1     -2.7211652     23  2.300                                             
     1     16.9860234     23  2.300                                             
  local pseudopotential read in
  partial core-charges read in
  partial kinetic energy density read in
  atomic valenz-charges read in
  non local Contribution for L=           2  read in
    real space projection operators read in
  non local Contribution for L=           2  read in
    real space projection operators read in
  non local Contribution for L=           0  read in
    real space projection operators read in
  non local Contribution for L=           0  read in
    real space projection operators read in
  non local Contribution for L=           1  read in
    real space projection operators read in
  non local Contribution for L=           1  read in
    real space projection operators read in
    PAW grid and wavefunctions read in
 
   number of l-projection  operators is LMAX  =           6
   number of lm-projection operators is LMMAX =          18
 
 POTCAR:    PAW_PBE Pt 04Feb2005                  
   VRHFIN =Pt: s1d9                                                             
   LEXCH  = PE                                                                  
   EATOM  =   729.1176 eV,   53.5886 Ry                                         
                                                                                
   TITEL  = PAW_PBE Pt 04Feb2005                                                
   LULTRA =        F    use ultrasoft PP ?                                      
   IUNSCR =        1    unscreen: 0-lin 1-nonlin 2-no                           
   RPACOR =    2.330    partial core radius                                     
   POMASS =  195.080; ZVAL   =   10.000    mass and valenz                      
   RCORE  =    2.600    outmost cutoff radius                                   
   RWIGS  =    2.750; RWIGS  =    1.455    wigner-seitz radius (au A)           
   ENMAX  =  230.283; ENMIN  =  172.712 eV                                      
   ICORE  =        3    local potential                                         
   LCOR   =        T    correct aug charges                                     
   LPAW   =        T    paw PP                                                  
   EAUG   =  358.966                                                            
   DEXC   =    0.000                                                            
   RMAX   =    2.658    core radius for proj-oper                               
   RAUG   =    1.300    factor for augmentation sphere                          
   RDEP   =    2.761    radius for radial grids                                 
   RDEPT  =    2.203    core radius for aug-charge                              
                                                                                
   Atomic configuration                                                         
   16 entries                                                                   
     n  l   j            E        occ.                                          
     1  0  0.50    -78401.1885   2.0000                                         
     2  0  0.50    -13770.7750   2.0000                                         
     2  1  1.50    -11931.0468   6.0000                                         
     3  0  0.50     -3234.7234   2.0000                                         
     3  1  1.50     -2699.2216   6.0000                                         
     3  2  2.50     -2119.5714  10.0000                                         
     4  0  0.50      -695.1528   2.0000                                         
     4  1  1.50      -519.6034   6.0000                                         
     4  2  2.50      -306.6786  10.0000                                         
     4  3  3.50       -70.1041  14.0000                                         
     5  0  0.50      -101.7747   2.0000                                         
     5  1  1.50       -55.9873   6.0000                                         
     5  2  2.50        -6.1423   9.0000                                         
     6  0  0.50        -5.6573   1.0000                                         
     6  1  1.50        -6.8029   0.0000                                         
     5  3  2.50        -1.3606   0.0000                                         
   Description                                                                  
     l       E           TYP  RCUT    TYP  RCUT                                 
     2     -6.1423404     23  2.500                                             
     2     -7.5029230     23  2.500                                             
     0     -5.6573207     23  2.500                                             
     0      0.7416693     23  2.500                                             
     1     -2.7211652     23  2.600                                             
     1     20.4087390     23  2.600                                             
     3     -1.3605826     23  2.500                                             
  local pseudopotential read in
  partial core-charges read in
  partial kinetic energy density read in
  atomic valenz-charges read in
  non local Contribution for L=           2  read in
    real space projection operators read in
  non local Contribution for L=           2  read in
    real space projection operators read in
  non local Contribution for L=           0  read in
    real space projection operators read in
  non local Contribution for L=           0  read in
    real space projection operators read in
  non local Contribution for L=           1  read in
    real space projection operators read in
  non local Contribution for L=           1  read in
    real space projection operators read in
    PAW grid and wavefunctions read in
 
   number of l-projection  operators is LMAX  =           6
   number of lm-projection operators is LMMAX =          18
 
 POTCAR:    PAW_PBE H 15Jun2001                   
   VRHFIN =H: ultrasoft test                                                    
   LEXCH  = PE                                                                  
   EATOM  =    12.4884 eV,    0.9179 Ry                                         
                                                                                
   TITEL  = PAW_PBE H 15Jun2001                                                 
   LULTRA =        F    use ultrasoft PP ?                                      
   IUNSCR =        0    unscreen: 0-lin 1-nonlin 2-no                           
   RPACOR =    0.000    partial core radius                                     
   POMASS =    1.000; ZVAL   =    1.000    mass and valenz                      
   RCORE  =    1.100    outmost cutoff radius                                   
   RWIGS  =    0.700; RWIGS  =    0.370    wigner-seitz radius (au A)           
   ENMAX  =  250.000; ENMIN  =  200.000 eV                                      
   RCLOC  =    0.701    cutoff for local pot                                    
   LCOR   =        T    correct aug charges                                     
   LPAW   =        T    paw PP                                                  
   EAUG   =  400.000                                                            
   RMAX   =    1.123    core radius for proj-oper                               
   RAUG   =    1.200    factor for augmentation sphere                          
   RDEP   =    1.112    radius for radial grids                                 
   RDEPT  =    0.926    core radius for aug-charge                              
                                                                                
   Atomic configuration                                                         
    2 entries                                                                   
     n  l   j            E        occ.                                          
     1  0  0.50        -6.4927   1.0000                                         
     2  1  0.50        -3.4015   0.0000                                         
   Description                                                                  
     l       E           TYP  RCUT    TYP  RCUT                                 
     0     -6.4927494     23  1.100                                             
     0      6.8029130     23  1.100                                             
     1     -4.0817478     23  1.100                                             
  local pseudopotential read in
  atomic valenz-charges read in
  non local Contribution for L=           0  read in
    real space projection operators read in
  non local Contribution for L=           0  read in
    real space projection operators read in
  non local Contribution for L=           1  read in
    real space projection operators read in
    PAW grid and wavefunctions read in
 
   number of l-projection  operators is LMAX  =           3
   number of lm-projection operators is LMMAX =           5
 
 Optimization of the real space projectors (new method)

 maximal supplied QI-value         = 16.25
 optimisation between [QCUT,QGAM] = [ 11.86, 23.89] = [ 39.41,159.82] Ry 
 Optimized for a Real-space Cutoff    1.33 Angstroem

   l    n(q)    QCUT    max X(q) W(low)/X(q) W(high)/X(q)  e(spline) 
   2      9    11.864    65.824    0.22E-03    0.53E-03    0.26E-06
   2      9    11.864    61.429    0.22E-03    0.53E-03    0.26E-06
   0      9    11.864    56.174    0.21E-03    0.32E-04    0.15E-06
   0      9    11.864    31.263    0.19E-03    0.30E-04    0.14E-06
   1      9    11.864    19.828    0.63E-04    0.30E-03    0.16E-06
   1      9    11.864    15.139    0.49E-04    0.25E-03    0.13E-06
 Optimization of the real space projectors (new method)

 maximal supplied QI-value         = 14.36
 optimisation between [QCUT,QGAM] = [ 11.92, 23.98] = [ 39.79,161.09] Ry 
 Optimized for a Real-space Cutoff    1.49 Angstroem

   l    n(q)    QCUT    max X(q) W(low)/X(q) W(high)/X(q)  e(spline) 
   2     10    11.920    66.195    0.79E-04    0.18E-03    0.24E-06
   2     10    11.920    64.643    0.81E-04    0.19E-03    0.24E-06
   0     11    11.920    95.520    0.28E-04    0.54E-04    0.18E-06
   0     11    11.920    63.403    0.27E-04    0.52E-04    0.17E-06
   1     10    11.920    19.961    0.18E-04    0.11E-03    0.23E-06
   1     10    11.920    13.289    0.25E-04    0.87E-04    0.19E-06
 Optimization of the real space projectors (new method)

 maximal supplied QI-value         = 34.20
 optimisation between [QCUT,QGAM] = [ 11.97, 23.94] = [ 40.13,160.53] Ry 
 Optimized for a Real-space Cutoff    1.18 Angstroem

   l    n(q)    QCUT    max X(q) W(low)/X(q) W(high)/X(q)  e(spline) 
   0      8    11.971    19.460    0.15E-03    0.31E-03    0.25E-06
   0      8    11.971    12.209    0.13E-03    0.29E-03    0.25E-06
   1      8    11.971     4.655    0.22E-03    0.24E-03    0.21E-06
  PAW_PBE Co 02Aug2007                  :
 energy of atom  1       EATOM= -813.3670
 kinetic energy error for atom=    0.0026 (will be added to EATOM!!)
  PAW_PBE Pt 04Feb2005                  :
 energy of atom  2       EATOM= -729.1176
 kinetic energy error for atom=    0.0021 (will be added to EATOM!!)
  PAW_PBE H 15Jun2001                   :
 energy of atom  3       EATOM=  -12.4884
 kinetic energy error for atom=    0.0008 (will be added to EATOM!!)
 
 
 POSCAR: PtM\(2)                                 
  positions in cartesian coordinates
  No initial velocities read in
 exchange correlation table for  LEXCH =        8
   RHO(1)=    0.500       N(1)  =     2000
   RHO(2)=  100.500       N(2)  =     4000
 


--------------------------------------------------------------------------------------------------------


 ion  position               nearest neighbor table
   1  0.785  0.869  0.311-  55 2.42  20 2.42  39 2.42  73 2.63   3 2.63   2 2.64  40 2.64  56 2.64
                            57 2.64  65 2.64  29 2.64  72 2.64
   2  0.035  0.869  0.311-  39 2.42  49 2.42  52 2.42  77 2.62  67 2.63  65 2.63   1 2.64   3 2.64
                            56 2.64  23 2.64  41 2.65  33 2.65
   3  0.035  0.620  0.312-  39 2.42  12 2.42  60 2.42  77 2.62  66 2.62   1 2.63  73 2.64   2 2.64
                            40 2.64  15 2.64   9 2.64  41 2.65
   4  0.787  0.868  0.051-  21 2.41  62 2.41  19 2.41   5 2.64   6 2.64  42 2.64  59 2.64  58 2.64
                            30 2.64
   5  0.037  0.868  0.051-  54 2.41  35 2.41  62 2.41  58 2.64  24 2.64   4 2.64  43 2.64   6 2.64
                            34 2.64
   6  0.037  0.618  0.051-  32 2.41  54 2.41  21 2.41  43 2.64  10 2.64  18 2.64   4 2.64  42 2.64
                             5 2.64
   7  0.620  0.202  0.136-  28 2.41  30 2.41  58 2.41  55 2.50  63 2.50  64 2.51  62 2.64  11 2.64
                            37 2.64  19 2.64  45 2.64  22 2.64
   8  0.370  0.952  0.136-  16 2.41  24 2.41  59 2.41  53 2.50  26 2.50  50 2.51  38 2.64  25 2.64
                            44 2.64  19 2.64  37 2.64  35 2.64
   9  0.035  0.369  0.311-  12 2.42  61 2.42  46 2.42  71 2.62  66 2.63  68 2.63  13 2.63  33 2.63
                            40 2.64   3 2.64  47 2.64  15 2.65
  10  0.037  0.368  0.051-  38 2.41  32 2.41  31 2.41   6 2.64  48 2.64  34 2.64  18 2.64  42 2.64
                            16 2.64
  11  0.870  0.202  0.136-  48 2.41  58 2.41  34 2.41  61 2.50  49 2.50  63 2.52  35 2.64   7 2.64
                            22 2.64  38 2.64  31 2.64  62 2.64
  12  0.952  0.536  0.226-   9 2.42   3 2.42  40 2.42  21 2.50  31 2.50  32 2.51  39 2.64  20 2.64
                            61 2.64  46 2.64  60 2.65  51 2.65
  13  0.284  0.120  0.311-  46 2.42  26 2.42  53 2.42  69 2.63  74 2.63   9 2.63  71 2.63  33 2.63
                            23 2.64  15 2.65  29 2.65  57 2.65
  14  0.534  0.619  0.313-  36 2.42  50 2.43  51 2.43  27 2.62  41 2.62  80 2.63  47 2.63  23 2.65
                            40 2.65  57 2.65  76 2.67  75 2.67
  15  0.285  0.370  0.312-  60 2.42  64 2.42  46 2.42  74 2.62  41 2.63  66 2.63  27 2.63   3 2.64
                            13 2.65  29 2.65   9 2.65  79 2.65
  16  0.287  0.118  0.051-   8 2.41  37 2.41  38 2.41  18 2.64  30 2.64  59 2.64  34 2.64  10 2.64
                            24 2.64
  17  0.536  0.618  0.051-  22 2.41  25 2.41  44 2.41  43 2.64  28 2.64  24 2.64  59 2.64  48 2.64
                            42 2.64
  18  0.287  0.368  0.051-  37 2.41  45 2.41  32 2.41  16 2.64   6 2.64  43 2.64  10 2.64  28 2.64
                            30 2.64
  19  0.620  0.952  0.136-  30 2.41  59 2.41   4 2.41  55 2.50  20 2.50  53 2.51  62 2.64  21 2.64
                            37 2.64   7 2.64  25 2.64   8 2.64
  20  0.702  0.785  0.226-  40 2.42   1 2.42  57 2.42  25 2.50  19 2.50  21 2.51  51 2.64  12 2.64
                            53 2.64  50 2.64  55 2.64  39 2.64
  21  0.870  0.702  0.136-   4 2.41  42 2.41   6 2.41  12 2.50  39 2.50  20 2.51  31 2.64  19 2.64
                            62 2.64  25 2.64  32 2.64  54 2.64
  22  0.620  0.452  0.136-  17 2.41  28 2.41  48 2.41  63 2.50  51 2.50  36 2.51  31 2.64  25 2.64
                            45 2.64  11 2.64  44 2.64   7 2.64
  23  0.284  0.870  0.312-  26 2.41  52 2.42  50 2.42  69 2.63  67 2.63  33 2.64  13 2.64  57 2.64
                             2 2.64  41 2.65  14 2.65  75 2.65
  24  0.286  0.868  0.051-  44 2.41   8 2.41  35 2.41  34 2.64   5 2.64  17 2.64  43 2.64  59 2.64
                            16 2.64
  25  0.620  0.702  0.136-  59 2.41  17 2.41  42 2.41  20 2.50  51 2.50  50 2.51  22 2.64  31 2.64
                             8 2.64  44 2.64  19 2.64  21 2.64
  26  0.202  0.035  0.226-  23 2.41  13 2.42  33 2.42  35 2.50  38 2.50   8 2.50  53 2.64  49 2.64
                            52 2.64  50 2.64  46 2.65  61 2.65
  27  0.534  0.371  0.313-  36 2.42  64 2.43  63 2.43  14 2.62  41 2.62  78 2.62  15 2.63  47 2.63
                            56 2.65  29 2.65  79 2.67  76 2.67
  28  0.537  0.368  0.051-   7 2.41  22 2.41  45 2.41  30 2.64  58 2.64  17 2.64  18 2.64  48 2.64
                            43 2.64
  29  0.536  0.119  0.311-  64 2.42  55 2.42  53 2.42  78 2.62  72 2.63  56 2.63  74 2.64   1 2.64
                            57 2.64  15 2.65  13 2.65  27 2.65
  30  0.537  0.118  0.051-  19 2.41   7 2.41  37 2.41  28 2.64  16 2.64  59 2.64  58 2.64  18 2.64
                             4 2.64
  31  0.870  0.452  0.136-  42 2.41  48 2.41  10 2.41  61 2.49  12 2.50  51 2.52  22 2.64  21 2.64
                            25 2.64  11 2.64  32 2.64  38 2.64
  32  0.120  0.452  0.136-   6 2.41  10 2.41  18 2.41  46 2.49  12 2.51  60 2.51  38 2.64  54 2.64
                            21 2.64  37 2.64  45 2.64  31 2.64
  33  0.035  0.120  0.311-  61 2.42  49 2.42  26 2.42  67 2.63  70 2.63  71 2.63   9 2.63  13 2.63
                            23 2.64  47 2.64  56 2.65   2 2.65
  34  0.037  0.118  0.051-  35 2.41  38 2.41  11 2.41  24 2.64  10 2.64  48 2.64  16 2.64  58 2.64
                             5 2.64
  35  0.120  0.952  0.136-  34 2.41   5 2.41  24 2.41  26 2.50  49 2.51  52 2.51  11 2.64  38 2.64
                            54 2.64  44 2.64   8 2.64  62 2.64
  36  0.452  0.536  0.226-  27 2.42  14 2.42  41 2.43  44 2.50  45 2.50  22 2.51  51 2.63  64 2.63
                            63 2.63  50 2.63  60 2.63  52 2.63
  37  0.370  0.202  0.136-  18 2.41  16 2.41  30 2.41  53 2.50  46 2.50  64 2.51   7 2.64  19 2.64
                             8 2.64  45 2.64  32 2.64  38 2.64
  38  0.120  0.202  0.136-  10 2.41  34 2.41  16 2.41  26 2.50  46 2.50  61 2.51   8 2.64  35 2.64
                            32 2.64  11 2.64  37 2.64  31 2.64
  39  0.952  0.785  0.226-   2 2.42   3 2.42   1 2.42  62 2.50  21 2.50  54 2.50  60 2.64  12 2.64
                            49 2.64  52 2.64  55 2.64  20 2.64
  40  0.785  0.619  0.312-  20 2.42  51 2.42  12 2.42  80 2.62  68 2.62  73 2.63   1 2.64  57 2.64
                            47 2.64   3 2.64   9 2.64  14 2.65
  41  0.286  0.619  0.312-  52 2.43  36 2.43  60 2.43  27 2.62  14 2.62  77 2.63  15 2.63  23 2.65
                             2 2.65   3 2.65  79 2.66  75 2.67
  42  0.787  0.618  0.051-  31 2.41  21 2.41  25 2.41  48 2.64  10 2.64   4 2.64   6 2.64  59 2.64
                            17 2.64
  43  0.287  0.618  0.051-  45 2.41  44 2.41  54 2.41   6 2.64  18 2.64  17 2.64   5 2.64  24 2.64
                            28 2.64
  44  0.370  0.702  0.136-  24 2.41  43 2.41  17 2.41  50 2.50  36 2.50  52 2.51  54 2.64  25 2.64
                            45 2.64   8 2.64  35 2.64  22 2.64
  45  0.370  0.452  0.136-  43 2.41  18 2.41  28 2.41  64 2.50  36 2.50  60 2.51  22 2.64  44 2.64
                            37 2.64   7 2.64  54 2.64  32 2.64
  46  0.202  0.286  0.226-  13 2.42   9 2.42  15 2.42  32 2.49  37 2.50  38 2.50  64 2.64  12 2.64
                            60 2.64  53 2.64  26 2.65  61 2.65
  47  0.784  0.370  0.312-  51 2.42  63 2.42  61 2.42  70 2.62  68 2.63  14 2.63  27 2.63  40 2.64
                            33 2.64   9 2.64  56 2.65  76 2.66
  48  0.787  0.368  0.051-  11 2.41  31 2.41  22 2.41  10 2.64  42 2.64  34 2.64  58 2.64  28 2.64
                            17 2.64
  49  0.952  0.036  0.226-   2 2.42  33 2.42  56 2.42  11 2.50  62 2.50  35 2.51  55 2.64  39 2.64
                            26 2.64  61 2.64  52 2.65  63 2.65
  50  0.452  0.785  0.226-  57 2.42  23 2.42  14 2.43  44 2.50   8 2.51  25 2.51  51 2.62  36 2.63
                            52 2.64  20 2.64  26 2.64  53 2.65
  51  0.701  0.536  0.226-  47 2.42  40 2.42  14 2.43  25 2.50  22 2.50  31 2.52  50 2.62  36 2.63
                            20 2.64  63 2.64  61 2.64  12 2.65
  52  0.203  0.785  0.226-  23 2.42   2 2.42  41 2.43  54 2.50  35 2.51  44 2.51  60 2.63  36 2.63
                            50 2.64  39 2.64  26 2.64  49 2.65
  53  0.452  0.036  0.226-  57 2.42  29 2.42  13 2.42  37 2.50   8 2.50  19 2.51  55 2.64  20 2.64
                            26 2.64  46 2.64  50 2.65  64 2.65
  54  0.120  0.702  0.136-   5 2.41   6 2.41  43 2.41  60 2.50  39 2.50  52 2.50  44 2.64  35 2.64
                            32 2.64  62 2.64  21 2.64  45 2.64
  55  0.702  0.035  0.226-  56 2.42   1 2.42  29 2.42   7 2.50  19 2.50  62 2.50  49 2.64  53 2.64
                            39 2.64  20 2.64  64 2.64  63 2.64
  56  0.784  0.119  0.311-  55 2.42  63 2.42  49 2.42  78 2.62  65 2.63  29 2.63  70 2.63   1 2.64
                             2 2.64  47 2.65  27 2.65  33 2.65
  57  0.535  0.869  0.311-  53 2.42  50 2.42  20 2.42  80 2.62  72 2.63  69 2.63  40 2.64   1 2.64
                            29 2.64  23 2.64  14 2.65  13 2.65
  58  0.787  0.118  0.051-  62 2.41  11 2.41   7 2.41   5 2.64  28 2.64  48 2.64  30 2.64  34 2.64
                             4 2.64
  59  0.537  0.868  0.051-  25 2.41  19 2.41   8 2.41  16 2.64  30 2.64  42 2.64   4 2.64  17 2.64
                            24 2.64
  60  0.203  0.536  0.226-  15 2.42   3 2.42  41 2.43  54 2.50  45 2.51  32 2.51  52 2.63  36 2.63
                            39 2.64  64 2.64  46 2.64  12 2.65
  61  0.951  0.286  0.226-  33 2.42   9 2.42  47 2.42  31 2.49  11 2.50  38 2.51  63 2.64  12 2.64
                            51 2.64  49 2.64  26 2.65  46 2.65
  62  0.870  0.952  0.136-  58 2.41   4 2.41   5 2.41  39 2.50  49 2.50  55 2.50   7 2.64  19 2.64
                            21 2.64  54 2.64  11 2.64  35 2.64
  63  0.701  0.286  0.226-  56 2.42  47 2.42  27 2.43  22 2.50   7 2.50  11 2.52  64 2.63  36 2.63
                            51 2.64  61 2.64  55 2.64  49 2.65
  64  0.452  0.286  0.226-  29 2.42  15 2.42  27 2.43  45 2.50  37 2.51   7 2.51  63 2.63  36 2.63
                            60 2.64  46 2.64  55 2.64  53 2.65
  65  0.868  0.954  0.409-  78 2.62  77 2.63  56 2.63   2 2.63  70 2.64  67 2.64   1 2.64  73 2.64
                            72 2.64
  66  0.117  0.454  0.409-  79 2.62   3 2.62  68 2.63   9 2.63  15 2.63  71 2.64  73 2.64  77 2.64
                            74 2.64
  67  0.117  0.954  0.409-  75 2.62  33 2.63  70 2.63  23 2.63   2 2.63  65 2.64  71 2.64  77 2.64
                            69 2.65
  68  0.869  0.453  0.409-  76 2.62  40 2.62  66 2.63   9 2.63  47 2.63  71 2.63  73 2.64  80 2.64
                            70 2.65
  69  0.368  0.954  0.409-  75 2.62  13 2.63  23 2.63  74 2.63  57 2.63  72 2.63  71 2.64  67 2.65
                            80 2.65
  70  0.868  0.203  0.409-  76 2.62  47 2.62  67 2.63  33 2.63  56 2.63  71 2.64  65 2.64  78 2.64
                            68 2.65
  71  0.118  0.204  0.409-   9 2.62  33 2.63  13 2.63  68 2.63  70 2.64  74 2.64  66 2.64  69 2.64
                            67 2.64
  72  0.617  0.954  0.409-  78 2.62  80 2.63  29 2.63  57 2.63  69 2.63  74 2.64   1 2.64  65 2.64
                            73 2.64
  73  0.868  0.703  0.409-  80 2.62  77 2.62   1 2.63  40 2.63   3 2.64  68 2.64  66 2.64  65 2.64
                            72 2.64
  74  0.368  0.203  0.409-  79 2.62  15 2.62  13 2.63  69 2.63  72 2.64  29 2.64  71 2.64  78 2.64
                            66 2.64
  75  0.366  0.707  0.411-  81 1.85  67 2.62  69 2.62  23 2.65  77 2.66  80 2.66  41 2.67  14 2.67
                            79 2.70  76 2.70
  76  0.622  0.451  0.412-  81 1.84  70 2.62  68 2.62  47 2.66  78 2.66  80 2.66  14 2.67  27 2.67
                            79 2.70  75 2.70
  77  0.116  0.704  0.409-   2 2.62   3 2.62  73 2.62  65 2.63  41 2.63  66 2.64  67 2.64  75 2.66
                            79 2.66
  78  0.619  0.201  0.409-  27 2.62  72 2.62  65 2.62  29 2.62  56 2.62  74 2.64  70 2.64  76 2.66
                            79 2.66
  79  0.366  0.452  0.412-  81 1.87  74 2.62  66 2.62  15 2.65  78 2.66  77 2.66  41 2.66  27 2.67
                            75 2.70  76 2.70
  80  0.619  0.704  0.409-  57 2.62  73 2.62  40 2.62  72 2.63  14 2.63  68 2.64  69 2.65  75 2.66
                            76 2.66
  81  0.452  0.538  0.457-  76 1.84  75 1.85  79 1.87
 
  LATTYP: Found a hexagonal cell.
 ALAT       =    10.5600004196
 C/A-ratio  =     2.0833332505
  
  Lattice vectors:
  
 A1 = (   5.2800002098,  -9.1452286274,   0.0000000000)
 A2 = ( -10.5600004196,   0.0000000000,   0.0000000000)
 A3 = (   0.0000000000,   0.0000000000, -22.0000000000)


Analysis of symmetry for initial positions (statically):
=====================================================================
 Subroutine PRICEL returns:
 Original cell was already a primitive cell.
 

 Routine SETGRP: Setting up the symmetry group for a 
 hexagonal supercell.


 Subroutine GETGRP returns: Found  1 space group operations
 (whereof  1 operations were pure point group operations)
 out of a pool of 24 trial point group operations.


The static configuration has the point symmetry C_1 .


Analysis of symmetry for dynamics (positions and initial velocities):
=====================================================================
 Subroutine PRICEL returns:
 Original cell was already a primitive cell.
 

 Routine SETGRP: Setting up the symmetry group for a 
 hexagonal supercell.


 Subroutine GETGRP returns: Found  1 space group operations
 (whereof  1 operations were pure point group operations)
 out of a pool of 24 trial point group operations.


The dynamic configuration has the point symmetry C_1 .


Analysis of constrained symmetry for selective dynamics:
=====================================================================
 Subroutine PRICEL returns:
 Original cell was already a primitive cell.
 

 Routine SETGRP: Setting up the symmetry group for a 
 hexagonal supercell.


 Subroutine GETGRP returns: Found  1 space group operations
 (whereof  1 operations were pure point group operations)
 out of a pool of 24 trial point group operations.


The constrained configuration has the point symmetry C_1 .


Analysis of structural, dynamic, and magnetic symmetry:
=====================================================================
 Subroutine PRICEL returns:
 Original cell was already a primitive cell.
 

 Routine SETGRP: Setting up the symmetry group for a 
 hexagonal supercell.


 Subroutine GETGRP returns: Found  1 space group operations
 (whereof  1 operations were pure point group operations)
 out of a pool of 24 trial point group operations.


The magnetic configuration has the point symmetry C_1 .


 Subroutine INISYM returns: Found  1 space group operations
 (whereof  1 operations are pure point group operations),
 and found     1 'primitive' translations

 
 
 KPOINTS: mesh auto                               

Automatic generation of k-mesh.
Space group operators:
 irot       det(A)        alpha          n_x          n_y          n_z        tau_x        tau_y        tau_z
    1     1.000000     0.000001     1.000000     0.000000     0.000000     0.000000     0.000000     0.000000
 
 Subroutine IBZKPT returns following result:
 ===========================================
 
 Found      4 irreducible k-points:
 
 Following reciprocal coordinates:
            Coordinates               Weight
  0.000000  0.000000  0.000000      1.000000
  0.500000  0.000000  0.000000      1.000000
  0.000000  0.500000  0.000000      1.000000
  0.500000  0.500000  0.000000      1.000000
 
 Following cartesian coordinates:
            Coordinates               Weight
  0.000000  0.000000  0.000000      1.000000
  0.047348 -0.027337  0.000000      1.000000
  0.000000  0.054673  0.000000      1.000000
  0.047348  0.027337  0.000000      1.000000
 
 TETIRR: Found     12 inequivalent tetrahedra from       24
 
 Subroutine IBZKPT_HF returns following result:
 ==============================================
 
 Found      4 k-points in 1st BZ
 the following      4 k-points will be used (e.g. in the exchange kernel)
 Following reciprocal coordinates:   # in IRBZ
  0.000000  0.000000  0.000000    0.25000000   1 t-inv F
  0.500000  0.000000  0.000000    0.25000000   2 t-inv F
  0.000000  0.500000  0.000000    0.25000000   3 t-inv F
  0.500000  0.500000  0.000000    0.25000000   4 t-inv F


--------------------------------------------------------------------------------------------------------




 Dimension of arrays:
   k-points           NKPTS =      4   k-points in BZ     NKDIM =      4   number of bands    NBANDS=    520
   number of dos      NEDOS =    301   number of ions     NIONS =     81
   non local maximal  LDIM  =      6   non local SUM 2l+1 LMDIM =     18
   total plane-waves  NPLWV = ******
   max r-space proj   IRMAX =   7802   max aug-charges    IRDMAX=  33988
   dimension x,y,z NGX =    84 NGY =   84 NGZ =  168
   dimension x,y,z NGXF=   168 NGYF=  168 NGZF=  336
   support grid    NGXF=   168 NGYF=  168 NGZF=  336
   ions per type =              64  16   1
   NGX,Y,Z   is equivalent  to a cutoff of  13.22, 13.22, 12.70 a.u.
   NGXF,Y,Z  is equivalent  to a cutoff of  26.45, 26.45, 25.39 a.u.

 SYSTEM =  Pt111                                   
 POSCAR =  PtM\(2)                                 

 Startparameter for this run:
   NWRITE =      2    write-flag & timer
   PREC   = accura    normal or accurate (medium, high low for compatibility)
   ISTART =      0    job   : 0-new  1-cont  2-samecut
   ICHARG =      2    charge: 1-file 2-atom 10-const
   ISPIN  =      2    spin polarized calculation?
   LNONCOLLINEAR =      F non collinear calculations
   LSORBIT =      F    spin-orbit coupling
   INIWAV =      1    electr: 0-lowe 1-rand  2-diag
   LASPH  =      F    aspherical Exc in radial PAW
   METAGGA=      F    non-selfconsistent MetaGGA calc.

 Electronic Relaxation 1
   ENCUT  =  550.0 eV  40.42 Ry    6.36 a.u.  20.19 20.19 42.07*2*pi/ulx,y,z
   ENINI  =  550.0     initial cutoff
   ENAUG  =  477.8 eV  augmentation charge cutoff
   NELM   =    200;   NELMIN=  2; NELMDL= -5     # of ELM steps 
   EDIFF  = 0.1E-04   stopping-criterion for ELM
   LREAL  =      T    real-space projection
   NLSPLINE    = F    spline interpolate recip. space projectors
   LCOMPAT=      F    compatible to vasp.4.4
   GGA_COMPAT  = T    GGA compatible to vasp.4.4-vasp.4.6
   LMAXPAW     = -100 max onsite density
   LMAXMIX     =    2 max onsite mixed and CHGCAR
   VOSKOWN=      0    Vosko Wilk Nusair interpolation
   ROPT   =   -0.00025  -0.00025  -0.00025
 Ionic relaxation
   EDIFFG = -.5E-01   stopping-criterion for IOM
   NSW    =   1009    number of steps for IOM
   NBLOCK =      1;   KBLOCK =   1009    inner block; outer block 
   IBRION =      5    ionic relax: 0-MD 1-quasi-New 2-CG
   NFREE  =      2    steps in history (QN), initial steepest desc. (CG)
   ISIF   =      2    stress and relaxation
   IWAVPR =     11    prediction:  0-non 1-charg 2-wave 3-comb
   ISYM   =      2    0-nonsym 1-usesym 2-fastsym
   LCORR  =      T    Harris-Foulkes like correction to forces

   POTIM  = 0.5000    time-step for ionic-motion
   TEIN   =    0.0    initial temperature
   TEBEG  =    0.0;   TEEND  =   0.0 temperature during run
   SMASS  =  -3.00    Nose mass-parameter (am)
   estimated Nose-frequenzy (Omega)   =  0.10E-29 period in steps =****** mass=  -0.255E-26a.u.
   SCALEE = 1.0000    scale energy and forces
   NPACO  =    256;   APACO  = 16.0  distance and # of slots for P.C.
   PSTRESS=    0.0 pullay stress

  Mass of Ions in am
   POMASS =  58.93195.08  1.00
  Ionic Valenz
   ZVAL   =   9.00 10.00  1.00
  Atomic Wigner-Seitz radii
   RWIGS  =  -1.00 -1.00 -1.00
  virtual crystal weights 
   VCA    =   1.00  1.00  1.00
   NELECT =     737.0000    total number of electrons
   NUPDOWN=      -1.0000    fix difference up-down

 DOS related values:
   EMIN   =  10.00;   EMAX   =-10.00  energy-range for DOS
   EFERMI =   0.00
   ISMEAR =    -5;   SIGMA  =   0.10  broadening in eV -4-tet -1-fermi 0-gaus

 Electronic relaxation 2 (details)
   IALGO  =     68    algorithm
   LDIAG  =      T    sub-space diagonalisation (order eigenvalues)
   LSUBROT=      F    optimize rotation matrix (better conditioning)
   TURBO    =      0    0=normal 1=particle mesh
   IRESTART =      0    0=no restart 2=restart with 2 vectors
   NREBOOT  =      0    no. of reboots
   NMIN     =      0    reboot dimension
   EREF     =   0.00    reference energy to select bands
   IMIX   =      4    mixing-type and parameters
     AMIX     =   0.40;   BMIX     =  1.00
     AMIX_MAG =   1.60;   BMIX_MAG =  1.00
     AMIN     =   0.10
     WC   =   100.;   INIMIX=   1;  MIXPRE=   1;  MAXMIX= -45

 Intra band minimization:
   WEIMIN = 0.0010     energy-eigenvalue tresh-hold
   EBREAK =  0.48E-08  absolut break condition
   DEPER  =   0.30     relativ break condition  

   TIME   =   0.40     timestep for ELM

  volume/ion in A,a.u.               =      26.23       177.01
  Fermi-wavevector in a.u.,A,eV,Ry     =   1.150280  2.173714 18.002471  1.323144
  Thomas-Fermi vector in A             =   2.286945
 
 Write flags
   LWAVE        =      F    write WAVECAR
   LDOWNSAMPLE  =      F    k-point downsampling of WAVECAR
   LCHARG       =      F    write CHGCAR
   LVTOT        =      F    write LOCPOT, total local potential
   LVHAR        =      F    write LOCPOT, Hartree potential only
   LELF         =      F    write electronic localiz. function (ELF)
   LORBIT       =      0    0 simple, 1 ext, 2 COOP (PROOUT), +10 PAW based schemes


 Dipole corrections
   LMONO  =      F    monopole corrections only (constant potential shift)
   LDIPOL =      F    correct potential (dipole corrections)
   IDIPOL =      0    1-x, 2-y, 3-z, 4-all directions 
   EPSILON=  1.0000000 bulk dielectric constant

 Exchange correlation treatment:
   GGA     =    --    GGA type
   LEXCH   =     8    internal setting for exchange type
   VOSKOWN=      0    Vosko Wilk Nusair interpolation
   LHFCALC =     F    Hartree Fock is set to
   LHFONE  =     F    Hartree Fock one center treatment
   AEXX    =    0.0000 exact exchange contribution

 Linear response parameters
   LEPSILON=     F    determine dielectric tensor
   LRPA    =     F    only Hartree local field effects (RPA)
   LNABLA  =     F    use nabla operator in PAW spheres
   LVEL    =     F    velocity operator in full k-point grid
   LINTERFAST=   F  fast interpolation
   KINTER  =     0    interpolate to denser k-point grid
   CSHIFT  =0.1000    complex shift for real part using Kramers Kronig
   OMEGAMAX=  -1.0    maximum frequency
   DEG_THRESHOLD= 0.2000000E-02 threshold for treating states as degnerate
   RTIME   =   -0.100 relaxation time in fs
  (WPLASMAI=    0.000 imaginary part of plasma frequency in eV, 0.658/RTIME)
   DFIELD  = 0.0000000 0.0000000 0.0000000 field for delta impulse in time
 
 Orbital magnetization related:
   ORBITALMAG=     F  switch on orbital magnetization
   LCHIMAG   =     F  perturbation theory with respect to B field
   DQ        =  0.001000  dq finite difference perturbation B field
   LLRAUG    =     F  two centre corrections for induced B field



--------------------------------------------------------------------------------------------------------


 finite differences
   using selective dynamics as specified on POSCAR
   WARNING: If single coordinates had been selected the selection of coordinates
            is made according to the corresponding   d i r e c t   coordinates!
            Don't support selection of single cartesian coordinates -- sorry ...
  !
 charge density and potential will be updated during run
 spin polarized calculation
 RMM-DIIS sequential band-by-band and
  variant of blocked Davidson during initial phase
 perform sub-space diagonalisation
    before iterative eigenvector-optimisation
 modified Broyden-mixing scheme, WC =      100.0
 initial mixing is a Kerker type mixing with AMIX =  0.4000 and BMIX =      1.0000
 Hartree-type preconditioning will be used
 using additional bands          151
 real space projection scheme for non local part
 use partial core corrections
 calculate Harris-corrections to forces 
   (improved forces if not selfconsistent)
 use gradient corrections 
 use of overlap-Matrix (Vanderbilt PP)
 Fermi weights with tetrahedron method with Bloechl corrections


--------------------------------------------------------------------------------------------------------


  energy-cutoff  :      550.00
  volume of cell :     2124.62
      direct lattice vectors                 reciprocal lattice vectors
    10.560000420  0.000000000  0.000000000     0.094696966 -0.054673319  0.000000000
     5.280000210  9.145228627  0.000000000     0.000000000  0.109346638  0.000000000
     0.000000000  0.000000000 22.000000000     0.000000000  0.000000000  0.045454545

  length of vectors
    10.560000420 10.560000420 22.000000000     0.109346638  0.109346638  0.045454545


 
 k-points in units of 2pi/SCALE and weight: mesh auto                               
   0.00000000  0.00000000  0.00000000       0.250
   0.04734848 -0.02733666  0.00000000       0.250
   0.00000000  0.05467332  0.00000000       0.250
   0.04734848  0.02733666  0.00000000       0.250
 
 k-points in reciprocal lattice and weights: mesh auto                               
   0.00000000  0.00000000  0.00000000       0.250
   0.50000000  0.00000000  0.00000000       0.250
   0.00000000  0.50000000  0.00000000       0.250
   0.50000000  0.50000000  0.00000000       0.250
 
 position of ions in fractional coordinates (direct lattice) 
   0.78515850  0.86890956  0.31137047
   0.03459402  0.86913728  0.31148313
   0.03466983  0.61950077  0.31161141
   0.78672737  0.86796427  0.05124594
   0.03655829  0.86811559  0.05129685
   0.03663850  0.61800272  0.05132683
   0.61974581  0.20156539  0.13598422
   0.36965812  0.95165874  0.13596282
   0.03505758  0.36900903  0.31145234
   0.03659631  0.36812104  0.05134006
   0.86964458  0.20165938  0.13596857
   0.95199939  0.53575195  0.22614416
   0.28430928  0.11993331  0.31139948
   0.53444532  0.61877531  0.31251588
   0.28532719  0.37006279  0.31180885
   0.28668923  0.11816423  0.05129869
   0.53643122  0.61808880  0.05123215
   0.28654946  0.36808879  0.05135412
   0.61968552  0.95160862  0.13594574
   0.70196384  0.78532642  0.22606160
   0.86960684  0.70164345  0.13597445
   0.61967870  0.45169725  0.13595188
   0.28446991  0.87023764  0.31159985
   0.28644846  0.86814797  0.05128443
   0.61958777  0.70166494  0.13591218
   0.20223774  0.03529582  0.22598997
   0.53442258  0.37064744  0.31261739
   0.53667278  0.36796893  0.05129270
   0.53561584  0.11899125  0.31145007
   0.53667273  0.11808196  0.05128312
   0.86953476  0.45175991  0.13600323
   0.11968810  0.45163155  0.13605895
   0.03494769  0.11987982  0.31134145
   0.03670730  0.11813552  0.05129760
   0.11958412  0.95170982  0.13599964
   0.45217212  0.53557471  0.22646599
   0.36976480  0.20160926  0.13602383
   0.11971248  0.20160801  0.13602195
   0.95236129  0.78533212  0.22607893
   0.78488837  0.61939415  0.31158722
   0.28601673  0.61886669  0.31247254
   0.78661220  0.61805706  0.05124911
   0.28651464  0.61802871  0.05130543
   0.36959900  0.70170145  0.13596552
   0.36974844  0.45164511  0.13601924
   0.20246814  0.28627138  0.22611995
   0.78427286  0.36988034  0.31173062
   0.78671851  0.36806138  0.05126972
   0.95193210  0.03556156  0.22614284
   0.45226718  0.78474336  0.22643176
   0.70081092  0.53620846  0.22637606
   0.20261737  0.78491817  0.22643401
   0.45218055  0.03551250  0.22613192
   0.11964839  0.70167811  0.13601062
   0.70208050  0.03548885  0.22603210
   0.78447174  0.11900998  0.31149130
   0.53525479  0.86918957  0.31146916
   0.78671389  0.11805280  0.05126078
   0.53658682  0.86813335  0.05124811
   0.20259949  0.53621287  0.22639855
   0.95104783  0.28629241  0.22604090
   0.86955967  0.95164736  0.13596443
   0.70117822  0.28626784  0.22642450
   0.45242279  0.28629952  0.22644344
   0.86764803  0.95358364  0.40908537
   0.11706345  0.45350407  0.40890128
   0.11715346  0.95403994  0.40874868
   0.86850177  0.45344638  0.40892073
   0.36758977  0.95412534  0.40881095
   0.86841643  0.20284687  0.40871851
   0.11763848  0.20356634  0.40890737
   0.61732024  0.95369278  0.40908294
   0.86764910  0.70343421  0.40920853
   0.36751414  0.20305541  0.40876156
   0.36576581  0.70724630  0.41142991
   0.62172819  0.45129127  0.41174118
   0.11564557  0.70436832  0.40883349
   0.61866438  0.20143110  0.40887388
   0.36600504  0.45159854  0.41158507
   0.61882206  0.70436613  0.40881397
   0.45239730  0.53810588  0.45715832
 
 position of ions in cartesian coordinates  (Angst):
  12.87911674  7.94637660  6.85015042
   4.95435793  7.94845917  6.85262876
   3.63707766  5.66547621  6.85545104
  12.89069282  7.93773165  1.12741065
   4.96970603  7.93911553  1.12853070
   3.64995711  5.65177617  1.12919030
   7.60878135  1.84336156  2.99165289
   8.92834820  8.70313676  2.99118200
   2.31857581  3.37467195  6.85195140
   2.33013621  3.36655108  1.12948134
  10.24820871  1.84422114  2.99130850
  12.88188439  4.89957407  4.97517148
   3.63555405  1.09681757  6.85078850
   8.91087652  5.65884165  6.87534928
   4.96698679  3.38430879  6.85979465
   3.65134558  1.08063889  1.12857113
   8.92822296  5.65256340  1.12710731
   4.96947128  3.36625614  1.12979070
  11.56837308  8.70267838  2.99080638
  11.55926208  7.18198962  4.97335519
  12.88772622  6.41668978  2.99143800
   8.92876895  4.13087463  2.99094130
   7.59885728  7.95852222  6.85519678
   7.60871732  7.93941164  1.12825737
  10.24763817  6.41688629  2.99006786
   2.32199262  0.32278838  4.97177937
   7.60052116  3.38965554  6.87758249
   7.61014081  3.36515998  1.12843932
   6.28437731  1.08820214  6.85190163
   6.29073703  1.07988653  1.12822855
  11.56757982  4.13144765  2.99207102
   3.64852106  4.13027377  2.99329699
   1.00201304  1.09632832  6.84951198
   1.01138472  1.08037638  1.12854727
   6.28783640  8.70360389  2.99199201
   7.60277232  4.89795314  4.98225169
   4.96921340  1.84376278  2.99252428
   2.32865418  1.84375135  2.99248299
  14.20348933  7.18204176  4.97373656
  11.55882274  5.66450111  6.85491891
   6.28795305  5.65967741  6.87439582
  11.56996659  5.65227313  1.12748032
   6.28878646  5.65201383  1.12871950
   7.60794938  6.41722021  2.99124143
   6.28923001  4.13039782  2.99242328
   3.64957664  2.61801724  4.97463884
  10.23488999  3.38264029  6.85807364
  10.25111193  3.36600545  1.12793384
  10.24016844  0.32521860  4.97514245
   8.91938667  7.17665740  4.98149867
  10.23174442  4.90374895  4.98027337
   6.28400765  7.17825613  4.98154813
   4.96253283  0.32476989  4.97490220
   4.96834764  6.41700677  2.99223361
   7.60135153  0.32455366  4.97270611
   8.91239463  1.08837347  6.85280868
  10.24161189  7.94893735  6.85232155
   8.93101782  1.07961985  1.12773711
  10.25010137  7.93927801  1.12745837
   4.97065473  4.90378925  4.98076804
  11.55468947  2.61820951  4.97289986
  14.20724879  8.70303269  2.99121738
   8.91593658  2.61798488  4.98133891
   6.28924644  2.61827458  4.98175577
  14.19728536  8.72074036  8.99987813
   3.63069169  4.14739837  8.99582824
   6.27447162  8.72491335  8.99247099
  11.56557609  4.14687081  8.99625596
   8.91953009  8.72569435  8.99384083
  10.24150938  1.85508101  8.99180719
   2.31709270  1.86166074  8.99596224
  11.55440006  8.72173849  8.99982459
  12.87650763  6.43306664  9.00258771
   4.95308213  1.85698814  8.99275441
   7.59674769  6.46792914  9.05145793
   8.94826800  4.12716187  9.05830594
   4.94028214  6.44160931  8.99433682
   7.59665242  1.84213348  8.99522536
   6.24945374  4.12997189  9.05487160
  10.25381452  6.44158926  8.99390741
   7.61851486  4.92110133 10.05748294
 


--------------------------------------------------------------------------------------------------------


 k-point  1 :   0.0000 0.0000 0.0000  plane waves:   62167
 k-point  2 :   0.5000 0.0000 0.0000  plane waves:   62242
 k-point  3 :   0.0000 0.5000 0.0000  plane waves:   62242
 k-point  4 :   0.5000 0.5000 0.0000  plane waves:   62242

 maximum and minimum number of plane-waves per node :     62242    62167

 maximum number of plane-waves:     62242
 maximum index in each direction: 
   IXMAX=   20   IYMAX=   20   IZMAX=   42
   IXMIN=  -20   IYMIN=  -20   IZMIN=  -42


 serial   3D FFT for wavefunctions
 parallel 3D FFT for charge:
    minimum data exchange during FFTs selected (reduces bandwidth)


 total amount of memory used by VASP MPI-rank0   355928. kBytes
=======================================================================

   base      :      30000. kBytes
   nonlr-proj:      83302. kBytes
   fftplans  :      13995. kBytes
   grid      :     120016. kBytes
   one-center:       2519. kBytes
   wavefun   :     106096. kBytes
 
     INWAV:  cpu time    0.0000: real time    0.0000
 Broyden mixing: mesh for mixing (old mesh)
   NGX = 41   NGY = 41   NGZ = 85
  (NGX  =168   NGY  =168   NGZ  =336)
  gives a total of 142885 points

 initial charge density was supplied:
 charge density of overlapping atoms calculated
 number of electron     737.0000000 magnetization      81.0000000
 keeping initial charge density in first step


--------------------------------------------------------------------------------------------------------


 Maximum index for non-local projection operator         7539
 Maximum index for augmentation-charges         1515 (set IRDMAX)


--------------------------------------------------------------------------------------------------------


 First call to EWALD:  gamma=   0.138
 Maximum number of real-space cells 4x 4x 2
 Maximum number of reciprocal cells 2x 2x 4

    FEWALD:  cpu time    0.0040: real time    0.0040


--------------------------------------- Iteration      1(   1)  ---------------------------------------


    POTLOK:  cpu time    0.4788: real time    0.4932
    SETDIJ:  cpu time    0.0341: real time    0.0345
     EDDAV:  cpu time   45.6449: real time   45.8306
 BZINTS: Fermi energy: 14.723377;737.000000 electrons
         Band energy:6801.690982;  BLOECHL correction: -0.013484
       DOS:  cpu time    0.0151: real time    0.0152
    --------------------------------------------
      LOOP:  cpu time   46.1729: real time   46.3735

 eigenvalue-minimisations  :  8320
 total energy-change (2. order) : 0.6267098E+04  (-0.3257984E+05)
 number of electron     737.0000000 magnetization      81.0000000
 augmentation part      737.0000000 magnetization      81.0000000

 Free energy of the ion-electron system (eV)
  ---------------------------------------------------
  alpha Z        PSCENC =      1573.28966429
  Ewald energy   TEWEN  =    228214.05841055
  -Hartree energ DENC   =   -292231.09763681
  -exchange      EXHF   =         0.00000000
  -V(xc)+E(xc)   XCENC  =      1116.37298906
  PAW double counting   =     57276.07814875   -60216.95427584
  entropy T*S    EENTRO =         0.00000000
  eigenvalues    EBANDS =      6801.69098211
  atomic energy  EATOM  =     63733.65965817
  Solvation  Ediel_sol  =         0.00000000
  ---------------------------------------------------
  free energy    TOTEN  =      6267.09794029 eV

  energy without entropy =     6267.09794029  energy(sigma->0) =     6267.09794029


--------------------------------------------------------------------------------------------------------




--------------------------------------- Iteration      1(   2)  ---------------------------------------


     EDDAV:  cpu time   45.4219: real time   45.5301
 BZINTS: Fermi energy:  4.240548;737.000000 electrons
         Band energy: 705.225131;  BLOECHL correction:  0.000000
       DOS:  cpu time    0.0046: real time    0.0046
    --------------------------------------------
      LOOP:  cpu time   45.4265: real time   45.5346

 eigenvalue-minimisations  :  8320
 total energy-change (2. order) :-0.6096466E+04  (-0.5671477E+04)
 number of electron     737.0000000 magnetization      81.0000000
 augmentation part      737.0000000 magnetization      81.0000000

 Free energy of the ion-electron system (eV)
  ---------------------------------------------------
  alpha Z        PSCENC =      1573.28966429
  Ewald energy   TEWEN  =    228214.05841055
  -Hartree energ DENC   =   -292231.09763681
  -exchange      EXHF   =         0.00000000
  -V(xc)+E(xc)   XCENC  =      1116.37298906
  PAW double counting   =     57276.07814875   -60216.95427584
  entropy T*S    EENTRO =         0.00000000
  eigenvalues    EBANDS =       705.22513057
  atomic energy  EATOM  =     63733.65965817
  Solvation  Ediel_sol  =         0.00000000
  ---------------------------------------------------
  free energy    TOTEN  =       170.63208875 eV

  energy without entropy =      170.63208875  energy(sigma->0) =      170.63208875


--------------------------------------------------------------------------------------------------------




--------------------------------------- Iteration      1(   3)  ---------------------------------------


     EDDAV:  cpu time   49.7919: real time   49.9344
 BZINTS: Fermi energy:  2.836285;737.000000 electrons
         Band energy:  -9.808619;  BLOECHL correction: -0.132553
       DOS:  cpu time    0.0167: real time    0.0167
    --------------------------------------------
      LOOP:  cpu time   49.8086: real time   49.9512

 eigenvalue-minimisations  :  9280
 total energy-change (2. order) :-0.7150337E+03  (-0.5826759E+03)
 number of electron     737.0000000 magnetization      81.0000000
 augmentation part      737.0000000 magnetization      81.0000000

 Free energy of the ion-electron system (eV)
  ---------------------------------------------------
  alpha Z        PSCENC =      1573.28966429
  Ewald energy   TEWEN  =    228214.05841055
  -Hartree energ DENC   =   -292231.09763681
  -exchange      EXHF   =         0.00000000
  -V(xc)+E(xc)   XCENC  =      1116.37298906
  PAW double counting   =     57276.07814875   -60216.95427584
  entropy T*S    EENTRO =         0.00000000
  eigenvalues    EBANDS =        -9.80861880
  atomic energy  EATOM  =     63733.65965817
  Solvation  Ediel_sol  =         0.00000000
  ---------------------------------------------------
  free energy    TOTEN  =      -544.40166063 eV

  energy without entropy =     -544.40166063  energy(sigma->0) =     -544.40166063


--------------------------------------------------------------------------------------------------------




--------------------------------------- Iteration      1(   4)  ---------------------------------------


     EDDAV:  cpu time   51.1298: real time   51.2513
 BZINTS: Fermi energy:  2.755295;737.000000 electrons
         Band energy: -57.071485;  BLOECHL correction: -0.146794
       DOS:  cpu time    0.0160: real time    0.0161
    --------------------------------------------
      LOOP:  cpu time   51.1458: real time   51.2674

 eigenvalue-minimisations  :  9720
 total energy-change (2. order) :-0.4726287E+02  (-0.4487308E+02)
 number of electron     737.0000000 magnetization      81.0000000
 augmentation part      737.0000000 magnetization      81.0000000

 Free energy of the ion-electron system (eV)
  ---------------------------------------------------
  alpha Z        PSCENC =      1573.28966429
  Ewald energy   TEWEN  =    228214.05841055
  -Hartree energ DENC   =   -292231.09763681
  -exchange      EXHF   =         0.00000000
  -V(xc)+E(xc)   XCENC  =      1116.37298906
  PAW double counting   =     57276.07814875   -60216.95427584
  entropy T*S    EENTRO =         0.00000000
  eigenvalues    EBANDS =       -57.07148451
  atomic energy  EATOM  =     63733.65965817
  Solvation  Ediel_sol  =         0.00000000
  ---------------------------------------------------
  free energy    TOTEN  =      -591.66452633 eV

  energy without entropy =     -591.66452633  energy(sigma->0) =     -591.66452633


--------------------------------------------------------------------------------------------------------




--------------------------------------- Iteration      1(   5)  ---------------------------------------


     EDDAV:  cpu time   53.2084: real time   53.3348
 BZINTS: Fermi energy:  2.753837;737.000000 electrons
         Band energy: -57.957128;  BLOECHL correction: -0.145686
       DOS:  cpu time    0.0168: real time    0.0168
    CHARGE:  cpu time    2.6860: real time    2.6926
    MIXING:  cpu time    0.0095: real time    0.0102
    --------------------------------------------
      LOOP:  cpu time   55.9206: real time   56.0545

 eigenvalue-minimisations  : 10080
 total energy-change (2. order) :-0.8856434E+00  (-0.8857675E+00)
 number of electron     737.0000206 magnetization      80.6682112
 augmentation part      341.1387433 magnetization      60.6997324

 Broyden mixing:
  rms(total) = 0.89091E+01    rms(broyden)= 0.89091E+01
  rms(prec ) = 0.93757E+01
  weight for this iteration     100.00

 Free energy of the ion-electron system (eV)
  ---------------------------------------------------
  alpha Z        PSCENC =      1573.28966429
  Ewald energy   TEWEN  =    228214.05841055
  -Hartree energ DENC   =   -292231.09763681
  -exchange      EXHF   =         0.00000000
  -V(xc)+E(xc)   XCENC  =      1116.37298906
  PAW double counting   =     57276.07814875   -60216.95427584
  entropy T*S    EENTRO =         0.00000000
  eigenvalues    EBANDS =       -57.95712789
  atomic energy  EATOM  =     63733.65965817
  Solvation  Ediel_sol  =         0.00000000
  ---------------------------------------------------
  free energy    TOTEN  =      -592.55016971 eV

  energy without entropy =     -592.55016971  energy(sigma->0) =     -592.55016971


--------------------------------------------------------------------------------------------------------




--------------------------------------- Iteration      1(   6)  ---------------------------------------


    POTLOK:  cpu time    0.4120: real time    0.4130
    SETDIJ:  cpu time    0.0333: real time    0.0333
    EDDIAG:  cpu time    8.0301: real time    8.0496
  RMM-DIIS:  cpu time   31.6373: real time   31.7122
    ORTHCH:  cpu time    0.9839: real time    0.9863
 BZINTS: Fermi energy:  1.905006;737.000000 electrons
         Band energy:***********;  BLOECHL correction: -0.077327
       DOS:  cpu time    0.0177: real time    0.0177
    CHARGE:  cpu time    2.6321: real time    2.6383
    MIXING:  cpu time    0.0102: real time    0.0104
    --------------------------------------------
      LOOP:  cpu time   43.7565: real time   43.8608

 eigenvalue-minimisations  :  8344
 total energy-change (2. order) :-0.1236344E+03  (-0.8019710E+02)
 number of electron     737.0000228 magnetization      79.9860183
 augmentation part      386.6392669 magnetization      70.3649325

 Broyden mixing:
  rms(total) = 0.17251E+02    rms(broyden)= 0.17251E+02
  rms(prec ) = 0.20140E+02
  weight for this iteration     100.00

 eigenvalues of (default mixing * dielectric matrix)
  average eigenvalue GAMMA=   0.2370
  0.2370

 Free energy of the ion-electron system (eV)
  ---------------------------------------------------
  alpha Z        PSCENC =      1573.28966429
  Ewald energy   TEWEN  =    228214.05841055
  -Hartree energ DENC   =   -291480.30815434
  -exchange      EXHF   =         0.00000000
  -V(xc)+E(xc)   XCENC  =      1065.24584213
  PAW double counting   =     61941.45110248   -64586.41369267
  entropy T*S    EENTRO =         0.00000000
  eigenvalues    EBANDS =     -1177.16737483
  atomic energy  EATOM  =     63733.65965817
  Solvation  Ediel_sol  =         0.00000000
  ---------------------------------------------------
  free energy    TOTEN  =      -716.18454423 eV

  energy without entropy =     -716.18454423  energy(sigma->0) =     -716.18454423


--------------------------------------------------------------------------------------------------------




--------------------------------------- Iteration      1(   7)  ---------------------------------------


    POTLOK:  cpu time    0.4112: real time    0.4123
    SETDIJ:  cpu time    0.0333: real time    0.0333
    EDDIAG:  cpu time    7.8201: real time    7.8388
  RMM-DIIS:  cpu time   31.6540: real time   31.7392
    ORTHCH:  cpu time    0.9871: real time    0.9899
 BZINTS: Fermi energy:  0.931197;737.000000 electrons
         Band energy:***********;  BLOECHL correction: -0.078563
       DOS:  cpu time    0.0173: real time    0.0173
    CHARGE:  cpu time    2.6269: real time    2.6346
    MIXING:  cpu time    0.0097: real time    0.0097
    --------------------------------------------
      LOOP:  cpu time   43.5596: real time   43.6753

 eigenvalue-minimisations  :  8367
 total energy-change (2. order) : 0.6165528E+02  (-0.2703824E+02)
 number of electron     737.0000250 magnetization      78.3877877
 augmentation part      395.4757713 magnetization      69.4783377

 Broyden mixing:
  rms(total) = 0.14096E+02    rms(broyden)= 0.14096E+02
  rms(prec ) = 0.17753E+02
  weight for this iteration     100.00

 eigenvalues of (default mixing * dielectric matrix)
  average eigenvalue GAMMA=   0.3499
  0.5800  0.1197

 Free energy of the ion-electron system (eV)
  ---------------------------------------------------
  alpha Z        PSCENC =      1573.28966429
  Ewald energy   TEWEN  =    228214.05841055
  -Hartree energ DENC   =   -291094.51689651
  -exchange      EXHF   =         0.00000000
  -V(xc)+E(xc)   XCENC  =      1065.55989654
  PAW double counting   =     62867.58930413   -65553.95829378
  entropy T*S    EENTRO =         0.00000000
  eigenvalues    EBANDS =     -1460.21100658
  atomic energy  EATOM  =     63733.65965817
  Solvation  Ediel_sol  =         0.00000000
  ---------------------------------------------------
  free energy    TOTEN  =      -654.52926320 eV

  energy without entropy =     -654.52926320  energy(sigma->0) =     -654.52926320


--------------------------------------------------------------------------------------------------------




--------------------------------------- Iteration      1(   8)  ---------------------------------------


    POTLOK:  cpu time    0.4098: real time    0.4113
    SETDIJ:  cpu time    0.0333: real time    0.0334
    EDDIAG:  cpu time    7.8223: real time    7.8449
  RMM-DIIS:  cpu time   31.4235: real time   31.5161
    ORTHCH:  cpu time    1.1497: real time    1.1530
 BZINTS: Fermi energy:  2.786332;737.000000 electrons
         Band energy:***********;  BLOECHL correction:  0.000000
       DOS:  cpu time    0.0046: real time    0.0046
    CHARGE:  cpu time    2.6285: real time    2.6364
    MIXING:  cpu time    0.0103: real time    0.0103
    --------------------------------------------
      LOOP:  cpu time   43.4819: real time   43.6099

 eigenvalue-minimisations  :  8331
 total energy-change (2. order) :-0.2925005E+03  (-0.1416201E+02)
 number of electron     737.0000230 magnetization      77.4346650
 augmentation part      378.3926435 magnetization      71.8360781

 Broyden mixing:
  rms(total) = 0.23211E+02    rms(broyden)= 0.23211E+02
  rms(prec ) = 0.33705E+02
  weight for this iteration     100.00

 eigenvalues of (default mixing * dielectric matrix)
  average eigenvalue GAMMA=   0.2556
  0.5935  0.1220  0.0514

 Free energy of the ion-electron system (eV)
  ---------------------------------------------------
  alpha Z        PSCENC =      1573.28966429
  Ewald energy   TEWEN  =    228214.05841055
  -Hartree energ DENC   =   -291337.17597744
  -exchange      EXHF   =         0.00000000
  -V(xc)+E(xc)   XCENC  =      1075.13791493
  PAW double counting   =     64862.74899310   -67708.77399748
  entropy T*S    EENTRO =         0.00000000
  eigenvalues    EBANDS =     -1359.97446408
  atomic energy  EATOM  =     63733.65965817
  Solvation  Ediel_sol  =         0.00000000
  ---------------------------------------------------
  free energy    TOTEN  =      -947.02979798 eV

  energy without entropy =     -947.02979798  energy(sigma->0) =     -947.02979798


--------------------------------------------------------------------------------------------------------




--------------------------------------- Iteration      1(   9)  ---------------------------------------


    POTLOK:  cpu time    0.4101: real time    0.4112
    SETDIJ:  cpu time    0.0336: real time    0.0336
    EDDIAG:  cpu time    7.8288: real time    7.8519
  RMM-DIIS:  cpu time   31.5516: real time   31.6445
    ORTHCH:  cpu time    0.9873: real time    0.9901
 BZINTS: Fermi energy:  1.849865;737.000000 electrons
         Band energy:-591.836022;  BLOECHL correction: -0.154141
       DOS:  cpu time    0.0162: real time    0.0162
    CHARGE:  cpu time    2.6607: real time    2.6681
    MIXING:  cpu time    0.0104: real time    0.0104
    --------------------------------------------
      LOOP:  cpu time   43.4985: real time   43.6261

 eigenvalue-minimisations  :  8340
 total energy-change (2. order) : 0.4111240E+03  (-0.4597784E+01)
 number of electron     737.0000225 magnetization      76.9508579
 augmentation part      375.1700566 magnetization      59.9143290

 Broyden mixing:
  rms(total) = 0.86022E+01    rms(broyden)= 0.86022E+01
  rms(prec ) = 0.10581E+02
  weight for this iteration     100.00

 eigenvalues of (default mixing * dielectric matrix)
  average eigenvalue GAMMA=   0.3485
  0.8702  0.3545  0.0846  0.0846

 Free energy of the ion-electron system (eV)
  ---------------------------------------------------
  alpha Z        PSCENC =      1573.28966429
  Ewald energy   TEWEN  =    228214.05841055
  -Hartree energ DENC   =   -291659.07958582
  -exchange      EXHF   =         0.00000000
  -V(xc)+E(xc)   XCENC  =      1075.08572480
  PAW double counting   =     65611.09862962   -68492.18225423
  entropy T*S    EENTRO =         0.00000000
  eigenvalues    EBANDS =      -591.83602213
  atomic energy  EATOM  =     63733.65965817
  Solvation  Ediel_sol  =         0.00000000
  ---------------------------------------------------
  free energy    TOTEN  =      -535.90577476 eV

  energy without entropy =     -535.90577476  energy(sigma->0) =     -535.90577476


--------------------------------------------------------------------------------------------------------




--------------------------------------- Iteration      1(  10)  ---------------------------------------


    POTLOK:  cpu time    0.4097: real time    0.4111
    SETDIJ:  cpu time    0.0335: real time    0.0336
    EDDIAG:  cpu time    7.8239: real time    7.8468
  RMM-DIIS:  cpu time   31.6291: real time   31.7222
    ORTHCH:  cpu time    0.9843: real time    0.9871
 BZINTS: Fermi energy:  1.956252;737.000000 electrons
         Band energy:-660.812644;  BLOECHL correction: -0.060087
       DOS:  cpu time    0.0171: real time    0.0171
    CHARGE:  cpu time    2.6399: real time    2.6476
    MIXING:  cpu time    0.0121: real time    0.0121
    --------------------------------------------
      LOOP:  cpu time   43.5494: real time   43.6775

 eigenvalue-minimisations  :  8343
 total energy-change (2. order) :-0.6937749E+02  (-0.1041225E+02)
 number of electron     737.0000212 magnetization      76.5588646
 augmentation part      376.3253507 magnetization      65.8594312

 Broyden mixing:
  rms(total) = 0.13046E+02    rms(broyden)= 0.13046E+02
  rms(prec ) = 0.16184E+02
  weight for this iteration     100.00

 eigenvalues of (default mixing * dielectric matrix)
  average eigenvalue GAMMA=   0.3309
  0.9691  0.3627  0.1543  0.0841  0.0841

 Free energy of the ion-electron system (eV)
  ---------------------------------------------------
  alpha Z        PSCENC =      1573.28966429
  Ewald energy   TEWEN  =    228214.05841055
  -Hartree energ DENC   =   -291625.40833075
  -exchange      EXHF   =         0.00000000
  -V(xc)+E(xc)   XCENC  =      1084.44763879
  PAW double counting   =     66921.21161053   -69845.72927211
  entropy T*S    EENTRO =         0.00000000
  eigenvalues    EBANDS =      -660.81264378
  atomic energy  EATOM  =     63733.65965817
  Solvation  Ediel_sol  =         0.00000000
  ---------------------------------------------------
  free energy    TOTEN  =      -605.28326432 eV

  energy without entropy =     -605.28326432  energy(sigma->0) =     -605.28326432


--------------------------------------------------------------------------------------------------------




--------------------------------------- Iteration      1(  11)  ---------------------------------------


    POTLOK:  cpu time    0.4576: real time    0.4589
    SETDIJ:  cpu time    0.0380: real time    0.0384
    EDDIAG:  cpu time    7.8805: real time    7.9031
  RMM-DIIS:  cpu time   31.6659: real time   31.7587
    ORTHCH:  cpu time    0.9819: real time    0.9848
 BZINTS: Fermi energy:  1.790862;737.000000 electrons
         Band energy:-574.678878;  BLOECHL correction: -0.049919
       DOS:  cpu time    0.0171: real time    0.0171
    CHARGE:  cpu time    2.6509: real time    2.6588
    MIXING:  cpu time    0.0113: real time    0.0113
    --------------------------------------------
      LOOP:  cpu time   43.7031: real time   43.8310

 eigenvalue-minimisations  :  8355
 total energy-change (2. order) : 0.7860898E+02  (-0.7554287E+01)
 number of electron     737.0000228 magnetization      76.8080430
 augmentation part      378.1780024 magnetization      59.4828992

 Broyden mixing:
  rms(total) = 0.76048E+01    rms(broyden)= 0.76047E+01
  rms(prec ) = 0.86846E+01
  weight for this iteration     100.00

 eigenvalues of (default mixing * dielectric matrix)
  average eigenvalue GAMMA=   0.3675
  1.1787  0.3770  0.3770  0.0985  0.0985  0.0757

 Free energy of the ion-electron system (eV)
  ---------------------------------------------------
  alpha Z        PSCENC =      1573.28966429
  Ewald energy   TEWEN  =    228214.05841055
  -Hartree energ DENC   =   -291624.41300189
  -exchange      EXHF   =         0.00000000
  -V(xc)+E(xc)   XCENC  =      1090.37312211
  PAW double counting   =     67485.83316315   -70424.79642358
  entropy T*S    EENTRO =         0.00000000
  eigenvalues    EBANDS =      -574.67887758
  atomic energy  EATOM  =     63733.65965817
  Solvation  Ediel_sol  =         0.00000000
  ---------------------------------------------------
  free energy    TOTEN  =      -526.67428478 eV

  energy without entropy =     -526.67428478  energy(sigma->0) =     -526.67428478


--------------------------------------------------------------------------------------------------------




--------------------------------------- Iteration      1(  12)  ---------------------------------------


    POTLOK:  cpu time    0.4087: real time    0.4098
    SETDIJ:  cpu time    0.0334: real time    0.0335
    EDDIAG:  cpu time    7.8242: real time    7.8427
  RMM-DIIS:  cpu time   31.6078: real time   31.6826
    ORTHCH:  cpu time    0.9891: real time    0.9914
 BZINTS: Fermi energy:  1.781844;737.000000 electrons
         Band energy:-552.166304;  BLOECHL correction: -0.007269
       DOS:  cpu time    0.0162: real time    0.0162
    CHARGE:  cpu time    2.6616: real time    2.6679
    MIXING:  cpu time    0.0135: real time    0.0135
    --------------------------------------------
      LOOP:  cpu time   43.5545: real time   43.6577

 eigenvalue-minimisations  :  8359
 total energy-change (2. order) : 0.6335682E+01  (-0.3803186E+01)
 number of electron     737.0000236 magnetization      77.1356730
 augmentation part      380.0465359 magnetization      63.5103484

 Broyden mixing:
  rms(total) = 0.74193E+01    rms(broyden)= 0.74193E+01
  rms(prec ) = 0.87443E+01
  weight for this iteration     100.00

 eigenvalues of (default mixing * dielectric matrix)
  average eigenvalue GAMMA=   0.4037
  1.4466  0.4941  0.4941  0.1092  0.1092  0.0862  0.0862

 Free energy of the ion-electron system (eV)
  ---------------------------------------------------
  alpha Z        PSCENC =      1573.28966429
  Ewald energy   TEWEN  =    228214.05841055
  -Hartree energ DENC   =   -291635.80126801
  -exchange      EXHF   =         0.00000000
  -V(xc)+E(xc)   XCENC  =      1093.61486443
  PAW double counting   =     67999.78978503   -70946.78341311
  entropy T*S    EENTRO =         0.00000000
  eigenvalues    EBANDS =      -552.16630405
  atomic energy  EATOM  =     63733.65965817
  Solvation  Ediel_sol  =         0.00000000
  ---------------------------------------------------
  free energy    TOTEN  =      -520.33860270 eV

  energy without entropy =     -520.33860270  energy(sigma->0) =     -520.33860270


--------------------------------------------------------------------------------------------------------




--------------------------------------- Iteration      1(  13)  ---------------------------------------


    POTLOK:  cpu time    0.4212: real time    0.4224
    SETDIJ:  cpu time    0.0394: real time    0.0395
    EDDIAG:  cpu time    8.0530: real time    8.0769
  RMM-DIIS:  cpu time   31.6646: real time   31.7542
    ORTHCH:  cpu time    0.9862: real time    0.9885
 BZINTS: Fermi energy:  2.026085;737.000000 electrons
         Band energy:-460.098444;  BLOECHL correction: -0.033662
       DOS:  cpu time    0.0164: real time    0.0164
    CHARGE:  cpu time    2.6443: real time    2.6506
    MIXING:  cpu time    0.0130: real time    0.0130
    --------------------------------------------
      LOOP:  cpu time   43.8381: real time   43.9616

 eigenvalue-minimisations  :  8349
 total energy-change (2. order) :-0.7389131E+01  (-0.3242049E+01)
 number of electron     737.0000226 magnetization      77.1855103
 augmentation part      378.0181648 magnetization      67.5737499

 Broyden mixing:
  rms(total) = 0.86160E+01    rms(broyden)= 0.86160E+01
  rms(prec ) = 0.10158E+02
  weight for this iteration     100.00

 eigenvalues of (default mixing * dielectric matrix)
  average eigenvalue GAMMA=   0.3877
  1.5674  0.5127  0.5127  0.1265  0.1265  0.0908  0.0908  0.0744

 Free energy of the ion-electron system (eV)
  ---------------------------------------------------
  alpha Z        PSCENC =      1573.28966429
  Ewald energy   TEWEN  =    228214.05841055
  -Hartree energ DENC   =   -291721.98301870
  -exchange      EXHF   =         0.00000000
  -V(xc)+E(xc)   XCENC  =      1098.01645493
  PAW double counting   =     68658.90519473   -71623.57565362
  entropy T*S    EENTRO =         0.00000000
  eigenvalues    EBANDS =      -460.09844407
  atomic energy  EATOM  =     63733.65965817
  Solvation  Ediel_sol  =         0.00000000
  ---------------------------------------------------
  free energy    TOTEN  =      -527.72773372 eV

  energy without entropy =     -527.72773372  energy(sigma->0) =     -527.72773372


--------------------------------------------------------------------------------------------------------




--------------------------------------- Iteration      1(  14)  ---------------------------------------


    POTLOK:  cpu time    0.4093: real time    0.4104
    SETDIJ:  cpu time    0.0334: real time    0.0335
    EDDIAG:  cpu time    7.8265: real time    7.8454
  RMM-DIIS:  cpu time   31.5684: real time   31.6433
    ORTHCH:  cpu time    0.9839: real time    0.9862
 BZINTS: Fermi energy:  1.973279;737.000000 electrons
         Band energy:-390.156728;  BLOECHL correction: -0.008177
       DOS:  cpu time    0.0166: real time    0.0166
    CHARGE:  cpu time    2.6443: real time    2.6506
    MIXING:  cpu time    0.0125: real time    0.0125
    --------------------------------------------
      LOOP:  cpu time   43.4949: real time   43.5986

 eigenvalue-minimisations  :  8355
 total energy-change (2. order) : 0.2565865E+02  (-0.2206507E+01)
 number of electron     737.0000228 magnetization      77.3565380
 augmentation part      378.6643789 magnetization      64.8165879

 Broyden mixing:
  rms(total) = 0.50179E+01    rms(broyden)= 0.50178E+01
  rms(prec ) = 0.55952E+01
  weight for this iteration     100.00

 eigenvalues of (default mixing * dielectric matrix)
  average eigenvalue GAMMA=   0.3562
  1.5575  0.5098  0.5098  0.1482  0.1482  0.0934  0.0934  0.0726  0.0726

 Free energy of the ion-electron system (eV)
  ---------------------------------------------------
  alpha Z        PSCENC =      1573.28966429
  Ewald energy   TEWEN  =    228214.05841055
  -Hartree energ DENC   =   -291759.15066096
  -exchange      EXHF   =         0.00000000
  -V(xc)+E(xc)   XCENC  =      1100.37028714
  PAW double counting   =     69111.50461046   -72085.64432240
  entropy T*S    EENTRO =         0.00000000
  eigenvalues    EBANDS =      -390.15672785
  atomic energy  EATOM  =     63733.65965817
  Solvation  Ediel_sol  =         0.00000000
  ---------------------------------------------------
  free energy    TOTEN  =      -502.06908061 eV

  energy without entropy =     -502.06908061  energy(sigma->0) =     -502.06908061


--------------------------------------------------------------------------------------------------------




--------------------------------------- Iteration      1(  15)  ---------------------------------------


    POTLOK:  cpu time    0.4098: real time    0.4109
    SETDIJ:  cpu time    0.0335: real time    0.0336
    EDDIAG:  cpu time    8.1024: real time    8.1216
  RMM-DIIS:  cpu time   31.5655: real time   31.6407
    ORTHCH:  cpu time    0.9855: real time    0.9878
 BZINTS: Fermi energy:  1.992770;737.000000 electrons
         Band energy:-345.384601;  BLOECHL correction: -0.051417
       DOS:  cpu time    0.0162: real time    0.0163
    CHARGE:  cpu time    2.6340: real time    2.6402
    MIXING:  cpu time    0.0119: real time    0.0120
    --------------------------------------------
      LOOP:  cpu time   43.7588: real time   43.8631

 eigenvalue-minimisations  :  8348
 total energy-change (2. order) : 0.6352250E+01  (-0.5408444E+00)
 number of electron     737.0000227 magnetization      77.9946214
 augmentation part      377.4032595 magnetization      64.4291884

 Broyden mixing:
  rms(total) = 0.35273E+01    rms(broyden)= 0.35273E+01
  rms(prec ) = 0.37305E+01
  weight for this iteration     100.00

 eigenvalues of (default mixing * dielectric matrix)
  average eigenvalue GAMMA=   0.3653
  1.6066  0.5718  0.5718  0.3082  0.1303  0.1026  0.1026  0.0753  0.0917  0.0917

 Free energy of the ion-electron system (eV)
  ---------------------------------------------------
  alpha Z        PSCENC =      1573.28966429
  Ewald energy   TEWEN  =    228214.05841055
  -Hartree energ DENC   =   -291791.07993367
  -exchange      EXHF   =         0.00000000
  -V(xc)+E(xc)   XCENC  =      1098.97111432
  PAW double counting   =     69181.31229801   -72160.54344073
  entropy T*S    EENTRO =         0.00000000
  eigenvalues    EBANDS =      -345.38460106
  atomic energy  EATOM  =     63733.65965817
  Solvation  Ediel_sol  =         0.00000000
[...]
      7.607949  6.417220  2.991241            0           0           0  
      6.289230  4.130398  2.992423            0           0           0  
      3.649577  2.618017  4.974639            0           0           0  
     10.234890  3.382640  6.858074            0           0           0  
     10.251112  3.366005  1.127934            0           0           0  
     10.240168  0.325219  4.975142            0           0           0  
      8.919387  7.176657  4.981499            0           0           0  
     10.231744  4.903749  4.980273            0           0           0  
      6.284008  7.178256  4.981548            0           0           0  
      4.962533  0.324770  4.974902            0           0           0  
      4.968348  6.417007  2.992234            0           0           0  
      7.601352  0.324554  4.972706            0           0           0  
      8.912395  1.088373  6.852809            0           0           0  
     10.241612  7.948937  6.852322            0           0           0  
      8.931018  1.079620  1.127737            0           0           0  
     10.250101  7.939278  1.127458            0           0           0  
      4.970655  4.903789  4.980768            0           0           0  
     11.554689  2.618210  4.972900            0           0           0  
     14.207249  8.703033  2.991217            0           0           0  
      8.915937  2.617985  4.981339            0           0           0  
      6.289246  2.618275  4.981756            0           0           0  
     14.197285  8.720740  8.999878            0           0           0  
      3.630692  4.147398  8.995828            0           0           0  
      6.274472  8.724913  8.992471            0           0           0  
     11.565576  4.146871  8.996256            0           0           0  
      8.919530  8.725694  8.993841            0           0           0  
     10.241509  1.855081  8.991807            0           0           0  
      2.317093  1.861661  8.995962            0           0           0  
     11.554400  8.721738  8.999825            0           0           0  
     12.876508  6.433067  9.002588            0           0           0  
      4.953082  1.856988  8.992754            0           0           0  
      7.596748  6.467929  9.051458            0           0           0  
      8.948268  4.127162  9.058306            0           0           0  
      4.940282  6.441609  8.994337            0           0           0  
      7.596652  1.842133  8.995225            0           0           0  
      6.249454  4.129972  9.054872            0           0           0  
     10.253815  6.441589  8.993907            0           0           0  
      7.618515  4.921101 10.057483    -0.056509   -0.021057    0.998180  
 
   2 f  =   20.013443 THz   125.748174 2PiTHz  667.576597 cm-1    82.768979 meV
             X         Y         Z           dx          dy          dz
     12.879117  7.946377  6.850150            0           0           0  
      4.954358  7.948459  6.852629            0           0           0  
      3.637078  5.665476  6.855451            0           0           0  
     12.890693  7.937732  1.127411            0           0           0  
      4.969706  7.939116  1.128531            0           0           0  
      3.649957  5.651776  1.129190            0           0           0  
      7.608781  1.843362  2.991653            0           0           0  
      8.928348  8.703137  2.991182            0           0           0  
      2.318576  3.374672  6.851951            0           0           0  
      2.330136  3.366551  1.129481            0           0           0  
     10.248209  1.844221  2.991308            0           0           0  
     12.881884  4.899574  4.975171            0           0           0  
      3.635554  1.096818  6.850789            0           0           0  
      8.910877  5.658842  6.875349            0           0           0  
      4.966987  3.384309  6.859795            0           0           0  
      3.651346  1.080639  1.128571            0           0           0  
      8.928223  5.652563  1.127107            0           0           0  
      4.969471  3.366256  1.129791            0           0           0  
     11.568373  8.702678  2.990806            0           0           0  
     11.559262  7.181990  4.973355            0           0           0  
     12.887726  6.416690  2.991438            0           0           0  
      8.928769  4.130875  2.990941            0           0           0  
      7.598857  7.958522  6.855197            0           0           0  
      7.608717  7.939412  1.128257            0           0           0  
     10.247638  6.416886  2.990068            0           0           0  
      2.321993  0.322788  4.971779            0           0           0  
      7.600521  3.389656  6.877582            0           0           0  
      7.610141  3.365160  1.128439            0           0           0  
      6.284377  1.088202  6.851902            0           0           0  
      6.290737  1.079887  1.128229            0           0           0  
     11.567580  4.131448  2.992071            0           0           0  
      3.648521  4.130274  2.993297            0           0           0  
      1.002013  1.096328  6.849512            0           0           0  
      1.011385  1.080376  1.128547            0           0           0  
      6.287836  8.703604  2.991992            0           0           0  
      7.602772  4.897953  4.982252            0           0           0  
      4.969213  1.843763  2.992524            0           0           0  
      2.328654  1.843751  2.992483            0           0           0  
     14.203489  7.182042  4.973737            0           0           0  
     11.558823  5.664501  6.854919            0           0           0  
      6.287953  5.659677  6.874396            0           0           0  
     11.569967  5.652273  1.127480            0           0           0  
      6.288786  5.652014  1.128720            0           0           0  
      7.607949  6.417220  2.991241            0           0           0  
      6.289230  4.130398  2.992423            0           0           0  
      3.649577  2.618017  4.974639            0           0           0  
     10.234890  3.382640  6.858074            0           0           0  
     10.251112  3.366005  1.127934            0           0           0  
     10.240168  0.325219  4.975142            0           0           0  
      8.919387  7.176657  4.981499            0           0           0  
     10.231744  4.903749  4.980273            0           0           0  
      6.284008  7.178256  4.981548            0           0           0  
      4.962533  0.324770  4.974902            0           0           0  
      4.968348  6.417007  2.992234            0           0           0  
      7.601352  0.324554  4.972706            0           0           0  
      8.912395  1.088373  6.852809            0           0           0  
     10.241612  7.948937  6.852322            0           0           0  
      8.931018  1.079620  1.127737            0           0           0  
     10.250101  7.939278  1.127458            0           0           0  
      4.970655  4.903789  4.980768            0           0           0  
     11.554689  2.618210  4.972900            0           0           0  
     14.207249  8.703033  2.991217            0           0           0  
      8.915937  2.617985  4.981339            0           0           0  
      6.289246  2.618275  4.981756            0           0           0  
     14.197285  8.720740  8.999878            0           0           0  
      3.630692  4.147398  8.995828            0           0           0  
      6.274472  8.724913  8.992471            0           0           0  
     11.565576  4.146871  8.996256            0           0           0  
      8.919530  8.725694  8.993841            0           0           0  
     10.241509  1.855081  8.991807            0           0           0  
      2.317093  1.861661  8.995962            0           0           0  
     11.554400  8.721738  8.999825            0           0           0  
     12.876508  6.433067  9.002588            0           0           0  
      4.953082  1.856988  8.992754            0           0           0  
      7.596748  6.467929  9.051458            0           0           0  
      8.948268  4.127162  9.058306            0           0           0  
      4.940282  6.441609  8.994337            0           0           0  
      7.596652  1.842133  8.995225            0           0           0  
      6.249454  4.129972  9.054872            0           0           0  
     10.253815  6.441589  8.993907            0           0           0  
      7.618515  4.921101 10.057483     0.494078   -0.869364    0.009632  
 
   3 f  =   17.971444 THz   112.917914 2PiTHz  599.462833 cm-1    74.323945 meV
             X         Y         Z           dx          dy          dz
     12.879117  7.946377  6.850150            0           0           0  
      4.954358  7.948459  6.852629            0           0           0  
      3.637078  5.665476  6.855451            0           0           0  
     12.890693  7.937732  1.127411            0           0           0  
      4.969706  7.939116  1.128531            0           0           0  
      3.649957  5.651776  1.129190            0           0           0  
      7.608781  1.843362  2.991653            0           0           0  
      8.928348  8.703137  2.991182            0           0           0  
      2.318576  3.374672  6.851951            0           0           0  
      2.330136  3.366551  1.129481            0           0           0  
     10.248209  1.844221  2.991308            0           0           0  
     12.881884  4.899574  4.975171            0           0           0  
      3.635554  1.096818  6.850789            0           0           0  
      8.910877  5.658842  6.875349            0           0           0  
      4.966987  3.384309  6.859795            0           0           0  
      3.651346  1.080639  1.128571            0           0           0  
      8.928223  5.652563  1.127107            0           0           0  
      4.969471  3.366256  1.129791            0           0           0  
     11.568373  8.702678  2.990806            0           0           0  
     11.559262  7.181990  4.973355            0           0           0  
     12.887726  6.416690  2.991438            0           0           0  
      8.928769  4.130875  2.990941            0           0           0  
      7.598857  7.958522  6.855197            0           0           0  
      7.608717  7.939412  1.128257            0           0           0  
     10.247638  6.416886  2.990068            0           0           0  
      2.321993  0.322788  4.971779            0           0           0  
      7.600521  3.389656  6.877582            0           0           0  
      7.610141  3.365160  1.128439            0           0           0  
      6.284377  1.088202  6.851902            0           0           0  
      6.290737  1.079887  1.128229            0           0           0  
     11.567580  4.131448  2.992071            0           0           0  
      3.648521  4.130274  2.993297            0           0           0  
      1.002013  1.096328  6.849512            0           0           0  
      1.011385  1.080376  1.128547            0           0           0  
      6.287836  8.703604  2.991992            0           0           0  
      7.602772  4.897953  4.982252            0           0           0  
      4.969213  1.843763  2.992524            0           0           0  
      2.328654  1.843751  2.992483            0           0           0  
     14.203489  7.182042  4.973737            0           0           0  
     11.558823  5.664501  6.854919            0           0           0  
      6.287953  5.659677  6.874396            0           0           0  
     11.569967  5.652273  1.127480            0           0           0  
      6.288786  5.652014  1.128720            0           0           0  
      7.607949  6.417220  2.991241            0           0           0  
      6.289230  4.130398  2.992423            0           0           0  
      3.649577  2.618017  4.974639            0           0           0  
     10.234890  3.382640  6.858074            0           0           0  
     10.251112  3.366005  1.127934            0           0           0  
     10.240168  0.325219  4.975142            0           0           0  
      8.919387  7.176657  4.981499            0           0           0  
     10.231744  4.903749  4.980273            0           0           0  
      6.284008  7.178256  4.981548            0           0           0  
      4.962533  0.324770  4.974902            0           0           0  
      4.968348  6.417007  2.992234            0           0           0  
      7.601352  0.324554  4.972706            0           0           0  
      8.912395  1.088373  6.852809            0           0           0  
     10.241612  7.948937  6.852322            0           0           0  
      8.931018  1.079620  1.127737            0           0           0  
     10.250101  7.939278  1.127458            0           0           0  
      4.970655  4.903789  4.980768            0           0           0  
     11.554689  2.618210  4.972900            0           0           0  
     14.207249  8.703033  2.991217            0           0           0  
      8.915937  2.617985  4.981339            0           0           0  
      6.289246  2.618275  4.981756            0           0           0  
     14.197285  8.720740  8.999878            0           0           0  
      3.630692  4.147398  8.995828            0           0           0  
      6.274472  8.724913  8.992471            0           0           0  
     11.565576  4.146871  8.996256            0           0           0  
      8.919530  8.725694  8.993841            0           0           0  
     10.241509  1.855081  8.991807            0           0           0  
      2.317093  1.861661  8.995962            0           0           0  
     11.554400  8.721738  8.999825            0           0           0  
     12.876508  6.433067  9.002588            0           0           0  
      4.953082  1.856988  8.992754            0           0           0  
      7.596748  6.467929  9.051458            0           0           0  
      8.948268  4.127162  9.058306            0           0           0  
      4.940282  6.441609  8.994337            0           0           0  
      7.596652  1.842133  8.995225            0           0           0  
      6.249454  4.129972  9.054872            0           0           0  
     10.253815  6.441589  8.993907            0           0           0  
      7.618515  4.921101 10.057483     0.867579    0.493723    0.059531  
 
 Finite differences POTIM=  1.500000000000000E-002
  LATTYP: Found a hexagonal cell.
 ALAT       =    10.5600004196
 C/A-ratio  =     2.0833332505
  
  Lattice vectors:
  
 A1 = (   5.2800002098,  -9.1452286274,   0.0000000000)
 A2 = ( -10.5600004196,   0.0000000000,   0.0000000000)
 A3 = (   0.0000000000,   0.0000000000, -22.0000000000)


Analysis of symmetry for initial positions (statically):
=====================================================================
 Subroutine PRICEL returns:
 Original cell was already a primitive cell.
 

 Routine SETGRP: Setting up the symmetry group for a 
 hexagonal supercell.


 Subroutine GETGRP returns: Found  1 space group operations
 (whereof  1 operations were pure point group operations)
 out of a pool of 24 trial point group operations.


The static configuration has the point symmetry C_1 .


Analysis of symmetry for dynamics (positions and initial velocities):
=====================================================================
 Subroutine PRICEL returns:
 Original cell was already a primitive cell.
 

 Routine SETGRP: Setting up the symmetry group for a 
 hexagonal supercell.


 Subroutine GETGRP returns: Found  1 space group operations
 (whereof  1 operations were pure point group operations)
 out of a pool of 24 trial point group operations.


The dynamic configuration has the point symmetry C_1 .


Analysis of constrained symmetry for selective dynamics:
=====================================================================
 Subroutine PRICEL returns:
 Original cell was already a primitive cell.
 

 Routine SETGRP: Setting up the symmetry group for a 
 hexagonal supercell.


 Subroutine GETGRP returns: Found  1 space group operations
 (whereof  1 operations were pure point group operations)
 out of a pool of 24 trial point group operations.


The constrained configuration has the point symmetry C_1 .


Analysis of structural, dynamic, and magnetic symmetry:
=====================================================================
 Subroutine PRICEL returns:
 Original cell was already a primitive cell.
 

 Routine SETGRP: Setting up the symmetry group for a 
 hexagonal supercell.


 Subroutine GETGRP returns: Found  1 space group operations
 (whereof  1 operations were pure point group operations)
 out of a pool of 24 trial point group operations.


The magnetic configuration has the point symmetry C_1 .


 Subroutine INISYM returns: Found  1 space group operations
 (whereof  1 operations are pure point group operations),
 and found     1 'primitive' translations

 
 KPOINTS: mesh auto                               

Automatic generation of k-mesh.
Space group operators:
 irot       det(A)        alpha          n_x          n_y          n_z        tau_x        tau_y        tau_z
    1     1.000000     0.000001     1.000000     0.000000     0.000000     0.000000     0.000000     0.000000
 
 Subroutine IBZKPT returns following result:
 ===========================================
 
 Found      4 irreducible k-points:
 
 Following reciprocal coordinates:
            Coordinates               Weight
  0.000000  0.000000  0.000000      1.000000
  0.500000  0.000000  0.000000      1.000000
  0.000000  0.500000  0.000000      1.000000
  0.500000  0.500000  0.000000      1.000000
 
 Following cartesian coordinates:
            Coordinates               Weight
  0.000000  0.000000  0.000000      1.000000
  0.047348 -0.027337  0.000000      1.000000
  0.000000  0.054673  0.000000      1.000000
  0.047348  0.027337  0.000000      1.000000
 
 TETIRR: Found     12 inequivalent tetrahedra from       24
     LOOP+:  cpu time  540.3536: real time  541.8985
    4ORBIT:  cpu time    0.0000: real time    0.0000
 BZINTS: Fermi energy:  2.010676;737.000000 electrons
         Band energy:-499.734555;  BLOECHL correction: -0.383528

 total amount of memory used by VASP MPI-rank0   355928. kBytes
=======================================================================

   base      :      30000. kBytes
   nonlr-proj:      83302. kBytes
   fftplans  :      13995. kBytes
   grid      :     120016. kBytes
   one-center:       2519. kBytes
   wavefun   :     106096. kBytes
 
  
  
 General timing and accounting informations for this job:
 ========================================================
  
                  Total CPU time used (sec):     6794.540
                            User time (sec):     6777.971
                          System time (sec):       16.569
                         Elapsed time (sec):     6814.586
  
                   Maximum memory used (kb):     1065640.
                   Average memory used (kb):           0.
  
                          Minor page faults:      2783670
                          Major page faults:            0
                 Voluntary context switches:         8125
