 vasp.5.4.4.18Apr17-6-g9f103f2a35 (build Nov 30 2020 22:55:02) complex          
  
 executed on             LinuxIFC date 2023.09.08  21:37:34
 running on   40 total cores
 distrk:  each k-point on   40 cores,    1 groups
 distr:  one band on NCORES_PER_BAND=   4 cores,   10 groups


--------------------------------------------------------------------------------------------------------


 INCAR:
 POTCAR:    PAW_PBE Pt 04Feb2005                  
 POTCAR:    PAW_PBE H 15Jun2001                   
 POTCAR:    PAW_PBE Pt 04Feb2005                  
   VRHFIN =Pt: s1d9                                                             
   LEXCH  = PE                                                                  
   EATOM  =   729.1176 eV,   53.5886 Ry                                         
                                                                                
   TITEL  = PAW_PBE Pt 04Feb2005                                                
   LULTRA =        F    use ultrasoft PP ?                                      
   IUNSCR =        1    unscreen: 0-lin 1-nonlin 2-no                           
   RPACOR =    2.330    partial core radius                                     
   POMASS =  195.080; ZVAL   =   10.000    mass and valenz                      
   RCORE  =    2.600    outmost cutoff radius                                   
   RWIGS  =    2.750; RWIGS  =    1.455    wigner-seitz radius (au A)           
   ENMAX  =  230.283; ENMIN  =  172.712 eV                                      
   ICORE  =        3    local potential                                         
   LCOR   =        T    correct aug charges                                     
   LPAW   =        T    paw PP                                                  
   EAUG   =  358.966                                                            
   DEXC   =    0.000                                                            
   RMAX   =    2.658    core radius for proj-oper                               
   RAUG   =    1.300    factor for augmentation sphere                          
   RDEP   =    2.761    radius for radial grids                                 
   RDEPT  =    2.203    core radius for aug-charge                              
                                                                                
   Atomic configuration                                                         
   16 entries                                                                   
     n  l   j            E        occ.                                          
     1  0  0.50    -78401.1885   2.0000                                         
     2  0  0.50    -13770.7750   2.0000                                         
     2  1  1.50    -11931.0468   6.0000                                         
     3  0  0.50     -3234.7234   2.0000                                         
     3  1  1.50     -2699.2216   6.0000                                         
     3  2  2.50     -2119.5714  10.0000                                         
     4  0  0.50      -695.1528   2.0000                                         
     4  1  1.50      -519.6034   6.0000                                         
     4  2  2.50      -306.6786  10.0000                                         
     4  3  3.50       -70.1041  14.0000                                         
     5  0  0.50      -101.7747   2.0000                                         
     5  1  1.50       -55.9873   6.0000                                         
     5  2  2.50        -6.1423   9.0000                                         
     6  0  0.50        -5.6573   1.0000                                         
     6  1  1.50        -6.8029   0.0000                                         
     5  3  2.50        -1.3606   0.0000                                         
   Description                                                                  
     l       E           TYP  RCUT    TYP  RCUT                                 
     2     -6.1423404     23  2.500                                             
     2     -7.5029230     23  2.500                                             
     0     -5.6573207     23  2.500                                             
     0      0.7416693     23  2.500                                             
     1     -2.7211652     23  2.600                                             
     1     20.4087390     23  2.600                                             
     3     -1.3605826     23  2.500                                             
  local pseudopotential read in
  partial core-charges read in
  partial kinetic energy density read in
  atomic valenz-charges read in
  non local Contribution for L=           2  read in
    real space projection operators read in
  non local Contribution for L=           2  read in
    real space projection operators read in
  non local Contribution for L=           0  read in
    real space projection operators read in
  non local Contribution for L=           0  read in
    real space projection operators read in
  non local Contribution for L=           1  read in
    real space projection operators read in
  non local Contribution for L=           1  read in
    real space projection operators read in
    PAW grid and wavefunctions read in
 
   number of l-projection  operators is LMAX  =           6
   number of lm-projection operators is LMMAX =          18
 
 POTCAR:    PAW_PBE H 15Jun2001                   
   VRHFIN =H: ultrasoft test                                                    
   LEXCH  = PE                                                                  
   EATOM  =    12.4884 eV,    0.9179 Ry                                         
                                                                                
   TITEL  = PAW_PBE H 15Jun2001                                                 
   LULTRA =        F    use ultrasoft PP ?                                      
   IUNSCR =        0    unscreen: 0-lin 1-nonlin 2-no                           
   RPACOR =    0.000    partial core radius                                     
   POMASS =    1.000; ZVAL   =    1.000    mass and valenz                      
   RCORE  =    1.100    outmost cutoff radius                                   
   RWIGS  =    0.700; RWIGS  =    0.370    wigner-seitz radius (au A)           
   ENMAX  =  250.000; ENMIN  =  200.000 eV                                      
   RCLOC  =    0.701    cutoff for local pot                                    
   LCOR   =        T    correct aug charges                                     
   LPAW   =        T    paw PP                                                  
   EAUG   =  400.000                                                            
   RMAX   =    1.123    core radius for proj-oper                               
   RAUG   =    1.200    factor for augmentation sphere                          
   RDEP   =    1.112    radius for radial grids                                 
   RDEPT  =    0.926    core radius for aug-charge                              
                                                                                
   Atomic configuration                                                         
    2 entries                                                                   
     n  l   j            E        occ.                                          
     1  0  0.50        -6.4927   1.0000                                         
     2  1  0.50        -3.4015   0.0000                                         
   Description                                                                  
     l       E           TYP  RCUT    TYP  RCUT                                 
     0     -6.4927494     23  1.100                                             
     0      6.8029130     23  1.100                                             
     1     -4.0817478     23  1.100                                             
  local pseudopotential read in
  atomic valenz-charges read in
  non local Contribution for L=           0  read in
    real space projection operators read in
  non local Contribution for L=           0  read in
    real space projection operators read in
  non local Contribution for L=           1  read in
    real space projection operators read in
    PAW grid and wavefunctions read in
 
   number of l-projection  operators is LMAX  =           3
   number of lm-projection operators is LMMAX =           5
 
 Optimization of the real space projectors (new method)

 maximal supplied QI-value         = 14.36
 optimisation between [QCUT,QGAM] = [ 11.92, 23.98] = [ 39.79,161.09] Ry 
 Optimized for a Real-space Cutoff    1.49 Angstroem

   l    n(q)    QCUT    max X(q) W(low)/X(q) W(high)/X(q)  e(spline) 
   2     10    11.920    66.195    0.79E-04    0.18E-03    0.24E-06
   2     10    11.920    64.643    0.81E-04    0.19E-03    0.24E-06
   0     11    11.920    95.520    0.28E-04    0.54E-04    0.18E-06
   0     11    11.920    63.403    0.27E-04    0.52E-04    0.17E-06
   1     10    11.920    19.961    0.18E-04    0.11E-03    0.23E-06
   1     10    11.920    13.289    0.25E-04    0.87E-04    0.19E-06
 Optimization of the real space projectors (new method)

 maximal supplied QI-value         = 34.20
 optimisation between [QCUT,QGAM] = [ 11.97, 23.94] = [ 40.13,160.53] Ry 
 Optimized for a Real-space Cutoff    1.18 Angstroem

   l    n(q)    QCUT    max X(q) W(low)/X(q) W(high)/X(q)  e(spline) 
   0      8    11.971    19.460    0.15E-03    0.31E-03    0.25E-06
   0      8    11.971    12.209    0.13E-03    0.29E-03    0.25E-06
   1      8    11.971     4.655    0.22E-03    0.24E-03    0.21E-06
  PAW_PBE Pt 04Feb2005                  :
 energy of atom  1       EATOM= -729.1176
 kinetic energy error for atom=    0.0021 (will be added to EATOM!!)
  PAW_PBE H 15Jun2001                   :
 energy of atom  2       EATOM=  -12.4884
 kinetic energy error for atom=    0.0008 (will be added to EATOM!!)
 
 
 POSCAR: Pt111                                   
  positions in direct lattice
  velocities in cartesian coordinates
 exchange correlation table for  LEXCH =        8
   RHO(1)=    0.500       N(1)  =     2000
   RHO(2)=  100.500       N(2)  =     4000
 


--------------------------------------------------------------------------------------------------------


 ion  position               nearest neighbor table
   1  0.782  0.872  0.336-   3 2.65   2 2.65  43 2.65  73 2.65  72 2.65  56 2.65  71 2.84  20 2.84
                            55 2.86  35 2.86  27 2.86  34 2.87
   2  0.032  0.872  0.335-  23 2.63  47 2.64   3 2.64  57 2.65   1 2.65  72 2.65  55 2.82  65 2.83
                            68 2.83  39 2.87  29 2.89  27 2.89
   3  0.032  0.622  0.335-  15 2.63   9 2.64   2 2.64   1 2.65  57 2.65  56 2.65  55 2.82  76 2.83
                            12 2.84  39 2.87  28 2.89  35 2.89
   4  0.788  0.868  0.007-  44 2.64  74 2.64   5 2.64  75 2.64  58 2.64   6 2.64  78 2.88  21 2.88
                            19 2.89
   5  0.038  0.867  0.007-   4 2.64   6 2.64  48 2.64  24 2.64  74 2.64  59 2.64  49 2.88  70 2.88
                            78 2.88
   6  0.038  0.617  0.007-  58 2.64   5 2.64  59 2.64  10 2.64  18 2.64   4 2.64  46 2.88  70 2.88
                            21 2.88
   7  0.620  0.202  0.118-  61 2.64  19 2.64  53 2.64  11 2.64  78 2.64  22 2.64  71 2.83  79 2.84
                            80 2.87  42 2.87  44 2.87  74 2.89
   8  0.370  0.951  0.118-  60 2.64  25 2.64  19 2.64  53 2.64  49 2.64  54 2.64  69 2.82  66 2.84
                            26 2.84  16 2.87  24 2.88  75 2.89
   9  0.032  0.373  0.335-   3 2.64  56 2.64  13 2.64  47 2.65  15 2.66  63 2.66  12 2.82  77 2.83
                            33 2.83  62 2.84  30 2.89  28 2.90
  10  0.038  0.367  0.007-  64 2.64  58 2.64  18 2.64  16 2.64   6 2.64  48 2.64  54 2.87  46 2.88
                            45 2.88
  11  0.870  0.201  0.118-  54 2.64  78 2.64  49 2.64  22 2.64   7 2.64  45 2.64  65 2.82  77 2.84
                            79 2.86  64 2.87  74 2.88  48 2.88
  12  0.951  0.537  0.226-  62 2.64  77 2.64  20 2.64  55 2.64  76 2.65  67 2.65   9 2.82  21 2.83
                            45 2.83  46 2.84   3 2.84  56 2.85
  13  0.282  0.122  0.334-  73 2.64  43 2.64  47 2.64   9 2.64  23 2.66  15 2.66  62 2.81  26 2.82
                            69 2.84  33 2.86  31 2.88  36 2.89
  14  0.531  0.622  0.341-  41 2.62  23 2.62  63 2.62  57 2.62  73 2.65  56 2.65  52 2.76  51 2.79
                            66 2.93  67 2.95  37 3.00  38 3.01
  15  0.283  0.374  0.338-  57 2.62  41 2.62   3 2.63  43 2.64   9 2.66  13 2.66  36 2.82  76 2.85
                            28 2.86  80 2.88  62 2.89  50 3.05
  16  0.288  0.117  0.007-  24 2.64  75 2.64  10 2.64  48 2.64  18 2.64  44 2.64   8 2.87  53 2.88
                            54 2.88
  17  0.538  0.617  0.007-  75 2.64  64 2.64  58 2.64  42 2.64  24 2.64  59 2.64  22 2.87  25 2.88
                            60 2.89
  18  0.288  0.367  0.007-  44 2.64  10 2.64  42 2.64  59 2.64  16 2.64   6 2.64  53 2.87  61 2.87
                            46 2.88
  19  0.620  0.952  0.118-  53 2.64  25 2.64   7 2.64   8 2.64  78 2.64  21 2.64  20 2.84  71 2.84
                            69 2.84  44 2.87  75 2.88   4 2.89
  20  0.701  0.787  0.227-  55 2.64  71 2.64  12 2.64  69 2.64  67 2.64  66 2.65  56 2.81  73 2.83
                            19 2.84  25 2.84   1 2.84  21 2.85
  21  0.870  0.702  0.118-  78 2.64  70 2.64  25 2.64  46 2.64  19 2.64  45 2.64  12 2.83  55 2.84
                            20 2.85  58 2.88   4 2.88   6 2.88
  22  0.620  0.452  0.118-  60 2.64  61 2.64  45 2.64  11 2.64  25 2.64   7 2.64  79 2.83  67 2.84
                            17 2.87  42 2.88  64 2.88  51 3.00
  23  0.283  0.870  0.337-  57 2.62  14 2.62   2 2.63  73 2.64  47 2.66  13 2.66  31 2.84  68 2.85
                            29 2.86  66 2.87  26 2.87  37 3.04
  24  0.288  0.867  0.007-  16 2.64  59 2.64   5 2.64  48 2.64  75 2.64  17 2.64  60 2.88   8 2.88
                            49 2.89
  25  0.620  0.702  0.118-  19 2.64  60 2.64  21 2.64   8 2.64  45 2.64  22 2.64  67 2.84  20 2.84
                            66 2.86  75 2.87  17 2.88  58 2.88
  26  0.201  0.036  0.226-  65 2.64  69 2.64  66 2.64  68 2.64  77 2.65  62 2.65  13 2.82  54 2.82
                            49 2.83  47 2.84   8 2.84  23 2.87
  27  0.863  0.958  0.446-  32 2.64  29 2.64  40 2.64  35 2.64  34 2.64  39 2.64   1 2.86  72 2.89
                             2 2.89
  28  0.113  0.458  0.447-  50 2.63  39 2.64  35 2.64  30 2.64  36 2.64  33 2.64  15 2.86   3 2.89
                             9 2.90
  29  0.113  0.957  0.446-  37 2.63  39 2.64  27 2.64  31 2.64  33 2.64  32 2.64  23 2.86   2 2.89
                            47 2.89
  30  0.863  0.458  0.446-  38 2.63  52 2.64  35 2.64  28 2.64  32 2.64  33 2.64  63 2.85  56 2.87
                             9 2.89
  31  0.363  0.957  0.446-  37 2.63  52 2.64  29 2.64  34 2.64  33 2.64  36 2.64  23 2.84  13 2.88
                            73 2.89
  32  0.863  0.207  0.446-  38 2.63  27 2.64  33 2.64  40 2.64  30 2.64  29 2.64  63 2.83  72 2.88
                            47 2.89
  33  0.113  0.207  0.444-  36 2.64  32 2.64  29 2.64  31 2.64  28 2.64  30 2.64   9 2.83  47 2.85
                            13 2.86
  34  0.613  0.958  0.446-  36 2.64  31 2.64  40 2.64  35 2.64  27 2.64  52 2.64   1 2.87  43 2.88
                            73 2.89
  35  0.863  0.707  0.446-  28 2.64  30 2.64  39 2.64  52 2.64  34 2.64  27 2.64   1 2.86  56 2.89
                             3 2.89
  36  0.363  0.207  0.446-  50 2.63  34 2.64  33 2.64  40 2.64  28 2.64  31 2.64  15 2.82  13 2.89
                            43 2.90
  37  0.362  0.710  0.458-  81 1.89  31 2.63  29 2.63  52 2.65  39 2.65  38 2.69  50 2.69  57 2.98
                            14 3.00  23 3.04
  38  0.617  0.455  0.459-  81 1.85  30 2.63  32 2.63  40 2.65  52 2.66  37 2.69  50 2.69  14 3.01
                            41 3.01  63 3.08
  39  0.113  0.707  0.446-  29 2.64  28 2.64  35 2.64  27 2.64  37 2.65  50 2.66  57 2.76   3 2.87
                             2 2.87
  40  0.613  0.208  0.445-  36 2.64  32 2.64  34 2.64  27 2.64  50 2.65  38 2.65  41 2.75  43 2.88
                            72 2.89
  41  0.531  0.374  0.342-  14 2.62  57 2.62  15 2.62  63 2.62  43 2.65  72 2.65  40 2.75  51 2.79
                            80 2.94  79 2.96  38 3.01  50 3.02
  42  0.538  0.367  0.007-  74 2.64  59 2.64  64 2.64  17 2.64  18 2.64  44 2.64   7 2.87  22 2.88
                            61 2.89
  43  0.531  0.123  0.334-  15 2.64  13 2.64  72 2.64   1 2.65  41 2.65  73 2.65  80 2.80  69 2.83
                            71 2.84  40 2.88  34 2.88  36 2.90
  44  0.538  0.117  0.007-   4 2.64  18 2.64  75 2.64  74 2.64  42 2.64  16 2.64  19 2.87   7 2.87
                            53 2.89
  45  0.870  0.452  0.118-  54 2.64  46 2.64  22 2.64  25 2.64  11 2.64  21 2.64  77 2.82  12 2.83
                            67 2.86  58 2.88  64 2.88  10 2.88
  46  0.120  0.452  0.118-  45 2.64  21 2.64  70 2.64  53 2.64  54 2.64  61 2.64  62 2.82  12 2.84
                            76 2.86   6 2.88  10 2.88  18 2.88
  47  0.032  0.122  0.334-   2 2.64  72 2.64  13 2.64   9 2.65  23 2.66  63 2.66  77 2.82  65 2.83
                            26 2.84  33 2.85  32 2.89  29 2.89
  48  0.037  0.117  0.007-  74 2.64  64 2.64   5 2.64  24 2.64  16 2.64  10 2.64  49 2.87  54 2.88
                            11 2.88
  49  0.120  0.952  0.118-  70 2.64  78 2.64  11 2.64  54 2.64   8 2.64  60 2.64  26 2.83  65 2.84
                            68 2.84  48 2.87   5 2.88  24 2.89
  50  0.361  0.455  0.460-  81 1.85  28 2.63  36 2.63  40 2.65  39 2.66  37 2.69  38 2.69  57 3.00
                            41 3.02  15 3.05
  51  0.451  0.537  0.235-  68 2.63  76 2.63  80 2.63  66 2.64  79 2.64  67 2.64  41 2.79  14 2.79
                            57 2.82  60 2.98  61 2.98  22 3.00
  52  0.613  0.707  0.446-  30 2.64  31 2.64  35 2.64  34 2.64  37 2.65  38 2.66  14 2.76  73 2.87
                            56 2.88
  53  0.370  0.201  0.118-  19 2.64   7 2.64   8 2.64  46 2.64  61 2.64  54 2.64  69 2.81  62 2.85
                            80 2.85  18 2.87  16 2.88  44 2.89
  54  0.119  0.202  0.118-  45 2.64  11 2.64  49 2.64  46 2.64   8 2.64  53 2.64  26 2.82  62 2.84
                            77 2.85  10 2.87  48 2.88  16 2.88
  55  0.951  0.787  0.227-  20 2.64  71 2.64  12 2.64  76 2.64  65 2.64  68 2.64   3 2.82   2 2.82
                            78 2.84  21 2.84  70 2.85   1 2.86
  56  0.781  0.622  0.335-  63 2.63   9 2.64  73 2.64  14 2.65   1 2.65   3 2.65  20 2.81  67 2.82
                            12 2.85  30 2.87  52 2.88  35 2.89
  57  0.282  0.622  0.342-  15 2.62  41 2.62  23 2.62  14 2.62   2 2.65   3 2.65  39 2.76  51 2.82
                            76 2.93  68 2.94  37 2.98  50 3.00
  58  0.788  0.617  0.007-   6 2.64  10 2.64  17 2.64   4 2.64  75 2.64  64 2.64  21 2.88  45 2.88
                            25 2.88
  59  0.288  0.617  0.007-  24 2.64  42 2.64   6 2.64   5 2.64  18 2.64  17 2.64  60 2.87  61 2.87
                            70 2.88
  60  0.370  0.702  0.118-   8 2.64  25 2.64  22 2.64  61 2.64  49 2.64  70 2.64  66 2.84  68 2.85
                            59 2.87  24 2.88  17 2.89  51 2.98
  61  0.370  0.452  0.118-   7 2.64  22 2.64  60 2.64  53 2.64  46 2.64  70 2.64  80 2.83  76 2.86
                            59 2.87  18 2.87  42 2.89  51 2.98
  62  0.201  0.287  0.227-  12 2.64  76 2.64  80 2.64  69 2.64  26 2.65  77 2.65  13 2.81  46 2.82
                             9 2.84  54 2.84  53 2.85  15 2.89
  63  0.779  0.374  0.337-  14 2.62  41 2.62  72 2.63  56 2.63   9 2.66  47 2.66  32 2.83  67 2.84
                            30 2.85  79 2.86  77 2.89  38 3.08
  64  0.788  0.367  0.007-  48 2.64  74 2.64  10 2.64  17 2.64  42 2.64  58 2.64  11 2.87  45 2.88
                            22 2.88
  65  0.951  0.037  0.226-  77 2.64  26 2.64  71 2.64  55 2.64  68 2.65  79 2.65  11 2.82  47 2.83
                             2 2.83  78 2.83  49 2.84  72 2.84
  66  0.451  0.786  0.227-  67 2.63  68 2.63  51 2.64  26 2.64  20 2.65  69 2.65  73 2.81  60 2.84
                             8 2.84  25 2.86  23 2.87  14 2.93
  67  0.700  0.537  0.227-  66 2.63  79 2.63  51 2.64  77 2.64  20 2.64  12 2.65  56 2.82  25 2.84
                            22 2.84  63 2.84  45 2.86  14 2.95
  68  0.202  0.786  0.227-  76 2.63  66 2.63  51 2.63  26 2.64  55 2.64  65 2.65   2 2.83  70 2.84
                            49 2.84  23 2.85  60 2.85  57 2.94
  69  0.451  0.037  0.226-  26 2.64  62 2.64  71 2.64  20 2.64  66 2.65  80 2.65  53 2.81   8 2.82
                            73 2.83  43 2.83  19 2.84  13 2.84
  70  0.120  0.702  0.118-  49 2.64  21 2.64  78 2.64  46 2.64  60 2.64  61 2.64  68 2.84  76 2.85
                            55 2.85   6 2.88   5 2.88  59 2.88
  71  0.701  0.037  0.226-  55 2.64  20 2.64  65 2.64  69 2.64  79 2.64  80 2.65  72 2.82   7 2.83
                            19 2.84  43 2.84   1 2.84  78 2.85
  72  0.781  0.123  0.334-  63 2.63  47 2.64  43 2.64   1 2.65  41 2.65   2 2.65  79 2.81  71 2.82
                            65 2.84  32 2.88  27 2.89  40 2.89
  73  0.531  0.872  0.334-  23 2.64  13 2.64  56 2.64   1 2.65  14 2.65  43 2.65  66 2.81  69 2.83
                            20 2.83  52 2.87  34 2.89  31 2.89
  74  0.788  0.117  0.006-  48 2.64   4 2.64  64 2.64  42 2.64  44 2.64   5 2.64  78 2.88  11 2.88
                             7 2.89
  75  0.538  0.867  0.007-  16 2.64  17 2.64  44 2.64   4 2.64  24 2.64  58 2.64  25 2.87  19 2.88
                             8 2.89
  76  0.202  0.537  0.228-  80 2.63  68 2.63  51 2.63  62 2.64  55 2.64  12 2.65   3 2.83  15 2.85
                            70 2.85  46 2.86  61 2.86  57 2.93
  77  0.950  0.287  0.226-  12 2.64  65 2.64  67 2.64  79 2.64  26 2.65  62 2.65  47 2.82  45 2.82
                             9 2.83  11 2.84  54 2.85  63 2.89
  78  0.870  0.952  0.118-  21 2.64  49 2.64  11 2.64  70 2.64  19 2.64   7 2.64  65 2.83  55 2.84
                            71 2.85  74 2.88   4 2.88   5 2.88
  79  0.700  0.288  0.227-  80 2.63  67 2.63  51 2.64  77 2.64  71 2.64  65 2.65  72 2.81  22 2.83
                             7 2.84  63 2.86  11 2.86  41 2.96
  80  0.451  0.288  0.227-  79 2.63  76 2.63  51 2.63  62 2.64  71 2.65  69 2.65  43 2.80  61 2.83
                            53 2.85   7 2.87  15 2.88  41 2.94
  81  0.449  0.538  0.506-  38 1.85  50 1.85  37 1.89
 
  LATTYP: Found a hexagonal cell.
 ALAT       =    10.5600002128
 C/A-ratio  =     2.0833332913
  
  Lattice vectors:
  
 A1 = (   5.2799997962,  -9.1452286274,   0.0000000000)
 A2 = ( -10.5600000060,   0.0000000000,   0.0000000000)
 A3 = (   0.0000000000,   0.0000000000, -22.0000000000)


Analysis of symmetry for initial positions (statically):
=====================================================================
 Subroutine PRICEL returns:
 Original cell was already a primitive cell.
 

 Routine SETGRP: Setting up the symmetry group for a 
 hexagonal supercell.


 Subroutine GETGRP returns: Found  1 space group operations
 (whereof  1 operations were pure point group operations)
 out of a pool of 24 trial point group operations.


The static configuration has the point symmetry C_1 .


Analysis of symmetry for dynamics (positions and initial velocities):
=====================================================================
 Subroutine PRICEL returns:
 Original cell was already a primitive cell.
 

 Routine SETGRP: Setting up the symmetry group for a 
 hexagonal supercell.


 Subroutine GETGRP returns: Found  1 space group operations
 (whereof  1 operations were pure point group operations)
 out of a pool of 24 trial point group operations.


The dynamic configuration has the point symmetry C_1 .


Analysis of constrained symmetry for selective dynamics:
=====================================================================
 Subroutine PRICEL returns:
 Original cell was already a primitive cell.
 

 Routine SETGRP: Setting up the symmetry group for a 
 hexagonal supercell.


 Subroutine GETGRP returns: Found  1 space group operations
 (whereof  1 operations were pure point group operations)
 out of a pool of 24 trial point group operations.


The constrained configuration has the point symmetry C_1 .


 Subroutine INISYM returns: Found  1 space group operations
 (whereof  1 operations are pure point group operations),
 and found     1 'primitive' translations

 
 
 KPOINTS: mesh auto                               

Automatic generation of k-mesh.
Space group operators:
 irot       det(A)        alpha          n_x          n_y          n_z        tau_x        tau_y        tau_z
    1     1.000000     0.000001     1.000000     0.000000     0.000000     0.000000     0.000000     0.000000
 
 Subroutine IBZKPT returns following result:
 ===========================================
 
 Found      4 irreducible k-points:
 
 Following reciprocal coordinates:
            Coordinates               Weight
  0.000000  0.000000  0.000000      1.000000
  0.500000  0.000000  0.000000      1.000000
  0.000000  0.500000  0.000000      1.000000
  0.500000  0.500000  0.000000      1.000000
 
 Following cartesian coordinates:
            Coordinates               Weight
  0.000000  0.000000  0.000000      1.000000
  0.047348 -0.027337  0.000000      1.000000
  0.000000  0.054673  0.000000      1.000000
  0.047348  0.027337  0.000000      1.000000
 


--------------------------------------------------------------------------------------------------------




 Dimension of arrays:
   k-points           NKPTS =      4   k-points in BZ     NKDIM =      4   number of bands    NBANDS=    480
   number of dos      NEDOS =    301   number of ions     NIONS =     81
   non local maximal  LDIM  =      6   non local SUM 2l+1 LMDIM =     18
   total plane-waves  NPLWV = ******
   max r-space proj   IRMAX =   7802   max aug-charges    IRDMAX=  33988
   dimension x,y,z NGX =    84 NGY =   84 NGZ =  168
   dimension x,y,z NGXF=   168 NGYF=  168 NGZF=  336
   support grid    NGXF=   168 NGYF=  168 NGZF=  336
   ions per type =              80   1
   NGX,Y,Z   is equivalent  to a cutoff of  13.22, 13.22, 12.70 a.u.
   NGXF,Y,Z  is equivalent  to a cutoff of  26.45, 26.45, 25.39 a.u.

 SYSTEM =  Pt111                                   
 POSCAR =  Pt111                                   

 Startparameter for this run:
   NWRITE =      2    write-flag & timer
   PREC   = accura    normal or accurate (medium, high low for compatibility)
   ISTART =      0    job   : 0-new  1-cont  2-samecut
   ICHARG =      2    charge: 1-file 2-atom 10-const
   ISPIN  =      1    spin polarized calculation?
   LNONCOLLINEAR =      F non collinear calculations
   LSORBIT =      F    spin-orbit coupling
   INIWAV =      1    electr: 0-lowe 1-rand  2-diag
   LASPH  =      F    aspherical Exc in radial PAW
   METAGGA=      F    non-selfconsistent MetaGGA calc.

 Electronic Relaxation 1
   ENCUT  =  550.0 eV  40.42 Ry    6.36 a.u.  20.19 20.19 42.07*2*pi/ulx,y,z
   ENINI  =  550.0     initial cutoff
   ENAUG  =  400.0 eV  augmentation charge cutoff
   NELM   =    200;   NELMIN=  2; NELMDL= -5     # of ELM steps 
   EDIFF  = 0.1E-04   stopping-criterion for ELM
   LREAL  =      T    real-space projection
   NLSPLINE    = F    spline interpolate recip. space projectors
   LCOMPAT=      F    compatible to vasp.4.4
   GGA_COMPAT  = T    GGA compatible to vasp.4.4-vasp.4.6
   LMAXPAW     = -100 max onsite density
   LMAXMIX     =    2 max onsite mixed and CHGCAR
   VOSKOWN=      0    Vosko Wilk Nusair interpolation
   ROPT   =   -0.00025  -0.00025
 Ionic relaxation
   EDIFFG = -.5E-01   stopping-criterion for IOM
   NSW    =    300    number of steps for IOM
   NBLOCK =      1;   KBLOCK =    300    inner block; outer block 
   IBRION =      2    ionic relax: 0-MD 1-quasi-New 2-CG
   NFREE  =      1    steps in history (QN), initial steepest desc. (CG)
   ISIF   =      2    stress and relaxation
   IWAVPR =     11    prediction:  0-non 1-charg 2-wave 3-comb
   ISYM   =      2    0-nonsym 1-usesym 2-fastsym
   LCORR  =      T    Harris-Foulkes like correction to forces

   POTIM  = 0.5000    time-step for ionic-motion
   TEIN   =    0.0    initial temperature
   TEBEG  =    0.0;   TEEND  =   0.0 temperature during run
   SMASS  =  -3.00    Nose mass-parameter (am)
   estimated Nose-frequenzy (Omega)   =  0.10E-29 period in steps =****** mass=  -0.255E-26a.u.
   SCALEE = 1.0000    scale energy and forces
   NPACO  =    256;   APACO  = 16.0  distance and # of slots for P.C.
   PSTRESS=    0.0 pullay stress

  Mass of Ions in am
   POMASS = 195.08  1.00
  Ionic Valenz
   ZVAL   =  10.00  1.00
  Atomic Wigner-Seitz radii
   RWIGS  =  -1.00 -1.00
  virtual crystal weights 
   VCA    =   1.00  1.00
   NELECT =     801.0000    total number of electrons
   NUPDOWN=      -1.0000    fix difference up-down

 DOS related values:
   EMIN   =  10.00;   EMAX   =-10.00  energy-range for DOS
   EFERMI =   0.00
   ISMEAR =     1;   SIGMA  =   0.10  broadening in eV -4-tet -1-fermi 0-gaus

 Electronic relaxation 2 (details)
   IALGO  =     68    algorithm
   LDIAG  =      T    sub-space diagonalisation (order eigenvalues)
   LSUBROT=      F    optimize rotation matrix (better conditioning)
   TURBO    =      0    0=normal 1=particle mesh
   IRESTART =      0    0=no restart 2=restart with 2 vectors
   NREBOOT  =      0    no. of reboots
   NMIN     =      0    reboot dimension
   EREF     =   0.00    reference energy to select bands
   IMIX   =      4    mixing-type and parameters
     AMIX     =   0.40;   BMIX     =  1.00
     AMIX_MAG =   1.60;   BMIX_MAG =  1.00
     AMIN     =   0.10
     WC   =   100.;   INIMIX=   1;  MIXPRE=   1;  MAXMIX= -45

 Intra band minimization:
   WEIMIN = 0.0010     energy-eigenvalue tresh-hold
   EBREAK =  0.52E-08  absolut break condition
   DEPER  =   0.30     relativ break condition  

   TIME   =   0.40     timestep for ELM

  volume/ion in A,a.u.               =      26.23       177.01
  Fermi-wavevector in a.u.,A,eV,Ry     =   1.182656  2.234897 19.030147  1.398676
  Thomas-Fermi vector in A             =   2.318906
 
 Write flags
   LWAVE        =      F    write WAVECAR
   LDOWNSAMPLE  =      F    k-point downsampling of WAVECAR
   LCHARG       =      F    write CHGCAR
   LVTOT        =      F    write LOCPOT, total local potential
   LVHAR        =      F    write LOCPOT, Hartree potential only
   LELF         =      F    write electronic localiz. function (ELF)
   LORBIT       =      0    0 simple, 1 ext, 2 COOP (PROOUT), +10 PAW based schemes


 Dipole corrections
   LMONO  =      F    monopole corrections only (constant potential shift)
   LDIPOL =      F    correct potential (dipole corrections)
   IDIPOL =      0    1-x, 2-y, 3-z, 4-all directions 
   EPSILON=  1.0000000 bulk dielectric constant

 Exchange correlation treatment:
   GGA     =    --    GGA type
   LEXCH   =     8    internal setting for exchange type
   VOSKOWN=      0    Vosko Wilk Nusair interpolation
   LHFCALC =     F    Hartree Fock is set to
   LHFONE  =     F    Hartree Fock one center treatment
   AEXX    =    0.0000 exact exchange contribution

 Linear response parameters
   LEPSILON=     F    determine dielectric tensor
   LRPA    =     F    only Hartree local field effects (RPA)
   LNABLA  =     F    use nabla operator in PAW spheres
   LVEL    =     F    velocity operator in full k-point grid
   LINTERFAST=   F  fast interpolation
   KINTER  =     0    interpolate to denser k-point grid
   CSHIFT  =0.1000    complex shift for real part using Kramers Kronig
   OMEGAMAX=  -1.0    maximum frequency
   DEG_THRESHOLD= 0.2000000E-02 threshold for treating states as degnerate
   RTIME   =   -0.100 relaxation time in fs
  (WPLASMAI=    0.000 imaginary part of plasma frequency in eV, 0.658/RTIME)
   DFIELD  = 0.0000000 0.0000000 0.0000000 field for delta impulse in time
 
 Orbital magnetization related:
   ORBITALMAG=     F  switch on orbital magnetization
   LCHIMAG   =     F  perturbation theory with respect to B field
   DQ        =  0.001000  dq finite difference perturbation B field
   LLRAUG    =     F  two centre corrections for induced B field



--------------------------------------------------------------------------------------------------------


 conjugate gradient relaxation of ions
   using selective dynamics as specified on POSCAR
 charge density and potential will be updated during run
 non-spin polarized calculation
 RMM-DIIS sequential band-by-band and
  variant of blocked Davidson during initial phase
 perform sub-space diagonalisation
    before iterative eigenvector-optimisation
 modified Broyden-mixing scheme, WC =      100.0
 initial mixing is a Kerker type mixing with AMIX =  0.4000 and BMIX =      1.0000
 Hartree-type preconditioning will be used
 using additional bands           79
 real space projection scheme for non local part
 use partial core corrections
 calculate Harris-corrections to forces 
   (improved forces if not selfconsistent)
 use gradient corrections 
 use of overlap-Matrix (Vanderbilt PP)
 Methfessel and Paxton  Order N= 1 SIGMA  =   0.10


--------------------------------------------------------------------------------------------------------


  energy-cutoff  :      550.00
  volume of cell :     2124.62
      direct lattice vectors                 reciprocal lattice vectors
    10.560000006  0.000000000  0.000000000     0.094696970 -0.054673321  0.000000000
     5.280000210  9.145228627  0.000000000     0.000000000  0.109346638  0.000000000
     0.000000000  0.000000000 22.000000000     0.000000000  0.000000000  0.045454545

  length of vectors
    10.560000006 10.560000420 22.000000000     0.109346642  0.109346638  0.045454545


 
 k-points in units of 2pi/SCALE and weight: mesh auto                               
   0.00000000  0.00000000  0.00000000       0.250
   0.04734848 -0.02733666  0.00000000       0.250
   0.00000000  0.05467332  0.00000000       0.250
   0.04734848  0.02733666  0.00000000       0.250
 
 k-points in reciprocal lattice and weights: mesh auto                               
   0.00000000  0.00000000  0.00000000       0.250
   0.50000000  0.00000000  0.00000000       0.250
   0.00000000  0.50000000  0.00000000       0.250
   0.50000000  0.50000000  0.00000000       0.250
 
 position of ions in fractional coordinates (direct lattice) 
   0.78155898  0.87237470  0.33591823
   0.03232067  0.87199618  0.33476914
   0.03220497  0.62195549  0.33517803
   0.78752787  0.86760443  0.00652544
   0.03755334  0.86738732  0.00672673
   0.03760575  0.61743499  0.00695896
   0.61962120  0.20155295  0.11752746
   0.36970429  0.95148074  0.11772946
   0.03157070  0.37259940  0.33490175
   0.03765938  0.36737149  0.00693778
   0.86967212  0.20147513  0.11763988
   0.95107676  0.53650991  0.22629396
   0.28192456  0.12214622  0.33430930
   0.53093301  0.62184497  0.34130868
   0.28263257  0.37377265  0.33792303
   0.28757938  0.11729256  0.00693499
   0.53778144  0.61738218  0.00665825
   0.28767400  0.36732180  0.00711654
   0.61963192  0.95162163  0.11757270
   0.70110948  0.78665561  0.22670645
   0.86975086  0.70168747  0.11768379
   0.61981037  0.45158088  0.11767949
   0.28266932  0.86992783  0.33700627
   0.28759204  0.86737755  0.00669645
   0.61982754  0.70160896  0.11761810
   0.20116107  0.03645141  0.22631674
   0.86302425  0.95764407  0.44595086
   0.11283278  0.45753691  0.44714733
   0.11328209  0.95688586  0.44646233
   0.86289634  0.45760881  0.44611398
   0.36322649  0.95683404  0.44583003
   0.86306679  0.20731787  0.44557432
   0.11308972  0.20718623  0.44377050
   0.61279118  0.95760629  0.44583888
   0.86301405  0.70741842  0.44619916
   0.36298738  0.20725897  0.44581766
   0.36197364  0.70965838  0.45817788
   0.61654945  0.45547094  0.45923283
   0.11331007  0.70708708  0.44590328
   0.61283359  0.20766108  0.44548422
   0.53077591  0.37375787  0.34150612
   0.53763939  0.36745872  0.00671531
   0.53119405  0.12315689  0.33430747
   0.53759656  0.11743104  0.00659585
   0.86980199  0.45152194  0.11782677
   0.11965372  0.45163271  0.11804215
   0.03159257  0.12210207  0.33446318
   0.03749562  0.11734930  0.00677099
   0.11957289  0.95153243  0.11775804
   0.36148722  0.45544546  0.45950119
   0.45060031  0.53696893  0.23461491
   0.61300028  0.70714163  0.44556135
   0.36971476  0.20147859  0.11794211
   0.11948647  0.20156983  0.11789106
   0.95103872  0.78671033  0.22684696
   0.78117771  0.62189389  0.33475943
   0.28246545  0.62190981  0.34179547
   0.78774504  0.61742861  0.00667106
   0.28763603  0.61740049  0.00700940
   0.36992036  0.70156853  0.11780609
   0.36988605  0.45154319  0.11796807
   0.20117860  0.28726940  0.22674003
   0.77903405  0.37361478  0.33683467
   0.78769686  0.36732893  0.00668235
   0.95097589  0.03707355  0.22600219
   0.45094215  0.78581885  0.22686197
   0.69980747  0.53684664  0.22689269
   0.20185453  0.78583877  0.22706210
   0.45082548  0.03687617  0.22580102
   0.11966668  0.70171382  0.11794259
   0.70104208  0.03673323  0.22630327
   0.78112409  0.12323975  0.33431602
   0.53118838  0.87192112  0.33438388
   0.78757893  0.11748274  0.00648215
   0.53760003  0.86744597  0.00661329
   0.20173721  0.53685678  0.22778986
   0.95030873  0.28719611  0.22645508
   0.86966068  0.95156485  0.11758945
   0.69961882  0.28790485  0.22663659
   0.45074361  0.28795523  0.22725107
   0.44852004  0.53750167  0.50583831
 
 position of ions in cartesian coordinates  (Angst):
  12.85940144  7.97806608  7.39020116
   4.94544632  7.97460441  7.36492106
   3.62400956  5.68792516  7.37391670
  12.89724585  7.93444089  0.14355968
   4.97636851  7.93245534  0.14798806
   3.65717364  5.64658412  0.15309704
   7.60739952  1.84324777  2.58560418
   8.92789578  8.70150889  2.59004811
   2.30071144  3.40750667  7.36783843
   2.33740456  3.35969627  0.15263108
  10.24752636  1.84253612  2.58807746
  12.87614302  4.90650581  4.97846704
   3.62205541  1.11705509  7.35480450
   8.88999420  5.68691443  7.50879093
   4.95811961  3.41823636  7.43430675
   3.65614304  1.07266729  0.15256977
   8.93875008  5.64610116  0.14648151
   4.97729658  3.35924184  0.15656384
  11.56787550  8.70279735  2.58659947
  11.55725792  7.19414541  4.98754188
  12.88947904  6.41709233  2.58904344
   8.92954466  4.12981040  2.58894883
   7.57820719  7.95568887  7.41413795
   7.61672558  7.93236598  0.14732190
  10.24987430  6.41637436  2.58759815
   2.31672442  0.33335652  4.97896825
  14.16989703  8.75787397  9.81091887
   3.60730911  4.18427966  9.83724136
   6.24861640  8.75093995  9.82217127
  11.52835991  4.18493716  9.81450748
   8.88775571  8.75046607  9.80826066
  10.20862375  1.89596932  9.80263500
   2.28817082  1.89476549  9.76295098
  11.52723625  8.75752850  9.80845546
  12.84859778  6.46950316  9.81638161
   4.92747407  1.89543062  9.80798862
   7.56943805  6.48998817 10.07991330
   8.91564888  4.16538590 10.10312231
   4.92997432  6.46647303  9.80987215
   7.56797328  1.89910807  9.80065280
   7.57843522  3.41810121  7.51313456
   7.61765408  3.36049399  0.14773674
   6.25967756  1.12629790  7.35476440
   6.29705563  1.07393372  0.14510867
  11.56914501  4.12927141  2.59218894
   3.64816412  4.13028443  2.59692734
   0.97831651  1.11665131  7.35819007
   1.01555808  1.07318621  0.14896182
   6.28678113  8.70198160  2.59067694
   6.22205722  4.16515287 10.10902619
   7.59353530  4.91070365  5.16152809
  10.20699093  6.46697183  9.80234974
   4.96799489  1.84256775  2.59472652
   2.32606594  1.84340221  2.59360339
  14.19679960  7.19464580  4.99063312
  11.53283655  5.68736182  7.36470757
   6.26651905  5.68750738  7.51950044
  11.57861087  5.64652582  0.14676326
   6.29731119  5.64626865  0.15420676
   7.61064093  6.41600457  2.59173394
   6.29014482  4.12946571  2.59529750
   3.64122846  2.62714431  4.98828068
  10.19928567  3.41679254  7.41036284
  10.25757568  3.35930705  0.14701167
  10.23805379  0.33904612  4.97204827
   8.91107283  7.18649305  4.99096336
  10.22451719  4.90958522  4.99163926
   6.28081269  7.18667525  4.99536615
   4.95542329  0.33724101  4.96762244
   4.96872932  6.41733334  2.59473689
   7.59695580  0.33593380  4.97867193
   8.89937635  1.12705569  7.35495238
  10.21309300  7.97391795  7.35644534
   8.93714239  1.07440654  0.14260727
  10.25717118  7.93299171  0.14549228
   4.96494883  4.90967796  5.01137683
  11.55165571  2.62647410  4.98201167
  14.20787943  8.70227815  2.58696792
   8.90811249  2.63295572  4.98600490
   6.28025622  2.63341643  4.99952348
   7.57438053  4.91557565 11.12844288
 


--------------------------------------------------------------------------------------------------------


 k-point  1 :   0.0000 0.0000 0.0000  plane waves:   62167
 k-point  2 :   0.5000 0.0000 0.0000  plane waves:   62242
 k-point  3 :   0.0000 0.5000 0.0000  plane waves:   62242
 k-point  4 :   0.5000 0.5000 0.0000  plane waves:   62242

 maximum and minimum number of plane-waves per node :     15586    15521

 maximum number of plane-waves:     62242
 maximum index in each direction: 
   IXMAX=   20   IYMAX=   20   IZMAX=   42
   IXMIN=  -20   IYMIN=  -20   IZMIN=  -42


 real space projection operators:
  total allocation   :      84877.66 KBytes
  max/ min on nodes  :      21227.70      21211.98


 parallel 3D FFT for wavefunctions:
    minimum data exchange during FFTs selected (reduces bandwidth)
 parallel 3D FFT for charge:
    minimum data exchange during FFTs selected (reduces bandwidth)


 total amount of memory used by VASP MPI-rank0   161841. kBytes
=======================================================================

   base      :      30000. kBytes
   nonlr-proj:      36863. kBytes
   fftplans  :      17962. kBytes
   grid      :      27754. kBytes
   one-center:        326. kBytes
   wavefun   :      48936. kBytes
 
     INWAV:  cpu time    0.0000: real time    0.0000
 Broyden mixing: mesh for mixing (old mesh)
   NGX = 41   NGY = 41   NGZ = 85
  (NGX  =168   NGY  =168   NGZ  =336)
  gives a total of 142885 points

 initial charge density was supplied:
 charge density of overlapping atoms calculated
 number of electron     801.0000000 magnetization 
 keeping initial charge density in first step


--------------------------------------------------------------------------------------------------------


 Maximum index for non-local projection operator         1911
 Maximum index for augmentation-charges         2076 (set IRDMAX)


--------------------------------------------------------------------------------------------------------


 First call to EWALD:  gamma=   0.138
 Maximum number of real-space cells 4x 4x 2
 Maximum number of reciprocal cells 2x 2x 4

    FEWALD:  cpu time    0.0041: real time    0.0041


--------------------------------------- Iteration      1(   1)  ---------------------------------------


    POTLOK:  cpu time    0.1839: real time    0.1865
    SETDIJ:  cpu time    0.0185: real time    0.0190
     EDDAV:  cpu time   27.7443: real time   27.8216
       DOS:  cpu time    0.0010: real time    0.0012
    --------------------------------------------
      LOOP:  cpu time   27.9477: real time   28.0283

 eigenvalue-minimisations  :  3840
 total energy-change (2. order) : 0.5769532E+04  (-0.4000679E+05)
 number of electron     801.0000000 magnetization 
 augmentation part      801.0000000 magnetization 

 Free energy of the ion-electron system (eV)
  ---------------------------------------------------
  alpha Z        PSCENC =      2867.94180034
  Ewald energy   TEWEN  =    164563.38679013
  -Hartree energ DENC   =   -229649.42891712
  -exchange      EXHF   =         0.00000000
  -V(xc)+E(xc)   XCENC  =       302.71594619
  PAW double counting   =     55692.01686169   -53429.36650374
  entropy T*S    EENTRO =        -0.01058834
  eigenvalues    EBANDS =      7080.54544169
  atomic energy  EATOM  =     58341.73154849
  Solvation  Ediel_sol  =         0.00000000
  ---------------------------------------------------
  free energy    TOTEN  =      5769.53237933 eV

  energy without entropy =     5769.54296767  energy(sigma->0) =     5769.53590878


--------------------------------------------------------------------------------------------------------




--------------------------------------- Iteration      1(   2)  ---------------------------------------


     EDDAV:  cpu time   29.7198: real time   29.8009
       DOS:  cpu time    0.0011: real time    0.0011
    --------------------------------------------
      LOOP:  cpu time   29.7209: real time   29.8020

 eigenvalue-minimisations  :  4240
 total energy-change (2. order) :-0.5911603E+04  (-0.5502464E+04)
 number of electron     801.0000000 magnetization 
 augmentation part      801.0000000 magnetization 

 Free energy of the ion-electron system (eV)
  ---------------------------------------------------
  alpha Z        PSCENC =      2867.94180034
  Ewald energy   TEWEN  =    164563.38679013
  -Hartree energ DENC   =   -229649.42891712
  -exchange      EXHF   =         0.00000000
  -V(xc)+E(xc)   XCENC  =       302.71594619
  PAW double counting   =     55692.01686169   -53429.36650374
  entropy T*S    EENTRO =         0.00834672
  eigenvalues    EBANDS =      1168.92344929
  atomic energy  EATOM  =     58341.73154849
  Solvation  Ediel_sol  =         0.00000000
  ---------------------------------------------------
  free energy    TOTEN  =      -142.07067801 eV

  energy without entropy =     -142.07902473  energy(sigma->0) =     -142.07346025


--------------------------------------------------------------------------------------------------------




--------------------------------------- Iteration      1(   3)  ---------------------------------------


     EDDAV:  cpu time   31.3876: real time   31.4734
       DOS:  cpu time    0.0012: real time    0.0012
    --------------------------------------------
      LOOP:  cpu time   31.3888: real time   31.4746

 eigenvalue-minimisations  :  4550
 total energy-change (2. order) :-0.3399381E+03  (-0.3045308E+03)
 number of electron     801.0000000 magnetization 
 augmentation part      801.0000000 magnetization 

 Free energy of the ion-electron system (eV)
  ---------------------------------------------------
  alpha Z        PSCENC =      2867.94180034
  Ewald energy   TEWEN  =    164563.38679013
  -Hartree energ DENC   =   -229649.42891712
  -exchange      EXHF   =         0.00000000
  -V(xc)+E(xc)   XCENC  =       302.71594619
  PAW double counting   =     55692.01686169   -53429.36650374
  entropy T*S    EENTRO =        -0.02726328
  eigenvalues    EBANDS =       829.02096816
  atomic energy  EATOM  =     58341.73154849
  Solvation  Ediel_sol  =         0.00000000
  ---------------------------------------------------
  free energy    TOTEN  =      -482.00876914 eV

  energy without entropy =     -481.98150586  energy(sigma->0) =     -481.99968138


--------------------------------------------------------------------------------------------------------




--------------------------------------- Iteration      1(   4)  ---------------------------------------


     EDDAV:  cpu time   32.6521: real time   32.7415
       DOS:  cpu time    0.0011: real time    0.0011
    --------------------------------------------
      LOOP:  cpu time   32.6532: real time   32.7426

 eigenvalue-minimisations  :  4780
 total energy-change (2. order) :-0.1493778E+02  (-0.1442185E+02)
 number of electron     801.0000000 magnetization 
 augmentation part      801.0000000 magnetization 

 Free energy of the ion-electron system (eV)
  ---------------------------------------------------
  alpha Z        PSCENC =      2867.94180034
  Ewald energy   TEWEN  =    164563.38679013
  -Hartree energ DENC   =   -229649.42891712
  -exchange      EXHF   =         0.00000000
  -V(xc)+E(xc)   XCENC  =       302.71594619
  PAW double counting   =     55692.01686169   -53429.36650374
  entropy T*S    EENTRO =        -0.04535012
  eigenvalues    EBANDS =       814.10127701
  atomic energy  EATOM  =     58341.73154849
  Solvation  Ediel_sol  =         0.00000000
  ---------------------------------------------------
  free energy    TOTEN  =      -496.94654713 eV

  energy without entropy =     -496.90119701  energy(sigma->0) =     -496.93143042


--------------------------------------------------------------------------------------------------------




--------------------------------------- Iteration      1(   5)  ---------------------------------------


     EDDAV:  cpu time   32.1472: real time   32.2350
       DOS:  cpu time    0.0011: real time    0.0011
    CHARGE:  cpu time    2.1478: real time    2.1537
    MIXING:  cpu time    0.0069: real time    0.0075
    --------------------------------------------
      LOOP:  cpu time   34.3030: real time   34.3973

 eigenvalue-minimisations  :  4690
 total energy-change (2. order) :-0.3725802E+00  (-0.3714990E+00)
 number of electron     801.0000034 magnetization 
 augmentation part      232.0358599 magnetization 

 Broyden mixing:
  rms(total) = 0.11731E+02    rms(broyden)= 0.11731E+02
  rms(prec ) = 0.11836E+02
  weight for this iteration     100.00

 Free energy of the ion-electron system (eV)
  ---------------------------------------------------
  alpha Z        PSCENC =      2867.94180034
  Ewald energy   TEWEN  =    164563.38679013
  -Hartree energ DENC   =   -229649.42891712
  -exchange      EXHF   =         0.00000000
  -V(xc)+E(xc)   XCENC  =       302.71594619
  PAW double counting   =     55692.01686169   -53429.36650374
  entropy T*S    EENTRO =        -0.04544950
  eigenvalues    EBANDS =       813.72879617
  atomic energy  EATOM  =     58341.73154849
  Solvation  Ediel_sol  =         0.00000000
  ---------------------------------------------------
  free energy    TOTEN  =      -497.31912736 eV

  energy without entropy =     -497.27367785  energy(sigma->0) =     -497.30397752


--------------------------------------------------------------------------------------------------------




--------------------------------------- Iteration      1(   6)  ---------------------------------------


    POTLOK:  cpu time    0.1707: real time    0.1711
    SETDIJ:  cpu time    0.0166: real time    0.0166
    EDDIAG:  cpu time    4.6812: real time    4.6942
  RMM-DIIS:  cpu time   16.9685: real time   17.0151
    ORTHCH:  cpu time    0.4307: real time    0.4317
       DOS:  cpu time    0.0012: real time    0.0012
    CHARGE:  cpu time    2.1416: real time    2.1477
    MIXING:  cpu time    0.0063: real time    0.0064
    --------------------------------------------
      LOOP:  cpu time   24.4167: real time   24.4840

 eigenvalue-minimisations  :  3858
 total energy-change (2. order) : 0.1829906E+02  (-0.6778437E+01)
 number of electron     801.0000038 magnetization 
 augmentation part      243.0865417 magnetization 

 Broyden mixing:
  rms(total) = 0.78705E+01    rms(broyden)= 0.78705E+01
  rms(prec ) = 0.84909E+01
  weight for this iteration     100.00

 eigenvalues of (default mixing * dielectric matrix)
  average eigenvalue GAMMA=   1.6571
  1.6571

 Free energy of the ion-electron system (eV)
  ---------------------------------------------------
  alpha Z        PSCENC =      2867.94180034
  Ewald energy   TEWEN  =    164563.38679013
  -Hartree energ DENC   =   -228716.44196035
  -exchange      EXHF   =         0.00000000
  -V(xc)+E(xc)   XCENC  =       283.45928660
  PAW double counting   =     63741.73777297   -61615.01421954
  entropy T*S    EENTRO =        -0.11421521
  eigenvalues    EBANDS =        54.29313271
  atomic energy  EATOM  =     58341.73154849
  Solvation  Ediel_sol  =         0.00000000
  ---------------------------------------------------
  free energy    TOTEN  =      -479.02006384 eV

  energy without entropy =     -478.90584863  energy(sigma->0) =     -478.98199210


--------------------------------------------------------------------------------------------------------




--------------------------------------- Iteration      1(   7)  ---------------------------------------


    POTLOK:  cpu time    0.1658: real time    0.1662
    SETDIJ:  cpu time    0.0163: real time    0.0163
    EDDIAG:  cpu time    4.6743: real time    4.6867
  RMM-DIIS:  cpu time   17.0037: real time   17.0503
    ORTHCH:  cpu time    0.4312: real time    0.4325
       DOS:  cpu time    0.0010: real time    0.0010
    CHARGE:  cpu time    2.1880: real time    2.1939
    MIXING:  cpu time    0.0070: real time    0.0070
    --------------------------------------------
      LOOP:  cpu time   24.4871: real time   24.5539

 eigenvalue-minimisations  :  3958
 total energy-change (2. order) :-0.2876646E+03  (-0.3898615E+02)
 number of electron     801.0000038 magnetization 
 augmentation part      237.8725365 magnetization 

 Broyden mixing:
  rms(total) = 0.13873E+02    rms(broyden)= 0.13873E+02
  rms(prec ) = 0.18045E+02
  weight for this iteration     100.00

 eigenvalues of (default mixing * dielectric matrix)
  average eigenvalue GAMMA=   1.2369
  2.2772  0.1966

 Free energy of the ion-electron system (eV)
  ---------------------------------------------------
  alpha Z        PSCENC =      2867.94180034
  Ewald energy   TEWEN  =    164563.38679013
  -Hartree energ DENC   =   -229925.10950388
  -exchange      EXHF   =         0.00000000
  -V(xc)+E(xc)   XCENC  =       276.66446020
  PAW double counting   =     70038.39345783   -67983.36892148
  entropy T*S    EENTRO =        -0.05463028
  eigenvalues    EBANDS =      1053.73035766
  atomic energy  EATOM  =     58341.73154849
  Solvation  Ediel_sol  =         0.00000000
  ---------------------------------------------------
  free energy    TOTEN  =      -766.68464098 eV

  energy without entropy =     -766.63001071  energy(sigma->0) =     -766.66643089


--------------------------------------------------------------------------------------------------------




--------------------------------------- Iteration      1(   8)  ---------------------------------------


    POTLOK:  cpu time    0.1742: real time    0.1746
    SETDIJ:  cpu time    0.0189: real time    0.0190
    EDDIAG:  cpu time    4.7152: real time    4.7281
  RMM-DIIS:  cpu time   16.5500: real time   16.5952
    ORTHCH:  cpu time    0.4316: real time    0.4327
       DOS:  cpu time    0.0011: real time    0.0011
    CHARGE:  cpu time    2.0963: real time    2.1019
    MIXING:  cpu time    0.0066: real time    0.0066
    --------------------------------------------
      LOOP:  cpu time   23.9939: real time   24.0592

 eigenvalue-minimisations  :  3843
 total energy-change (2. order) : 0.1826519E+03  (-0.8722031E+01)
 number of electron     801.0000031 magnetization 
 augmentation part      245.5275347 magnetization 

 Broyden mixing:
  rms(total) = 0.90824E+01    rms(broyden)= 0.90824E+01
  rms(prec ) = 0.12198E+02
  weight for this iteration     100.00

 eigenvalues of (default mixing * dielectric matrix)
  average eigenvalue GAMMA=   0.9400
  2.3344  0.2428  0.2428

 Free energy of the ion-electron system (eV)
  ---------------------------------------------------
  alpha Z        PSCENC =      2867.94180034
  Ewald energy   TEWEN  =    164563.38679013
  -Hartree energ DENC   =   -229088.71557780
  -exchange      EXHF   =         0.00000000
  -V(xc)+E(xc)   XCENC  =       270.71875942
  PAW double counting   =     75903.54834529   -73920.20266116
  entropy T*S    EENTRO =        -0.02834327
  eigenvalues    EBANDS =       477.58662482
  atomic energy  EATOM  =     58341.73154849
  Solvation  Ediel_sol  =         0.00000000
  ---------------------------------------------------
  free energy    TOTEN  =      -584.03271373 eV

  energy without entropy =     -584.00437046  energy(sigma->0) =     -584.02326597


--------------------------------------------------------------------------------------------------------




--------------------------------------- Iteration      1(   9)  ---------------------------------------


    POTLOK:  cpu time    0.1661: real time    0.1665
    SETDIJ:  cpu time    0.0163: real time    0.0163
    EDDIAG:  cpu time    4.6974: real time    4.7103
  RMM-DIIS:  cpu time   16.6014: real time   16.6425
    ORTHCH:  cpu time    0.4304: real time    0.4314
       DOS:  cpu time    0.0010: real time    0.0010
    CHARGE:  cpu time    2.1169: real time    2.1220
    MIXING:  cpu time    0.0062: real time    0.0062
    --------------------------------------------
      LOOP:  cpu time   24.0356: real time   24.0962

 eigenvalue-minimisations  :  3846
 total energy-change (2. order) : 0.3123619E+02  (-0.6415476E+01)
 number of electron     801.0000040 magnetization 
 augmentation part      245.8461129 magnetization 

 Broyden mixing:
  rms(total) = 0.67604E+01    rms(broyden)= 0.67604E+01
  rms(prec ) = 0.10937E+02
  weight for this iteration     100.00

 eigenvalues of (default mixing * dielectric matrix)
  average eigenvalue GAMMA=   0.7871
  2.2500  0.3867  0.3867  0.1250

 Free energy of the ion-electron system (eV)
  ---------------------------------------------------
  alpha Z        PSCENC =      2867.94180034
  Ewald energy   TEWEN  =    164563.38679013
  -Hartree energ DENC   =   -228831.50758704
  -exchange      EXHF   =         0.00000000
  -V(xc)+E(xc)   XCENC  =       270.81169620
  PAW double counting   =     76605.63522023   -74629.56436205
  entropy T*S    EENTRO =         0.06048747
  eigenvalues    EBANDS =       258.70787756
  atomic energy  EATOM  =     58341.73154849
  Solvation  Ediel_sol  =         0.00000000
  ---------------------------------------------------
  free energy    TOTEN  =      -552.79652868 eV

  energy without entropy =     -552.85701615  energy(sigma->0) =     -552.81669117


--------------------------------------------------------------------------------------------------------




--------------------------------------- Iteration      1(  10)  ---------------------------------------


    POTLOK:  cpu time    0.1665: real time    0.1669
    SETDIJ:  cpu time    0.0161: real time    0.0162
    EDDIAG:  cpu time    4.6766: real time    4.6878
  RMM-DIIS:  cpu time   16.5995: real time   16.6428
    ORTHCH:  cpu time    0.4304: real time    0.4315
       DOS:  cpu time    0.0012: real time    0.0012
    CHARGE:  cpu time    2.0972: real time    2.1029
    MIXING:  cpu time    0.0070: real time    0.0070
    --------------------------------------------
      LOOP:  cpu time   23.9944: real time   24.0561

 eigenvalue-minimisations  :  3855
 total energy-change (2. order) : 0.4688834E+02  (-0.4432266E+01)
 number of electron     801.0000039 magnetization 
 augmentation part      247.3724116 magnetization 

 Broyden mixing:
  rms(total) = 0.59023E+01    rms(broyden)= 0.59023E+01
  rms(prec ) = 0.79599E+01
  weight for this iteration     100.00

 eigenvalues of (default mixing * dielectric matrix)
  average eigenvalue GAMMA=   0.7231
  2.0911  0.8841  0.3420  0.1913  0.1070

 Free energy of the ion-electron system (eV)
  ---------------------------------------------------
  alpha Z        PSCENC =      2867.94180034
  Ewald energy   TEWEN  =    164563.38679013
  -Hartree energ DENC   =   -228832.26426401
  -exchange      EXHF   =         0.00000000
  -V(xc)+E(xc)   XCENC  =       271.92693670
  PAW double counting   =     76502.10096033   -74523.13483205
  entropy T*S    EENTRO =        -0.01799258
  eigenvalues    EBANDS =       302.42086629
  atomic energy  EATOM  =     58341.73154849
  Solvation  Ediel_sol  =         0.00000000
  ---------------------------------------------------
  free energy    TOTEN  =      -505.90818636 eV

  energy without entropy =     -505.89019378  energy(sigma->0) =     -505.90218884


--------------------------------------------------------------------------------------------------------




--------------------------------------- Iteration      1(  11)  ---------------------------------------


    POTLOK:  cpu time    0.1735: real time    0.1739
    SETDIJ:  cpu time    0.0165: real time    0.0165
    EDDIAG:  cpu time    4.6803: real time    4.6934
  RMM-DIIS:  cpu time   16.8613: real time   16.9099
    ORTHCH:  cpu time    0.4319: real time    0.4329
       DOS:  cpu time    0.0011: real time    0.0011
    CHARGE:  cpu time    2.1369: real time    2.1420
    MIXING:  cpu time    0.0074: real time    0.0074
    --------------------------------------------
      LOOP:  cpu time   24.3089: real time   24.3771

 eigenvalue-minimisations  :  3869
 total energy-change (2. order) : 0.2711537E+02  (-0.2720112E+01)
 number of electron     801.0000040 magnetization 
 augmentation part      247.6492735 magnetization 

 Broyden mixing:
  rms(total) = 0.38785E+01    rms(broyden)= 0.38785E+01
  rms(prec ) = 0.60428E+01
  weight for this iteration     100.00

 eigenvalues of (default mixing * dielectric matrix)
  average eigenvalue GAMMA=   0.6769
  2.1577  1.0283  0.2833  0.2833  0.1931  0.1158

 Free energy of the ion-electron system (eV)
  ---------------------------------------------------
  alpha Z        PSCENC =      2867.94180034
  Ewald energy   TEWEN  =    164563.38679013
  -Hartree energ DENC   =   -228607.36621686
  -exchange      EXHF   =         0.00000000
  -V(xc)+E(xc)   XCENC  =       274.30074011
  PAW double counting   =     76075.97874423   -74086.36432026
  entropy T*S    EENTRO =        -0.08530364
  eigenvalues    EBANDS =        91.68339945
  atomic energy  EATOM  =     58341.73154849
  Solvation  Ediel_sol  =         0.00000000
  ---------------------------------------------------
  free energy    TOTEN  =      -478.79281802 eV

  energy without entropy =     -478.70751438  energy(sigma->0) =     -478.76438347


--------------------------------------------------------------------------------------------------------




--------------------------------------- Iteration      1(  12)  ---------------------------------------


    POTLOK:  cpu time    0.1729: real time    0.1733
    SETDIJ:  cpu time    0.0161: real time    0.0162
    EDDIAG:  cpu time    4.6833: real time    4.6944
  RMM-DIIS:  cpu time   16.6977: real time   16.7371
    ORTHCH:  cpu time    0.5124: real time    0.5136
       DOS:  cpu time    0.0019: real time    0.0019
    CHARGE:  cpu time    2.0961: real time    2.1011
    MIXING:  cpu time    0.0078: real time    0.0078
    --------------------------------------------
      LOOP:  cpu time   24.1883: real time   24.2454

 eigenvalue-minimisations  :  3855
 total energy-change (2. order) : 0.9345873E+01  (-0.6191864E+00)
 number of electron     801.0000037 magnetization 
 augmentation part      246.8871092 magnetization 

 Broyden mixing:
  rms(total) = 0.23306E+01    rms(broyden)= 0.23306E+01
  rms(prec ) = 0.26815E+01
  weight for this iteration     100.00

 eigenvalues of (default mixing * dielectric matrix)
  average eigenvalue GAMMA=   0.6393
  2.2567  0.9694  0.3952  0.3952  0.2121  0.1232  0.1232

 Free energy of the ion-electron system (eV)
  ---------------------------------------------------
  alpha Z        PSCENC =      2867.94180034
  Ewald energy   TEWEN  =    164563.38679013
  -Hartree energ DENC   =   -228647.17579239
  -exchange      EXHF   =         0.00000000
  -V(xc)+E(xc)   XCENC  =       274.43195512
  PAW double counting   =     76347.09523037   -74359.59648564
  entropy T*S    EENTRO =         0.04316949
  eigenvalues    EBANDS =       142.69483877
  atomic energy  EATOM  =     58341.73154849
  Solvation  Ediel_sol  =         0.00000000
  ---------------------------------------------------
  free energy    TOTEN  =      -469.44694531 eV

  energy without entropy =     -469.49011480  energy(sigma->0) =     -469.46133514


--------------------------------------------------------------------------------------------------------




--------------------------------------- Iteration      1(  13)  ---------------------------------------


    POTLOK:  cpu time    0.1736: real time    0.1740
    SETDIJ:  cpu time    0.0215: real time    0.0216
    EDDIAG:  cpu time    4.6911: real time    4.7022
  RMM-DIIS:  cpu time   16.7527: real time   16.7923
    ORTHCH:  cpu time    0.4331: real time    0.4342
       DOS:  cpu time    0.0011: real time    0.0011
    CHARGE:  cpu time    2.0827: real time    2.0877
    MIXING:  cpu time    0.0079: real time    0.0080
    --------------------------------------------
      LOOP:  cpu time   24.1637: real time   24.2209

 eigenvalue-minimisations  :  3859
 total energy-change (2. order) : 0.1571184E+01  (-0.2286064E+00)
 number of electron     801.0000037 magnetization 
 augmentation part      246.4769373 magnetization 

 Broyden mixing:
  rms(total) = 0.17675E+01    rms(broyden)= 0.17675E+01
  rms(prec ) = 0.25525E+01
  weight for this iteration     100.00

 eigenvalues of (default mixing * dielectric matrix)
  average eigenvalue GAMMA=   0.6209
  2.2184  0.7875  0.7875  0.3338  0.3338  0.1191  0.2142  0.1731

 Free energy of the ion-electron system (eV)
  ---------------------------------------------------
  alpha Z        PSCENC =      2867.94180034
  Ewald energy   TEWEN  =    164563.38679013
  -Hartree energ DENC   =   -228699.88225295
  -exchange      EXHF   =         0.00000000
  -V(xc)+E(xc)   XCENC  =       274.20091506
  PAW double counting   =     76602.85279582   -74618.09949837
  entropy T*S    EENTRO =        -0.09527265
  eigenvalues    EBANDS =       200.08741234
  atomic energy  EATOM  =     58341.73154849
  Solvation  Ediel_sol  =         0.00000000
  ---------------------------------------------------
  free energy    TOTEN  =      -467.87576179 eV

  energy without entropy =     -467.78048914  energy(sigma->0) =     -467.84400424


--------------------------------------------------------------------------------------------------------




--------------------------------------- Iteration      1(  14)  ---------------------------------------


    POTLOK:  cpu time    0.1809: real time    0.1813
    SETDIJ:  cpu time    0.0161: real time    0.0162
    EDDIAG:  cpu time    4.7130: real time    4.7257
  RMM-DIIS:  cpu time   16.7899: real time   16.8395
    ORTHCH:  cpu time    0.4304: real time    0.4314
       DOS:  cpu time    0.0010: real time    0.0010
    CHARGE:  cpu time    2.0670: real time    2.0719
    MIXING:  cpu time    0.0073: real time    0.0073
    --------------------------------------------
      LOOP:  cpu time   24.2055: real time   24.2743

 eigenvalue-minimisations  :  3860
 total energy-change (2. order) : 0.6972064E+00  (-0.1110551E+00)
 number of electron     801.0000037 magnetization 
 augmentation part      246.4956228 magnetization 

 Broyden mixing:
  rms(total) = 0.15049E+01    rms(broyden)= 0.15049E+01
  rms(prec ) = 0.24137E+01
  weight for this iteration     100.00

 eigenvalues of (default mixing * dielectric matrix)
  average eigenvalue GAMMA=   0.5972
  2.1402  0.8539  0.8539  0.3590  0.3590  0.3250  0.1205  0.2094  0.1542

 Free energy of the ion-electron system (eV)
  ---------------------------------------------------
  alpha Z        PSCENC =      2867.94180034
  Ewald energy   TEWEN  =    164563.38679013
  -Hartree energ DENC   =   -228711.39655099
  -exchange      EXHF   =         0.00000000
  -V(xc)+E(xc)   XCENC  =       274.23374333
  PAW double counting   =     76464.45376572   -74478.32523176
  entropy T*S    EENTRO =        -0.06377740
  eigenvalues    EBANDS =       210.85935677
  atomic energy  EATOM  =     58341.73154849
  Solvation  Ediel_sol  =         0.00000000
  ---------------------------------------------------
  free energy    TOTEN  =      -467.17855537 eV

  energy without entropy =     -467.11477797  energy(sigma->0) =     -467.15729624


--------------------------------------------------------------------------------------------------------




--------------------------------------- Iteration      1(  15)  ---------------------------------------


    POTLOK:  cpu time    0.1696: real time    0.1700
    SETDIJ:  cpu time    0.0161: real time    0.0161
    EDDIAG:  cpu time    4.6764: real time    4.6876
  RMM-DIIS:  cpu time   16.9696: real time   17.0120
    ORTHCH:  cpu time    0.4324: real time    0.4334
       DOS:  cpu time    0.0010: real time    0.0010
    CHARGE:  cpu time    2.0732: real time    2.0781
    MIXING:  cpu time    0.0075: real time    0.0075
    --------------------------------------------
      LOOP:  cpu time   24.3457: real time   24.4057

 eigenvalue-minimisations  :  3880
 total energy-change (2. order) : 0.1676425E+01  (-0.4086563E-01)
 number of electron     801.0000037 magnetization 
 augmentation part      246.5483813 magnetization 

 Broyden mixing:
  rms(total) = 0.94162E+00    rms(broyden)= 0.94162E+00
  rms(prec ) = 0.11204E+01
  weight for this iteration     100.00

 eigenvalues of (default mixing * dielectric matrix)
  average eigenvalue GAMMA=   0.5684
  2.1556  0.8780  0.8780  0.3622  0.3622  0.3748  0.1203  0.1585  0.1972  0.1972

 Free energy of the ion-electron system (eV)
  ---------------------------------------------------
  alpha Z        PSCENC =      2867.94180034
  Ewald energy   TEWEN  =    164563.38679013
  -Hartree energ DENC   =   -228698.01727537
  -exchange      EXHF   =         0.00000000
  -V(xc)+E(xc)   XCENC  =       274.45072387
  PAW double counting   =     76277.19908581   -74288.82513264
  entropy T*S    EENTRO =        -0.03153202
  eigenvalues    EBANDS =       196.66186064
  atomic energy  EATOM  =     58341.73154849
  Solvation  Ediel_sol  =         0.00000000
  ---------------------------------------------------
  free energy    TOTEN  =      -465.50213077 eV

  energy without entropy =     -465.47059874  energy(sigma->0) =     -465.49162009


--------------------------------------------------------------------------------------------------------




--------------------------------------- Iteration      1(  16)  ---------------------------------------


    POTLOK:  cpu time    0.1697: real time    0.1701
    SETDIJ:  cpu time    0.0162: real time    0.0162
    EDDIAG:  cpu time    4.6757: real time    4.6869
  RMM-DIIS:  cpu time   16.9947: real time   17.0349
    ORTHCH:  cpu time    0.4298: real time    0.4308
       DOS:  cpu time    0.0010: real time    0.0010
    CHARGE:  cpu time    2.0648: real time    2.0698
    MIXING:  cpu time    0.0088: real time    0.0088
    --------------------------------------------
      LOOP:  cpu time   24.3607: real time   24.4185

 eigenvalue-minimisations  :  3916
 total energy-change (2. order) : 0.1275728E+00  (-0.8173352E-02)
 number of electron     801.0000036 magnetization 
 augmentation part      246.5943282 magnetization 

 Broyden mixing:
  rms(total) = 0.85981E+00    rms(broyden)= 0.85981E+00
  rms(prec ) = 0.10020E+01
  weight for this iteration     100.00

 eigenvalues of (default mixing * dielectric matrix)
  average eigenvalue GAMMA=   0.5516
  2.1828  0.7861  0.7861  0.4562  0.4562  0.3672  0.2780  0.2780  0.2021  0.1204
  0.1545

 Free energy of the ion-electron system (eV)
  ---------------------------------------------------
  alpha Z        PSCENC =      2867.94180034
  Ewald energy   TEWEN  =    164563.38679013
  -Hartree energ DENC   =   -228696.37328565
  -exchange      EXHF   =         0.00000000
  -V(xc)+E(xc)   XCENC  =       274.43112329
  PAW double counting   =     76276.86919658   -74288.66027978
  entropy T*S    EENTRO =        -0.03667614
  eigenvalues    EBANDS =       195.33522477
  atomic energy  EATOM  =     58341.73154849
  Solvation  Ediel_sol  =         0.00000000
  ---------------------------------------------------
  free energy    TOTEN  =      -465.37455798 eV

  energy without entropy =     -465.33788184  energy(sigma->0) =     -465.36233260


--------------------------------------------------------------------------------------------------------




--------------------------------------- Iteration      1(  17)  ---------------------------------------


    POTLOK:  cpu time    0.1688: real time    0.1692
    SETDIJ:  cpu time    0.0160: real time    0.0161
    EDDIAG:  cpu time    4.6780: real time    4.6892
  RMM-DIIS:  cpu time   16.8904: real time   16.9307
    ORTHCH:  cpu time    0.4779: real time    0.4791
       DOS:  cpu time    0.0011: real time    0.0011
    CHARGE:  cpu time    2.0877: real time    2.0927
    MIXING:  cpu time    0.0089: real time    0.0089
    --------------------------------------------
      LOOP:  cpu time   24.3288: real time   24.3869

 eigenvalue-minimisations  :  3860
 total energy-change (2. order) :-0.2327036E+00  (-0.5620777E-02)
 number of electron     801.0000036 magnetization 
 augmentation part      246.5915333 magnetization 

 Broyden mixing:
  rms(total) = 0.91520E+00    rms(broyden)= 0.91520E+00
  rms(prec ) = 0.12701E+01
  weight for this iteration     100.00

 eigenvalues of (default mixing * dielectric matrix)
  average eigenvalue GAMMA=   0.6247
  2.1455  1.1441  1.1441  0.8494  0.3773  0.3773  0.4285  0.3591  0.1203  0.1565
  0.2057  0.1888

 Free energy of the ion-electron system (eV)
  ---------------------------------------------------
  alpha Z        PSCENC =      2867.94180034
  Ewald energy   TEWEN  =    164563.38679013
  -Hartree energ DENC   =   -228699.83387880
  -exchange      EXHF   =         0.00000000
  -V(xc)+E(xc)   XCENC  =       274.40653232
  PAW double counting   =     76311.89236512   -74324.13530977
  entropy T*S    EENTRO =        -0.05952102
  eigenvalues    EBANDS =       199.06241159
  atomic energy  EATOM  =     58341.73154849
  Solvation  Ediel_sol  =         0.00000000
  ---------------------------------------------------
  free energy    TOTEN  =      -465.60726159 eV

  energy without entropy =     -465.54774058  energy(sigma->0) =     -465.58742125


--------------------------------------------------------------------------------------------------------




--------------------------------------- Iteration      1(  18)  ---------------------------------------


    POTLOK:  cpu time    0.1702: real time    0.1706
    SETDIJ:  cpu time    0.0163: real time    0.0163
    EDDIAG:  cpu time    4.6748: real time    4.6860
  RMM-DIIS:  cpu time   16.6947: real time   16.7342
    ORTHCH:  cpu time    0.4312: real time    0.4322
       DOS:  cpu time    0.0010: real time    0.0010
    CHARGE:  cpu time    2.0659: real time    2.0709
    MIXING:  cpu time    0.0076: real time    0.0076
    --------------------------------------------
      LOOP:  cpu time   24.0617: real time   24.1188

 eigenvalue-minimisations  :  3860
 total energy-change (2. order) : 0.2917557E+00  (-0.1276090E-01)
 number of electron     801.0000037 magnetization 
 augmentation part      246.5135204 magnetization 

 Broyden mixing:
  rms(total) = 0.73344E+00    rms(broyden)= 0.73344E+00
  rms(prec ) = 0.96663E+00
  weight for this iteration     100.00

 eigenvalues of (default mixing * dielectric matrix)
  average eigenvalue GAMMA=   0.6784
  1.9922  1.5329  1.5329  0.7887  0.7887  0.4726  0.3742  0.3742  0.2863  0.1203
  0.2148  0.1559  0.1862

 Free energy of the ion-electron system (eV)
  ---------------------------------------------------
  alpha Z        PSCENC =      2867.94180034
  Ewald energy   TEWEN  =    164563.38679013
  -Hartree energ DENC   =   -228706.37006603
  -exchange      EXHF   =         0.00000000
  -V(xc)+E(xc)   XCENC  =       274.70380206
  PAW double counting   =     76239.40395841   -74250.20435945
  entropy T*S    EENTRO =        -0.06208322
  eigenvalues    EBANDS =       204.15310336
  atomic energy  EATOM  =     58341.73154849
  Solvation  Ediel_sol  =         0.00000000
  ---------------------------------------------------
  free energy    TOTEN  =      -465.31550590 eV

  energy without entropy =     -465.25342269  energy(sigma->0) =     -465.29481150


--------------------------------------------------------------------------------------------------------




--------------------------------------- Iteration      1(  19)  ---------------------------------------


    POTLOK:  cpu time    0.1724: real time    0.1729
    SETDIJ:  cpu time    0.0160: real time    0.0161
    EDDIAG:  cpu time    4.7773: real time    4.7888
  RMM-DIIS:  cpu time   16.7013: real time   16.7409
    ORTHCH:  cpu time    0.4310: real time    0.4320
       DOS:  cpu time    0.0011: real time    0.0011
    CHARGE:  cpu time    2.0738: real time    2.0787
    MIXING:  cpu time    0.0091: real time    0.0092
    --------------------------------------------
      LOOP:  cpu time   24.1821: real time   24.2396

 eigenvalue-minimisations  :  3863
 total energy-change (2. order) : 0.3039853E+00  (-0.3522953E-01)
 number of electron     801.0000037 magnetization 
 augmentation part      246.5339648 magnetization 

 Broyden mixing:
  rms(total) = 0.56665E+00    rms(broyden)= 0.56665E+00
  rms(prec ) = 0.65035E+00
  weight for this iteration     100.00

 eigenvalues of (default mixing * dielectric matrix)
  average eigenvalue GAMMA=   0.6709
  1.9642  1.5458  1.5458  0.9743  0.9743  0.3722  0.3722  0.3923  0.3269  0.1203
  0.2564  0.1560  0.2072  0.1850

 Free energy of the ion-electron system (eV)
  ---------------------------------------------------
  alpha Z        PSCENC =      2867.94180034
  Ewald energy   TEWEN  =    164563.38679013
  -Hartree energ DENC   =   -228705.83535177
  -exchange      EXHF   =         0.00000000
  -V(xc)+E(xc)   XCENC  =       275.17460159
  PAW double counting   =     76048.68646945   -74056.73267388
  entropy T*S    EENTRO =        -0.05433351
  eigenvalues    EBANDS =       200.68962859
  atomic energy  EATOM  =     58341.73154849
  Solvation  Ediel_sol  =         0.00000000
  ---------------------------------------------------
  free energy    TOTEN  =      -465.01152056 eV

  energy without entropy =     -464.95718706  energy(sigma->0) =     -464.99340939


--------------------------------------------------------------------------------------------------------




--------------------------------------- Iteration      1(  20)  ---------------------------------------


    POTLOK:  cpu time    0.1736: real time    0.1740
    SETDIJ:  cpu time    0.0166: real time    0.0167
    EDDIAG:  cpu time    4.6753: real time    4.6865
  RMM-DIIS:  cpu time   16.7928: real time   16.8539
    ORTHCH:  cpu time    0.4313: real time    0.4323
       DOS:  cpu time    0.0010: real time    0.0010
    CHARGE:  cpu time    2.0641: real time    2.0697
    MIXING:  cpu time    0.0080: real time    0.0080
    --------------------------------------------
      LOOP:  cpu time   24.1628: real time   24.2422

 eigenvalue-minimisations  :  3863
 total energy-change (2. order) : 0.1177635E+00  (-0.1486174E-01)
 number of electron     801.0000037 magnetization 
 augmentation part      246.5311900 magnetization 

 Broyden mixing:
  rms(total) = 0.38945E+00    rms(broyden)= 0.38945E+00
  rms(prec ) = 0.48346E+00
  weight for this iteration     100.00

 eigenvalues of (default mixing * dielectric matrix)
  average eigenvalue GAMMA=   0.6475
  2.1373  1.3733  1.3733  0.9992  0.9992  0.4368  0.4368  0.3804  0.3804  0.3003
  0.1203  0.2173  0.2173  0.1560  0.1846

 Free energy of the ion-electron system (eV)
  ---------------------------------------------------
  alpha Z        PSCENC =      2867.94180034
  Ewald energy   TEWEN  =    164563.38679013
  -Hartree energ DENC   =   -228711.70690854
  -exchange      EXHF   =         0.00000000
  -V(xc)+E(xc)   XCENC  =       275.36520284
  PAW double counting   =     76041.89771583   -74049.49722455
  entropy T*S    EENTRO =        -0.05547957
  eigenvalues    EBANDS =       206.04279792
  atomic energy  EATOM  =     58341.73154849
  Solvation  Ediel_sol  =         0.00000000
[...]
 -----------------------------------------------------------------------------------------------
   0.204E-01 -.614E+00 -.135E+04   -.243E-01 0.629E+00 0.135E+04   -.948E-03 -.167E-02 0.383E+00   -.893E-03 -.541E-04 -.482E-02
   -.106E+01 -.777E+00 -.133E+04   0.113E+01 0.738E+00 0.133E+04   -.111E+00 0.578E-01 0.475E+00   0.177E-03 0.194E-03 -.554E-02
   0.108E+00 0.102E+01 -.134E+04   -.422E-01 -.105E+01 0.134E+04   -.979E-01 0.614E-01 0.478E+00   -.479E-03 -.408E-03 -.480E-02
   -.486E-01 0.121E+01 0.269E+04   0.630E-01 -.122E+01 -.269E+04   -.119E-01 -.228E-01 -.616E-01   -.480E-03 0.728E-03 -.128E-02
   -.140E+01 0.224E+01 0.269E+04   0.144E+01 -.223E+01 -.269E+04   -.218E-01 -.265E-01 -.810E-01   0.265E-04 0.161E-02 -.929E-03
   -.205E+01 0.144E+01 0.268E+04   0.205E+01 -.149E+01 -.268E+04   0.118E-01 0.320E-01 -.807E-01   -.101E-02 -.209E-03 -.125E-02
   0.755E+00 -.861E+01 0.136E+04   -.744E+00 0.867E+01 -.136E+04   -.266E-02 0.258E-01 -.397E+00   0.339E-03 -.568E-03 -.571E-02
   0.186E+01 0.511E+01 0.136E+04   -.190E+01 -.511E+01 -.136E+04   -.551E-02 -.147E-01 -.465E+00   -.573E-03 0.131E-02 -.603E-02
   0.198E+00 -.140E+01 -.134E+04   -.196E+00 0.145E+01 0.134E+04   -.560E-02 -.589E-01 0.383E+00   -.497E-04 -.290E-03 -.426E-02
   -.119E+01 -.507E+00 0.268E+04   0.120E+01 0.476E+00 -.268E+04   -.667E-02 0.344E-01 -.984E-01   -.637E-03 -.141E-02 -.851E-03
   0.372E+01 -.416E+01 0.136E+04   -.369E+01 0.416E+01 -.136E+04   -.211E-01 0.355E-01 -.445E+00   0.919E-03 -.444E-03 -.612E-02
   -.374E+00 -.119E+01 0.119E+02   0.388E+00 0.111E+01 -.120E+02   -.204E-01 0.772E-01 0.269E-01   -.104E-03 0.156E-03 -.586E-02
   -.106E+01 0.116E+01 -.133E+04   0.109E+01 -.116E+01 0.133E+04   -.407E-01 0.177E-01 0.434E+00   0.249E-03 -.252E-03 -.450E-02
   0.409E+01 0.349E+01 -.141E+04   -.422E+01 -.355E+01 0.141E+04   0.149E+00 0.854E-01 0.255E+00   0.676E-03 0.240E-03 -.413E-02
   -.409E+01 -.236E+01 -.137E+04   0.441E+01 0.256E+01 0.137E+04   -.324E+00 -.191E+00 0.174E+00   -.183E-03 -.807E-03 -.439E-02
   -.107E+00 -.127E+01 0.268E+04   0.114E+00 0.124E+01 -.268E+04   0.164E-01 0.209E-01 -.788E-01   -.661E-03 -.972E-05 -.583E-03
   0.239E+01 0.607E+00 0.268E+04   -.237E+01 -.647E+00 -.268E+04   -.514E-01 0.170E-01 -.337E-01   0.951E-03 0.199E-03 -.125E-02
   -.887E+00 -.192E+01 0.268E+04   0.827E+00 0.184E+01 -.268E+04   0.237E-01 0.510E-01 0.532E-02   -.977E-03 -.156E-02 -.113E-02
   -.946E-01 0.700E+00 0.137E+04   0.122E+00 -.727E+00 -.136E+04   -.279E-01 0.134E-01 -.460E+00   -.298E-03 0.438E-03 -.582E-02
   0.324E+01 0.243E+01 0.829E+01   -.327E+01 -.247E+01 -.826E+01   0.226E-01 0.476E-01 -.644E-01   0.187E-03 0.531E-03 -.566E-02
   -.254E+00 0.670E+00 0.136E+04   0.262E+00 -.673E+00 -.136E+04   -.155E-01 -.277E-01 -.414E+00   -.152E-03 0.364E-03 -.550E-02
   0.130E+02 -.800E+01 0.135E+04   -.131E+02 0.804E+01 -.135E+04   -.217E-01 0.166E-01 -.194E+00   0.774E-03 -.772E-03 -.583E-02
   0.157E+00 0.433E+01 -.136E+04   -.176E+00 -.469E+01 0.136E+04   0.138E-01 0.349E+00 0.263E+00   0.102E-02 0.384E-03 -.481E-02
   0.437E+00 0.221E+01 0.268E+04   -.419E+00 -.214E+01 -.268E+04   -.972E-02 -.449E-01 0.439E-02   0.504E-03 0.176E-02 -.860E-03
   0.638E+01 0.415E+01 0.136E+04   -.643E+01 -.421E+01 -.136E+04   -.189E-01 0.568E-02 -.395E+00   0.812E-04 0.381E-03 -.585E-02
   0.442E+00 0.621E+01 0.790E+01   -.443E+00 -.621E+01 -.796E+01   -.368E-02 -.239E-01 0.575E-01   0.575E-05 0.242E-03 -.657E-02
   0.199E+01 0.986E-01 -.267E+04   -.203E+01 -.878E-01 0.267E+04   0.476E-01 -.226E-01 0.681E-01   -.929E-03 0.186E-03 0.703E-03
   0.182E+02 0.339E+01 -.267E+04   -.180E+02 -.333E+01 0.267E+04   -.187E+00 -.547E-01 0.389E-02   -.609E-03 -.737E-03 0.437E-03
   0.611E+01 -.169E+02 -.266E+04   -.605E+01 0.168E+02 0.266E+04   -.779E-01 0.167E+00 -.121E-02   0.845E-03 0.540E-03 0.432E-03
   -.156E+02 0.343E+01 -.266E+04   0.153E+02 -.337E+01 0.266E+04   0.199E+00 -.652E-01 -.357E-01   0.300E-04 0.308E-03 0.277E-03
   -.717E+01 -.160E+02 -.266E+04   0.704E+01 0.159E+02 0.266E+04   0.128E+00 0.162E+00 -.242E-01   0.934E-03 0.227E-03 0.933E-04
   -.102E+02 0.142E+02 -.266E+04   0.101E+02 -.140E+02 0.266E+04   0.103E+00 -.189E+00 -.442E-01   0.288E-03 0.675E-03 0.371E-03
   0.469E+00 0.197E+01 -.266E+04   -.499E+00 -.193E+01 0.266E+04   0.302E-01 -.415E-01 0.806E-02   0.642E-03 0.222E-03 0.198E-03
   -.124E+01 0.108E+01 -.267E+04   0.125E+01 -.106E+01 0.267E+04   -.300E-01 -.257E-01 0.824E-01   -.853E-03 -.149E-03 0.419E-03
   0.132E+01 -.393E+01 -.267E+04   -.132E+01 0.398E+01 0.267E+04   0.668E-03 -.597E-01 0.593E-01   -.117E-02 -.133E-03 0.583E-03
   0.101E+02 0.169E+02 -.266E+04   -.998E+01 -.166E+02 0.266E+04   -.601E-01 -.221E+00 -.237E-01   -.330E-03 -.683E-03 0.200E-03
   -.124E+01 -.350E+02 -.271E+04   0.122E+01 0.358E+02 0.271E+04   0.113E-01 -.772E+00 -.140E+00   0.116E-02 0.409E-03 0.807E-03
   -.316E+02 0.180E+02 -.271E+04   0.321E+02 -.183E+02 0.271E+04   -.541E+00 0.302E+00 -.281E+00   0.813E-03 0.187E-03 0.728E-03
   0.204E+02 -.140E+02 -.265E+04   -.203E+02 0.140E+02 0.265E+04   -.910E-01 0.428E-01 -.448E-03   -.434E-03 -.279E-03 0.574E-03
   -.748E+00 0.257E+02 -.265E+04   0.728E+00 -.255E+02 0.265E+04   0.210E-01 -.170E+00 0.455E-01   -.591E-03 -.330E-03 0.355E-03
   -.967E+00 -.514E+01 -.142E+04   0.951E+00 0.529E+01 0.142E+04   0.164E-01 -.194E+00 0.238E+00   0.154E-03 -.147E-03 -.448E-02
   0.147E+01 -.285E+01 0.268E+04   -.143E+01 0.283E+01 -.268E+04   -.318E-01 0.350E-01 -.373E-01   0.692E-03 -.111E-02 -.118E-02
   -.688E-01 -.144E+00 -.133E+04   0.761E-01 0.263E+00 0.133E+04   0.641E-02 -.144E+00 0.511E+00   -.729E-03 -.713E-04 -.448E-02
   0.106E+01 -.226E+01 0.269E+04   -.106E+01 0.225E+01 -.269E+04   0.379E-02 0.135E-01 -.821E-01   -.426E-03 -.637E-03 -.112E-02
   0.461E+01 -.240E+01 0.136E+04   -.461E+01 0.236E+01 -.136E+04   -.303E-01 0.343E-01 -.464E+00   0.828E-04 -.128E-02 -.632E-02
   -.659E+01 -.207E+01 0.136E+04   0.662E+01 0.202E+01 -.136E+04   0.337E-01 0.226E-01 -.433E+00   -.709E-03 -.132E-02 -.587E-02
   0.119E+01 0.111E+01 -.133E+04   -.123E+01 -.111E+01 0.133E+04   0.481E-01 0.219E-01 0.415E+00   0.645E-03 0.330E-03 -.510E-02
   -.120E+01 -.656E-01 0.269E+04   0.121E+01 0.445E-01 -.269E+04   0.331E-03 0.151E-02 -.964E-01   0.537E-03 0.639E-03 -.506E-03
   -.178E+01 0.605E+01 0.136E+04   0.182E+01 -.605E+01 -.136E+04   0.192E-01 -.236E-01 -.456E+00   0.473E-03 0.152E-02 -.568E-02
   0.289E+02 0.181E+02 -.271E+04   -.295E+02 -.183E+02 0.271E+04   0.580E+00 0.307E+00 -.272E+00   -.274E-03 -.829E-03 0.926E-03
   0.338E+00 -.904E-01 -.676E+02   -.334E+00 0.680E-01 0.684E+02   0.572E-02 0.302E-01 -.806E+00   0.288E-03 -.199E-03 -.558E-02
   -.206E+02 -.132E+02 -.265E+04   0.205E+02 0.132E+02 0.265E+04   0.137E+00 0.455E-01 0.300E-01   0.413E-03 0.403E-03 0.159E-03
   -.336E+01 -.571E+01 0.136E+04   0.334E+01 0.573E+01 -.136E+04   0.144E-01 0.466E-01 -.454E+00   -.107E-02 -.773E-03 -.601E-02
   -.120E+01 -.731E+00 0.136E+04   0.120E+01 0.719E+00 -.136E+04   0.314E-01 0.101E-01 -.363E+00   -.187E-03 -.753E-03 -.635E-02
   -.372E+01 0.253E+01 0.657E+01   0.377E+01 -.257E+01 -.655E+01   -.566E-01 0.474E-01 -.478E-01   -.150E-03 0.723E-03 -.619E-02
   0.431E+00 0.954E+00 -.133E+04   -.532E+00 -.999E+00 0.133E+04   0.124E+00 0.727E-01 0.480E+00   -.608E-03 0.154E-04 -.415E-02
   -.522E+01 0.298E+01 -.142E+04   0.532E+01 -.304E+01 0.142E+04   -.122E+00 0.820E-01 0.218E+00   0.473E-03 -.251E-03 -.468E-02
   0.707E+00 0.768E+00 0.269E+04   -.684E+00 -.821E+00 -.269E+04   -.325E-01 0.422E-01 -.700E-01   -.142E-03 -.319E-03 -.130E-02
   -.577E+00 0.131E+01 0.268E+04   0.616E+00 -.134E+01 -.268E+04   -.547E-02 0.189E-02 -.286E-01   0.206E-03 0.340E-03 -.122E-02
   0.136E+01 0.150E+02 0.134E+04   -.135E+01 -.151E+02 -.134E+04   -.279E-01 -.819E-02 -.162E+00   0.271E-03 0.111E-02 -.560E-02
   -.107E+02 -.844E+01 0.134E+04   0.108E+02 0.848E+01 -.134E+04   -.176E-01 0.263E-01 -.132E+00   -.147E-03 -.765E-03 -.546E-02
   -.516E+01 -.380E+01 0.371E+01   0.518E+01 0.382E+01 -.375E+01   -.163E-01 -.235E-01 0.370E-01   -.193E-03 -.963E-03 -.619E-02
   0.442E+01 -.252E+01 -.136E+04   -.477E+01 0.272E+01 0.136E+04   0.343E+00 -.191E+00 0.208E+00   0.788E-04 0.426E-03 -.447E-02
   0.920E+00 -.187E+01 0.268E+04   -.828E+00 0.180E+01 -.268E+04   -.450E-01 0.563E-01 0.305E-02   0.924E-03 -.917E-03 -.105E-02
   0.589E+00 0.114E+01 0.145E+02   -.525E+00 -.111E+01 -.146E+02   -.533E-01 -.442E-01 0.410E-01   0.158E-03 -.199E-04 -.677E-02
   0.555E+01 0.114E+02 0.356E+01   -.566E+01 -.115E+02 -.364E+01   0.106E+00 0.500E-01 0.103E+00   0.164E-03 0.925E-03 -.557E-02
   0.120E+02 -.131E+01 0.372E+01   -.121E+02 0.124E+01 -.372E+01   0.100E+00 0.918E-01 0.242E-01   0.155E-03 -.164E-03 -.552E-02
   -.477E+01 0.114E+02 0.149E+01   0.487E+01 -.114E+02 -.151E+01   -.113E+00 0.493E-01 0.546E-01   -.202E-03 0.111E-02 -.609E-02
   -.607E+00 0.347E+00 0.169E+02   0.564E+00 -.311E+00 -.169E+02   0.284E-01 -.345E-01 0.638E-01   -.341E-03 0.213E-04 -.598E-02
   -.701E+01 0.593E+01 0.135E+04   0.710E+01 -.599E+01 -.135E+04   0.339E-02 -.194E-01 -.387E+00   -.199E-03 0.922E-03 -.504E-02
   0.174E-01 -.389E+01 0.118E+02   -.234E-02 0.393E+01 -.118E+02   -.244E-01 -.419E-01 -.202E-01   0.173E-03 -.293E-03 -.616E-02
   -.134E+00 -.609E+00 -.133E+04   0.113E+00 0.732E+00 0.133E+04   -.406E-02 -.149E+00 0.491E+00   -.161E-03 0.534E-03 -.514E-02
   0.648E+00 -.315E+00 -.133E+04   -.749E+00 0.272E+00 0.133E+04   0.137E+00 0.584E-01 0.503E+00   -.285E-03 0.127E-03 -.420E-02
   0.437E+00 -.119E+01 0.269E+04   -.389E+00 0.117E+01 -.269E+04   -.492E-01 -.902E-03 -.736E-01   0.552E-03 0.152E-04 -.971E-03
   0.133E+01 0.879E+00 0.269E+04   -.133E+01 -.878E+00 -.269E+04   0.996E-02 -.219E-01 -.897E-01   -.505E-04 0.875E-03 -.116E-02
   -.121E+02 -.107E+01 -.501E+01   0.122E+02 0.978E+00 0.505E+01   -.802E-01 0.102E+00 -.245E-01   -.329E-03 0.250E-04 -.571E-02
   0.471E+01 -.316E+01 0.624E+01   -.472E+01 0.318E+01 -.631E+01   0.244E-03 -.118E-01 0.600E-01   0.612E-05 -.810E-03 -.646E-02
   -.610E-01 0.814E+00 0.136E+04   0.614E-01 -.834E+00 -.136E+04   0.178E-01 0.247E-01 -.442E+00   0.402E-03 0.640E-03 -.542E-02
   0.706E+01 -.104E+02 0.609E+01   -.707E+01 0.105E+02 -.613E+01   0.343E-02 -.117E+00 0.589E-01   0.336E-03 -.562E-03 -.601E-02
   -.663E+01 -.110E+02 -.527E-01   0.662E+01 0.111E+02 0.421E-02   0.141E-01 -.118E+00 0.673E-01   -.148E-03 -.716E-03 -.572E-02
   -.150E+00 -.105E+01 -.319E+03   0.140E+00 0.116E+01 0.321E+03   0.488E-02 -.976E-01 -.168E+01   0.412E-04 0.847E-05 0.421E-03
 -----------------------------------------------------------------------------------------------
   -.101E-02 0.304E+00 0.387E+01   -.939E-12 -.674E-12 0.705E-11   0.512E-01 -.379E+00 -.363E+01   0.719E-04 -.424E-05 -.272E+00
 
 
 POSITION                                       TOTAL-FORCE (eV/Angst)
 -----------------------------------------------------------------------------------
     12.85940      7.97807      7.39020        -0.005664      0.013648     -0.023289
      4.94545      7.97460      7.36492        -0.023384      0.014870     -0.003275
      3.62401      5.68793      7.37392        -0.019473      0.014502      0.003899
     12.89725      7.93444      0.14356         0.001595     -0.026193     -0.022493
      4.97637      7.93246      0.14799         0.015508     -0.009375     -0.030697
      3.65717      5.64658      0.15310         0.014920     -0.018972     -0.024437
      7.60740      1.84325      2.58560         0.009025      0.101564      0.020944
      8.92790      8.70151      2.59005        -0.040659     -0.002838     -0.119603
      2.30071      3.40751      7.36784        -0.005620     -0.008634     -0.009219
      2.33740      3.35970      0.15263         0.003078      0.002885     -0.048498
     10.24753      1.84254      2.58808         0.013328      0.036102     -0.109839
     12.87614      4.90651      4.97847        -0.006857     -0.003998     -0.007648
      3.62206      1.11706      7.35480        -0.018588      0.020552      0.005508
      8.88999      5.68691      7.50879        -0.002225      0.012250      0.000376
      4.95812      3.41824      7.43431        -0.016172      0.002816     -0.022378
      3.65614      1.07267      0.15257         0.021601     -0.004657     -0.040262
      8.93875      5.64610      0.14648        -0.029279     -0.020715      0.032872
      4.97730      3.35924      0.15656        -0.040417     -0.028006     -0.013204
     11.56788      8.70280      2.58660        -0.002276     -0.010070     -0.000061
     11.55726      7.19415      4.98754        -0.010147      0.003124     -0.027164
     12.88948      6.41709      2.58904        -0.007370     -0.031299      0.035073
      8.92954      4.12981      2.58895        -0.111503      0.056237      0.244417
      7.57821      7.95569      7.41414        -0.004921      0.013000     -0.004264
      7.61673      7.93237      0.14732         0.008364      0.037409     -0.013629
     10.24987      6.41637      2.58760        -0.077153     -0.060098      0.042635
      2.31672      0.33336      4.97897        -0.007169     -0.015708     -0.012214
     14.16990      8.75787      9.81092         0.007117     -0.009391      0.023131
      3.60731      4.18428      9.83724         0.006784     -0.002477     -0.004201
      6.24862      8.75094      9.82217        -0.014022      0.017057     -0.013027
     11.52836      4.18494      9.81451        -0.014184     -0.011717     -0.007783
      8.88776      8.75047      9.80826         0.004301      0.014654     -0.017296
     10.20862      1.89597      9.80263        -0.009821      0.008987     -0.006846
      2.28817      1.89477      9.76295        -0.001225     -0.000510      0.011045
     11.52724      8.75753      9.80846        -0.018453     -0.004255      0.030611
     12.84860      6.46950      9.81638        -0.004115     -0.013956      0.023468
      4.92747      1.89543      9.80799         0.007560      0.006738     -0.000773
      7.56944      6.48999     10.07991        -0.007815      0.031765      0.021909
      8.91565      4.16539     10.10312        -0.011085      0.009286      0.024516
      4.92997      6.46647      9.80987         0.013270      0.000929     -0.003727
      7.56797      1.89911      9.80065         0.002921      0.013238      0.004127
      7.57844      3.41810      7.51313        -0.000180     -0.022405     -0.003573
      7.61765      3.36049      0.14774         0.001753      0.015195      0.022725
      6.25968      1.12630      7.35476         0.012630     -0.011593      0.004048
      6.29706      1.07393      0.14511         0.005691     -0.004193     -0.028424
     11.56915      4.12927      2.59219        -0.020868     -0.015528     -0.106464
      3.64816      4.13028      2.59693         0.057053     -0.030822     -0.061631
      0.97832      1.11665      7.35819         0.007134      0.018035      0.001917
      1.01556      1.07319      0.14896         0.012282     -0.017528     -0.053732
      6.28678      8.70198      2.59068         0.060462     -0.015982     -0.102129
      6.22206      4.16515     10.10903         0.005270      0.013072      0.020541
      7.59354      4.91070      5.16153         0.004952      0.009372      0.010939
     10.20699      6.46697      9.80235        -0.016434     -0.001648      0.001146
      4.96799      1.84257      2.59473        -0.013845      0.060429     -0.105287
      2.32607      1.84340      2.59360         0.030470     -0.000303     -0.061700
     14.19680      7.19465      4.99063         0.003155      0.007153     -0.022014
     11.53284      5.68736      7.36471         0.011657      0.018357     -0.002521
      6.26652      5.68751      7.51950         0.001384      0.011359     -0.010171
     11.57861      5.64653      0.14676        -0.009506     -0.010152     -0.017223
      6.29731      5.64627      0.15421         0.031415     -0.024961      0.043288
      7.61064      6.41600      2.59173        -0.018935     -0.124168      0.258193
      6.29014      4.12947      2.59530         0.075438      0.062683      0.298675
      3.64123      2.62714      4.98828         0.004173     -0.002596     -0.014995
     10.19929      3.41679      7.41036         0.008528     -0.001930     -0.014997
     10.25758      3.35931      0.14701         0.048343     -0.011211     -0.017257
     10.23805      0.33905      4.97205         0.012894     -0.008762     -0.007405
      8.91107      7.18649      4.99096        -0.007359     -0.001688      0.014907
     10.22452      4.90959      4.99164        -0.007100      0.008629      0.005838
      6.28081      7.18668      4.99537        -0.005610      0.003237      0.015126
      4.95542      0.33724      4.96762        -0.018741      0.005233     -0.005483
      4.96873      6.41733      2.59474         0.099121     -0.089016      0.060151
      7.59696      0.33593      4.97867        -0.008825      0.006053     -0.006353
      8.89938      1.12706      7.35495        -0.022403     -0.012992     -0.000015
     10.21309      7.97392      7.35645         0.023626      0.010067      0.001432
      8.93714      1.07441      0.14261        -0.000476     -0.013734     -0.030035
     10.25717      7.93299      0.14549         0.011164     -0.018564     -0.031510
      4.96495      4.90968      5.01138         0.008085      0.003763      0.002169
     11.55166      2.62647      4.98201        -0.010497     -0.000472     -0.022573
     14.20788      8.70228      2.58697         0.018399      0.008225      0.007548
      8.90811      2.63296      4.98600        -0.006088      0.008543      0.005894
      6.28026      2.63342      4.99952        -0.002395      0.008044      0.002296
      7.57438      4.91558     11.12844        -0.005588      0.014055      0.009958
 -----------------------------------------------------------------------------------
    total drift:                                0.050224     -0.074727     -0.033357


--------------------------------------------------------------------------------------------------------



  FREE ENERGIE OF THE ION-ELECTRON SYSTEM (eV)
  ---------------------------------------------------
  free  energy   TOTEN  =      -516.50894473 eV

  energy  without entropy=     -516.45408309  energy(sigma->0) =     -516.49065752
 


--------------------------------------------------------------------------------------------------------


    POTLOK:  cpu time    0.1970: real time    0.1975


--------------------------------------------------------------------------------------------------------




--------------------------------------------------------------------------------------------------------


  
 reached required accuracy - stopping structural energy minimisation
     LOOP+:  cpu time 1035.2282: real time 1038.0067
    4ORBIT:  cpu time    0.0000: real time    0.0000

 total amount of memory used by VASP MPI-rank0   161841. kBytes
=======================================================================

   base      :      30000. kBytes
   nonlr-proj:      36863. kBytes
   fftplans  :      17962. kBytes
   grid      :      27754. kBytes
   one-center:        326. kBytes
   wavefun   :      48936. kBytes
 
  
  
 General timing and accounting informations for this job:
 ========================================================
  
                  Total CPU time used (sec):     1046.031
                            User time (sec):     1043.933
                          System time (sec):        2.098
                         Elapsed time (sec):     1049.500
  
                   Maximum memory used (kb):      548292.
                   Average memory used (kb):           0.
  
                          Minor page faults:       431531
                          Major page faults:            0
                 Voluntary context switches:         4755
