 vasp.5.4.4.18Apr17-6-g9f103f2a35 (build Nov 30 2020 22:55:02) complex          
  
 executed on             LinuxIFC date 2023.07.29  12:36:51
 running on   40 total cores
 distrk:  each k-point on   40 cores,    1 groups
 distr:  one band on NCORES_PER_BAND=   4 cores,   10 groups


--------------------------------------------------------------------------------------------------------


 INCAR:
 POTCAR:    PAW_PBE Pt 04Feb2005                  
 POTCAR:    PAW_PBE Cu 22Jun2005                  
 POTCAR:    PAW_PBE Ni 02Aug2007                  
 POTCAR:    PAW_PBE Fe 06Sep2000                  
 POTCAR:    PAW_PBE Co 02Aug2007                  
 POTCAR:    PAW_PBE Pt 04Feb2005                  
   VRHFIN =Pt: s1d9                                                             
   LEXCH  = PE                                                                  
   EATOM  =   729.1176 eV,   53.5886 Ry                                         
                                                                                
   TITEL  = PAW_PBE Pt 04Feb2005                                                
   LULTRA =        F    use ultrasoft PP ?                                      
   IUNSCR =        1    unscreen: 0-lin 1-nonlin 2-no                           
   RPACOR =    2.330    partial core radius                                     
   POMASS =  195.080; ZVAL   =   10.000    mass and valenz                      
   RCORE  =    2.600    outmost cutoff radius                                   
   RWIGS  =    2.750; RWIGS  =    1.455    wigner-seitz radius (au A)           
   ENMAX  =  230.283; ENMIN  =  172.712 eV                                      
   ICORE  =        3    local potential                                         
   LCOR   =        T    correct aug charges                                     
   LPAW   =        T    paw PP                                                  
   EAUG   =  358.966                                                            
   DEXC   =    0.000                                                            
   RMAX   =    2.658    core radius for proj-oper                               
   RAUG   =    1.300    factor for augmentation sphere                          
   RDEP   =    2.761    radius for radial grids                                 
   RDEPT  =    2.203    core radius for aug-charge                              
                                                                                
   Atomic configuration                                                         
   16 entries                                                                   
     n  l   j            E        occ.                                          
     1  0  0.50    -78401.1885   2.0000                                         
     2  0  0.50    -13770.7750   2.0000                                         
     2  1  1.50    -11931.0468   6.0000                                         
     3  0  0.50     -3234.7234   2.0000                                         
     3  1  1.50     -2699.2216   6.0000                                         
     3  2  2.50     -2119.5714  10.0000                                         
     4  0  0.50      -695.1528   2.0000                                         
     4  1  1.50      -519.6034   6.0000                                         
     4  2  2.50      -306.6786  10.0000                                         
     4  3  3.50       -70.1041  14.0000                                         
     5  0  0.50      -101.7747   2.0000                                         
     5  1  1.50       -55.9873   6.0000                                         
     5  2  2.50        -6.1423   9.0000                                         
     6  0  0.50        -5.6573   1.0000                                         
     6  1  1.50        -6.8029   0.0000                                         
     5  3  2.50        -1.3606   0.0000                                         
   Description                                                                  
     l       E           TYP  RCUT    TYP  RCUT                                 
     2     -6.1423404     23  2.500                                             
     2     -7.5029230     23  2.500                                             
     0     -5.6573207     23  2.500                                             
     0      0.7416693     23  2.500                                             
     1     -2.7211652     23  2.600                                             
     1     20.4087390     23  2.600                                             
     3     -1.3605826     23  2.500                                             
  local pseudopotential read in
  partial core-charges read in
  partial kinetic energy density read in
  atomic valenz-charges read in
  non local Contribution for L=           2  read in
    real space projection operators read in
  non local Contribution for L=           2  read in
    real space projection operators read in
  non local Contribution for L=           0  read in
    real space projection operators read in
  non local Contribution for L=           0  read in
    real space projection operators read in
  non local Contribution for L=           1  read in
    real space projection operators read in
  non local Contribution for L=           1  read in
    real space projection operators read in
    PAW grid and wavefunctions read in
 
   number of l-projection  operators is LMAX  =           6
   number of lm-projection operators is LMMAX =          18
 
 POTCAR:    PAW_PBE Cu 22Jun2005                  
   VRHFIN =Cu: d10 p1                                                           
   LEXCH  = PE                                                                  
   EATOM  =  1390.9808 eV,  102.2342 Ry                                         
                                                                                
   TITEL  = PAW_PBE Cu 22Jun2005                                                
   LULTRA =        F    use ultrasoft PP ?                                      
   IUNSCR =        1    unscreen: 0-lin 1-nonlin 2-no                           
   RPACOR =    2.000    partial core radius                                     
   POMASS =   63.546; ZVAL   =   11.000    mass and valenz                      
   RCORE  =    2.300    outmost cutoff radius                                   
   RWIGS  =    2.200; RWIGS  =    1.164    wigner-seitz radius (au A)           
   ENMAX  =  295.446; ENMIN  =  221.585 eV                                      
   ICORE  =        3    local potential                                         
   LCOR   =        T    correct aug charges                                     
   LPAW   =        T    paw PP                                                  
   EAUG   =  586.980                                                            
   DEXC   =    0.000                                                            
   RMAX   =    2.344    core radius for proj-oper                               
   RAUG   =    1.300    factor for augmentation sphere                          
   RDEP   =    2.302    radius for radial grids                                 
   RDEPT  =    1.771    core radius for aug-charge                              
                                                                                
   Atomic configuration                                                         
    9 entries                                                                   
     n  l   j            E        occ.                                          
     1  0  0.50     -8850.2468   2.0000                                         
     2  0  0.50     -1062.3498   2.0000                                         
     2  1  1.50      -916.8226   6.0000                                         
     3  0  0.50      -114.6929   2.0000                                         
     3  1  1.50       -72.1325   6.0000                                         
     3  2  2.50        -5.0394  10.0000                                         
     4  0  0.50        -4.6097   1.0000                                         
     4  1  0.50        -4.0817   0.0000                                         
     4  3  2.50        -1.3606   0.0000                                         
   Description                                                                  
     l       E           TYP  RCUT    TYP  RCUT                                 
     2     -5.0393973     23  2.200                                             
     2     10.8846608     23  2.200                                             
     0     -4.6097109     23  2.200                                             
     0      8.2520465     23  2.200                                             
     1     -2.7211652     23  2.200                                             
     1     21.7055443     23  2.200                                             
     3      2.7211652     23  2.300                                             
  local pseudopotential read in
  partial core-charges read in
  partial kinetic energy density read in
  atomic valenz-charges read in
  non local Contribution for L=           2  read in
    real space projection operators read in
  non local Contribution for L=           2  read in
    real space projection operators read in
  non local Contribution for L=           0  read in
    real space projection operators read in
  non local Contribution for L=           0  read in
    real space projection operators read in
  non local Contribution for L=           1  read in
    real space projection operators read in
  non local Contribution for L=           1  read in
    real space projection operators read in
    PAW grid and wavefunctions read in
 
   number of l-projection  operators is LMAX  =           6
   number of lm-projection operators is LMMAX =          18
 
 POTCAR:    PAW_PBE Ni 02Aug2007                  
   VRHFIN =Ni:                                                                  
   LEXCH  = PE                                                                  
   EATOM  =  1077.6739 eV,   79.2068 Ry                                         
                                                                                
   TITEL  = PAW_PBE Ni 02Aug2007                                                
   LULTRA =        F    use ultrasoft PP ?                                      
   IUNSCR =        1    unscreen: 0-lin 1-nonlin 2-no                           
   RPACOR =    2.000    partial core radius                                     
   POMASS =   58.690; ZVAL   =   10.000    mass and valenz                      
   RCORE  =    2.300    outmost cutoff radius                                   
   RWIGS  =    2.430; RWIGS  =    1.286    wigner-seitz radius (au A)           
   ENMAX  =  269.532; ENMIN  =  202.149 eV                                      
   RCLOC  =    1.201    cutoff for local pot                                    
   LCOR   =        T    correct aug charges                                     
   LPAW   =        T    paw PP                                                  
   EAUG   =  544.565                                                            
   DEXC   =    0.000                                                            
   RMAX   =    2.357    core radius for proj-oper                               
   RAUG   =    1.300    factor for augmentation sphere                          
   RDEP   =    2.390    radius for radial grids                                 
   RDEPT  =    1.838    core radius for aug-charge                              
                                                                                
   Atomic configuration                                                         
    9 entries                                                                   
     n  l   j            E        occ.                                          
     1  0  0.50     -8206.4253   2.0000                                         
     2  0  0.50      -976.1748   2.0000                                         
     2  1  1.50      -839.0571   6.0000                                         
     3  0  0.50      -105.9991   2.0000                                         
     3  1  1.50       -66.4603   6.0000                                         
     3  2  2.50        -4.6458   9.0000                                         
     4  0  0.50        -4.4926   1.0000                                         
     4  1  1.50        -4.0817   0.0000                                         
     4  3  2.50        -1.3606   0.0000                                         
   Description                                                                  
     l       E           TYP  RCUT    TYP  RCUT                                 
     2     -4.6457903     23  2.300                                             
     2     -6.0063729     23  2.300                                             
     0     -4.4925590     23  2.300                                             
     0      5.0102601     23  2.300                                             
     1     -2.7211652     23  2.300                                             
     1     16.5183231     23  2.300                                             
  local pseudopotential read in
  partial core-charges read in
  partial kinetic energy density read in
  atomic valenz-charges read in
  non local Contribution for L=           2  read in
    real space projection operators read in
  non local Contribution for L=           2  read in
    real space projection operators read in
  non local Contribution for L=           0  read in
    real space projection operators read in
  non local Contribution for L=           0  read in
    real space projection operators read in
  non local Contribution for L=           1  read in
    real space projection operators read in
  non local Contribution for L=           1  read in
    real space projection operators read in
    PAW grid and wavefunctions read in
 
   number of l-projection  operators is LMAX  =           6
   number of lm-projection operators is LMMAX =          18
 
 POTCAR:    PAW_PBE Fe 06Sep2000                  
   VRHFIN =Fe:  d7 s1                                                           
   LEXCH  = PE                                                                  
   EATOM  =   594.3153 eV,   43.6809 Ry                                         
                                                                                
   TITEL  = PAW_PBE Fe 06Sep2000                                                
   LULTRA =        F    use ultrasoft PP ?                                      
   IUNSCR =        1    unscreen: 0-lin 1-nonlin 2-no                           
   RPACOR =    2.000    partial core radius                                     
   POMASS =   55.847; ZVAL   =    8.000    mass and valenz                      
   RCORE  =    2.300    outmost cutoff radius                                   
   RWIGS  =    2.460; RWIGS  =    1.302    wigner-seitz radius (au A)           
   ENMAX  =  267.882; ENMIN  =  200.911 eV                                      
   RCLOC  =    1.701    cutoff for local pot                                    
   LCOR   =        T    correct aug charges                                     
   LPAW   =        T    paw PP                                                  
   EAUG   =  511.368                                                            
   DEXC   =    0.000                                                            
   RMAX   =    2.356    core radius for proj-oper                               
   RAUG   =    1.300    factor for augmentation sphere                          
   RDEP   =    2.442    radius for radial grids                                 
   RDEPT  =    1.890    core radius for aug-charge                              
                                                                                
   Atomic configuration                                                         
    9 entries                                                                   
     n  l   j            E        occ.                                          
     1  0  0.50     -6993.8440   2.0000                                         
     2  0  0.50      -814.6047   2.0000                                         
     2  1  1.50      -693.3689   6.0000                                         
     3  0  0.50       -89.4732   2.0000                                         
     3  1  1.50       -55.6373   6.0000                                         
     3  2  2.50        -3.8151   7.0000                                         
     4  0  0.50        -4.2551   1.0000                                         
     4  1  1.50        -3.4015   0.0000                                         
     4  3  2.50        -1.3606   0.0000                                         
   Description                                                                  
     l       E           TYP  RCUT    TYP  RCUT                                 
     2     -3.8151135     23  2.300                                             
     2     -5.1756961     23  2.300                                             
     0     -4.2550963     23  2.300                                             
     0      7.2035603     23  2.300                                             
     1     -2.7211652     23  2.300                                             
     1     18.4316424     23  2.300                                             
  local pseudopotential read in
  partial core-charges read in
  partial kinetic energy density read in
  atomic valenz-charges read in
  non local Contribution for L=           2  read in
    real space projection operators read in
  non local Contribution for L=           2  read in
    real space projection operators read in
  non local Contribution for L=           0  read in
    real space projection operators read in
  non local Contribution for L=           0  read in
    real space projection operators read in
  non local Contribution for L=           1  read in
    real space projection operators read in
  non local Contribution for L=           1  read in
    real space projection operators read in
    PAW grid and wavefunctions read in
 
   number of l-projection  operators is LMAX  =           6
   number of lm-projection operators is LMMAX =          18
 
 POTCAR:    PAW_PBE Co 02Aug2007                  
   VRHFIN =Co: d8 s1                                                            
   LEXCH  = PE                                                                  
   EATOM  =   813.3670 eV,   59.7808 Ry                                         
                                                                                
   TITEL  = PAW_PBE Co 02Aug2007                                                
   LULTRA =        F    use ultrasoft PP ?                                      
   IUNSCR =        1    unscreen: 0-lin 1-nonlin 2-no                           
   RPACOR =    2.000    partial core radius                                     
   POMASS =   58.933; ZVAL   =    9.000    mass and valenz                      
   RCORE  =    2.300    outmost cutoff radius                                   
   RWIGS  =    2.460; RWIGS  =    1.302    wigner-seitz radius (au A)           
   ENMAX  =  267.968; ENMIN  =  200.976 eV                                      
   RCLOC  =    1.203    cutoff for local pot                                    
   LCOR   =        T    correct aug charges                                     
   LPAW   =        T    paw PP                                                  
   EAUG   =  477.818                                                            
   DEXC   =    0.000                                                            
   RMAX   =    2.360    core radius for proj-oper                               
   RAUG   =    1.300    factor for augmentation sphere                          
   RDEP   =    2.393    radius for radial grids                                 
   RDEPT  =    1.864    core radius for aug-charge                              
                                                                                
   Atomic configuration                                                         
    9 entries                                                                   
     n  l   j            E        occ.                                          
     1  0  0.50     -7587.6674   2.0000                                         
     2  0  0.50      -893.6084   2.0000                                         
     2  1  1.50      -764.5805   6.0000                                         
     3  0  0.50       -97.5973   2.0000                                         
     3  1  1.50       -60.9648   6.0000                                         
     3  2  2.50        -4.2382   8.0000                                         
     4  0  0.50        -4.3746   1.0000                                         
     4  1  1.50        -4.0817   0.0000                                         
     4  3  2.50        -1.3606   0.0000                                         
   Description                                                                  
     l       E           TYP  RCUT    TYP  RCUT                                 
     2     -4.2382362     23  2.300                                             
     2     -5.5988188     23  2.300                                             
     0     -4.3745797     23  2.300                                             
     0      5.7660125     23  2.300                                             
     1     -2.7211652     23  2.300                                             
     1     16.9860234     23  2.300                                             
  local pseudopotential read in
  partial core-charges read in
  partial kinetic energy density read in
  atomic valenz-charges read in
  non local Contribution for L=           2  read in
    real space projection operators read in
  non local Contribution for L=           2  read in
    real space projection operators read in
  non local Contribution for L=           0  read in
    real space projection operators read in
  non local Contribution for L=           0  read in
    real space projection operators read in
  non local Contribution for L=           1  read in
    real space projection operators read in
  non local Contribution for L=           1  read in
    real space projection operators read in
    PAW grid and wavefunctions read in
 
   number of l-projection  operators is LMAX  =           6
   number of lm-projection operators is LMMAX =          18
 
 Optimization of the real space projectors (new method)

 maximal supplied QI-value         = 14.36
 optimisation between [QCUT,QGAM] = [ 11.92, 23.98] = [ 39.79,161.09] Ry 
 Optimized for a Real-space Cutoff    1.49 Angstroem

   l    n(q)    QCUT    max X(q) W(low)/X(q) W(high)/X(q)  e(spline) 
   2     10    11.920    66.195    0.79E-04    0.18E-03    0.24E-06
   2     10    11.920    64.643    0.81E-04    0.19E-03    0.24E-06
   0     11    11.920    95.520    0.28E-04    0.54E-04    0.18E-06
   0     11    11.920    63.403    0.27E-04    0.52E-04    0.17E-06
   1     10    11.920    19.961    0.18E-04    0.11E-03    0.23E-06
   1     10    11.920    13.289    0.25E-04    0.87E-04    0.19E-06
 Optimization of the real space projectors (new method)

 maximal supplied QI-value         = 16.25
 optimisation between [QCUT,QGAM] = [ 11.86, 23.89] = [ 39.41,159.82] Ry 
 Optimized for a Real-space Cutoff    1.49 Angstroem

   l    n(q)    QCUT    max X(q) W(low)/X(q) W(high)/X(q)  e(spline) 
   2     10    11.864     4.610    0.10E-03    0.20E-03    0.29E-06
   2     10    11.864     8.522    0.17E-03    0.33E-03    0.50E-06
   0     11    11.864    51.609    0.52E-04    0.55E-04    0.33E-06
   0     11    11.864    27.747    0.46E-04    0.52E-04    0.31E-06
   1     10    11.864    20.408    0.54E-04    0.25E-04    0.21E-06
   1     10    11.864    13.425    0.48E-04    0.22E-04    0.18E-06
 Optimization of the real space projectors (new method)

 maximal supplied QI-value         = 16.25
 optimisation between [QCUT,QGAM] = [ 11.86, 23.89] = [ 39.41,159.82] Ry 
 Optimized for a Real-space Cutoff    1.33 Angstroem

   l    n(q)    QCUT    max X(q) W(low)/X(q) W(high)/X(q)  e(spline) 
   2      9    11.864    60.317    0.21E-03    0.51E-03    0.25E-06
   2      9    11.864    55.921    0.21E-03    0.51E-03    0.26E-06
   0      9    11.864    51.690    0.22E-03    0.30E-04    0.17E-06
   0      9    11.864    30.015    0.20E-03    0.28E-04    0.15E-06
   1      9    11.864    18.849    0.76E-04    0.33E-03    0.17E-06
   1      9    11.864    14.624    0.60E-04    0.28E-03    0.15E-06
 Optimization of the real space projectors (new method)

 maximal supplied QI-value         = 16.25
 optimisation between [QCUT,QGAM] = [ 11.86, 23.89] = [ 39.41,159.82] Ry 
 Optimized for a Real-space Cutoff    1.49 Angstroem

   l    n(q)    QCUT    max X(q) W(low)/X(q) W(high)/X(q)  e(spline) 
   2     10    11.864    80.901    0.13E-03    0.23E-03    0.37E-06
   2     10    11.864    75.754    0.13E-03    0.23E-03    0.38E-06
   0     11    11.864    58.752    0.44E-04    0.11E-04    0.20E-06
   0     11    11.864    30.679    0.36E-04    0.10E-04    0.18E-06
   1     10    11.864    17.977    0.31E-04    0.45E-04    0.10E-06
   1     10    11.864    13.559    0.25E-04    0.37E-04    0.89E-07
 Optimization of the real space projectors (new method)

 maximal supplied QI-value         = 16.25
 optimisation between [QCUT,QGAM] = [ 11.86, 23.89] = [ 39.41,159.82] Ry 
 Optimized for a Real-space Cutoff    1.33 Angstroem

   l    n(q)    QCUT    max X(q) W(low)/X(q) W(high)/X(q)  e(spline) 
   2      9    11.864    65.824    0.22E-03    0.53E-03    0.26E-06
   2      9    11.864    61.429    0.22E-03    0.53E-03    0.26E-06
   0      9    11.864    56.174    0.21E-03    0.32E-04    0.15E-06
   0      9    11.864    31.263    0.19E-03    0.30E-04    0.14E-06
   1      9    11.864    19.828    0.63E-04    0.30E-03    0.16E-06
   1      9    11.864    15.139    0.49E-04    0.25E-03    0.13E-06
  PAW_PBE Pt 04Feb2005                  :
 energy of atom  1       EATOM= -729.1176
 kinetic energy error for atom=    0.0021 (will be added to EATOM!!)
  PAW_PBE Cu 22Jun2005                  :
 energy of atom  2       EATOM=-1390.9808
 kinetic energy error for atom=    0.0036 (will be added to EATOM!!)
  PAW_PBE Ni 02Aug2007                  :
 energy of atom  3       EATOM=-1077.6739
 kinetic energy error for atom=    0.0027 (will be added to EATOM!!)
  PAW_PBE Fe 06Sep2000                  :
 energy of atom  4       EATOM= -594.3153
 kinetic energy error for atom=    0.0024 (will be added to EATOM!!)
  PAW_PBE Co 02Aug2007                  :
 energy of atom  5       EATOM= -813.3670
 kinetic energy error for atom=    0.0026 (will be added to EATOM!!)
 
 
 POSCAR: 10.56                                   
  positions in direct lattice
  velocities in cartesian coordinates
 exchange correlation table for  LEXCH =        8
   RHO(1)=    0.500       N(1)  =     2000
   RHO(2)=  100.500       N(2)  =     4000
 


--------------------------------------------------------------------------------------------------------


 ion  position               nearest neighbor table
   1  0.787  0.879  0.318-  49 2.62  28 2.63  19 2.63  59 2.65  33 2.65  61 2.66  29 2.67  60 2.68
                             2 2.72  11 2.77   4 2.82  12 2.85
   2  0.042  0.883  0.316-  79 2.55  77 2.59  60 2.62  30 2.65  28 2.65  52 2.66  33 2.68  22 2.69
                             1 2.72   6 2.76   4 2.84  16 2.90
   3  0.279  0.381  0.320-  39 2.56  64 2.57  33 2.59  31 2.63  19 2.70  30 2.71  43 2.71  68 2.72
                             5 2.78  13 2.80  18 2.82  25 2.85
   4  0.874  0.962  0.425-  17 2.63   9 2.63   6 2.64  11 2.64  16 2.64  12 2.65   1 2.82  60 2.82
                             2 2.84
   5  0.121  0.462  0.428-  12 2.62   7 2.63  16 2.64  10 2.64  25 2.66  13 2.67  39 2.73  33 2.73
                             3 2.78
   6  0.124  0.962  0.422-   8 2.63  10 2.64  14 2.64   4 2.64   9 2.64  16 2.65   2 2.76  52 2.78
                            22 2.87
   7  0.873  0.460  0.427-  15 2.62   9 2.63   5 2.63  10 2.64  12 2.65  27 2.65  39 2.69  75 2.77
                            29 2.80
   8  0.374  0.960  0.420-  43 2.60  14 2.61  27 2.62   6 2.63  13 2.63  10 2.64  11 2.64  52 2.69
                            61 2.73
   9  0.873  0.211  0.421-   7 2.63   4 2.63  17 2.63  15 2.63   6 2.64  10 2.66  75 2.69  60 2.72
                            22 2.81
  10  0.125  0.211  0.422-  13 2.62   5 2.64   6 2.64   8 2.64   7 2.64   9 2.66  39 2.67  43 2.72
                            22 2.78
  11  0.624  0.961  0.424-  13 2.63  12 2.64  17 2.64   4 2.64  27 2.64   8 2.64   1 2.77  19 2.83
                            61 2.84
  12  0.874  0.711  0.427-   5 2.62  11 2.64  16 2.64   7 2.65  27 2.65   4 2.65  33 2.70  29 2.82
                             1 2.85
  13  0.374  0.209  0.425-  10 2.62  11 2.63   8 2.63  17 2.65  25 2.66   5 2.67  43 2.77   3 2.80
                            19 2.83
  14  0.375  0.712  0.424-  27 2.61   8 2.61   6 2.64  15 2.65  25 2.65  16 2.66  44 2.71  30 2.77
                            52 2.78
  15  0.625  0.462  0.423-   7 2.62  27 2.63   9 2.63  14 2.65  17 2.65  25 2.65  44 2.70  75 2.73
                            18 2.76
  16  0.124  0.711  0.427-   5 2.64  25 2.64  12 2.64   4 2.64   6 2.65  14 2.66  33 2.68  30 2.83
                             2 2.90
  17  0.624  0.211  0.422-   4 2.63   9 2.63  11 2.64  25 2.65  13 2.65  15 2.65  18 2.76  60 2.78
                            19 2.85
  18  0.548  0.376  0.317-  67 2.56  60 2.59  75 2.60  44 2.65  68 2.66  26 2.66  30 2.70  19 2.73
                            17 2.76  15 2.76   3 2.82  25 2.89
  19  0.534  0.125  0.315-  80 2.55  43 2.56  68 2.57  59 2.61   1 2.63  61 2.64   3 2.70  18 2.73
                            60 2.76  13 2.83  11 2.83  17 2.85
  20  0.547  0.124  0.040-  37 2.55  57 2.56  48 2.58  62 2.64  63 2.68  47 2.68  45 2.68  56 2.70
                            34 2.71
  21  0.121  0.460  0.128-  40 2.52  36 2.53  47 2.53  42 2.60  69 2.61  64 2.62  70 2.64  50 2.64
                            58 2.67  31 2.70  57 2.71  74 2.72
  22  0.043  0.137  0.314-  65 2.51  55 2.53  77 2.57  43 2.58  39 2.58  75 2.61  60 2.68   2 2.69
                            52 2.73  10 2.78   9 2.81   6 2.87  31 3.39
  23  0.042  0.130  0.033-  70 2.58  40 2.60  41 2.61  45 2.62  62 2.64  76 2.64  24 2.69  35 2.73
                            53 2.78
  24  0.130  0.958  0.132-  79 2.51  77 2.54  35 2.57  53 2.57  55 2.58  70 2.62  38 2.64  58 2.64
                            73 2.65  23 2.69  66 2.70  41 2.72
  25  0.374  0.462  0.427-  16 2.64  17 2.65  15 2.65  14 2.65   5 2.66  13 2.66  30 2.84   3 2.85
                            18 2.89
  26  0.455  0.546  0.219-  73 2.50  74 2.54  51 2.56  79 2.61  64 2.63  30 2.65  18 2.66  68 2.67
                            78 2.67  32 2.68  67 2.72  44 2.76
  27  0.622  0.712  0.424-  14 2.61   8 2.62  15 2.63  11 2.64  12 2.65   7 2.65  44 2.69  61 2.79
                            29 2.79
  28  0.956  0.790  0.221-  58 2.57  66 2.57  50 2.58  42 2.59  49 2.61   1 2.63  64 2.63   2 2.65
                            59 2.70  33 2.72  79 2.76  77 2.77
  29  0.794  0.623  0.319-  39 2.54  42 2.56  75 2.58  32 2.62  44 2.64  33 2.65   1 2.67  61 2.67
                            49 2.68  27 2.79   7 2.80  12 2.82
  30  0.292  0.631  0.319-  79 2.57  64 2.61  52 2.61  44 2.62   2 2.65  26 2.65  33 2.66  18 2.70
                             3 2.71  14 2.77  16 2.83  25 2.84
  31  0.203  0.281  0.225-  70 2.52  55 2.56  65 2.57  43 2.60  57 2.60   3 2.63  39 2.67  80 2.70
                            21 2.70  42 2.71  68 2.75  64 2.79  22 3.39
  32  0.706  0.549  0.221-  54 2.53  69 2.56  51 2.58  49 2.59  42 2.60  29 2.62  78 2.62  65 2.63
                            26 2.68  75 2.69  67 2.70  44 2.70
  33  0.040  0.631  0.326-   3 2.59  39 2.64  29 2.65   1 2.65  30 2.66   2 2.68  16 2.68  12 2.70
                            64 2.71  28 2.72   5 2.73  42 2.73
  34  0.797  0.862  0.042-  50 2.38  66 2.51  48 2.53  36 2.55  71 2.56  63 2.61  20 2.71  35 2.76
                            62 2.76
  35  0.056  0.866  0.038-  58 2.54  72 2.55  36 2.56  24 2.57  66 2.62  53 2.65  23 2.73  62 2.73
                            34 2.76
  36  0.046  0.628  0.037-  21 2.53  34 2.55  35 2.56  58 2.58  50 2.61  47 2.63  72 2.64  40 2.69
                            71 2.72
  37  0.627  0.222  0.129-  51 2.51  74 2.51  67 2.52  56 2.53  41 2.55  20 2.55  68 2.56  59 2.56
                            62 2.59  66 2.66  57 2.73  48 2.89
  38  0.382  0.955  0.130-  53 2.47  80 2.48  45 2.49  78 2.53  48 2.54  73 2.55  63 2.55  54 2.56
                            55 2.59  57 2.62  24 2.64  70 2.67
  39  0.035  0.384  0.325-  29 2.54   3 2.56  22 2.58  75 2.59  33 2.64  42 2.66  31 2.67  10 2.67
                             7 2.69   5 2.73  65 2.76
  40  0.031  0.382  0.038-  69 2.44  21 2.52  71 2.53  76 2.56  70 2.57  23 2.60  36 2.69  45 2.78
                            47 2.78
  41  0.872  0.215  0.128-  76 2.45  65 2.52  77 2.53  67 2.54  37 2.55  69 2.57  62 2.57  51 2.59
                            23 2.61  70 2.65  66 2.66  24 2.72
  42  0.955  0.545  0.224-  50 2.56  29 2.56  28 2.59  21 2.60  32 2.60  69 2.61  49 2.63  65 2.64
                            64 2.65  39 2.66  31 2.71  33 2.73
  43  0.296  0.116  0.321-  52 2.53  55 2.54  61 2.56  19 2.56  22 2.58  31 2.60   8 2.60  80 2.66
                             3 2.71  10 2.72  13 2.77
  44  0.540  0.630  0.322-  61 2.56  52 2.58  30 2.62  78 2.64  29 2.64  18 2.65  75 2.66  27 2.69
                            15 2.70  32 2.70  14 2.71  26 2.76
  45  0.295  0.119  0.039-  70 2.49  38 2.49  57 2.57  53 2.60  23 2.62  63 2.64  20 2.68  47 2.75
                            40 2.78
  46  0.548  0.625  0.044-  51 2.38  73 2.39  54 2.41  71 2.56  53 2.56  63 2.58  76 2.59  56 2.62
                            72 2.64
  47  0.296  0.379  0.039-  74 2.41  21 2.53  57 2.61  72 2.61  56 2.62  36 2.63  20 2.68  45 2.75
                            40 2.78
  48  0.625  0.950  0.132-  49 2.40  80 2.48  54 2.48  34 2.53  38 2.54  59 2.55  50 2.56  63 2.57
                            20 2.58  57 2.65  66 2.68  37 2.89
  49  0.706  0.794  0.220-  48 2.40  50 2.48  54 2.49  80 2.53  32 2.59  28 2.61  78 2.61   1 2.62
                            61 2.63  42 2.63  29 2.68  59 2.69
  50  0.866  0.706  0.129-  34 2.38  71 2.42  54 2.48  49 2.48  42 2.56  48 2.56  69 2.58  28 2.58
                            36 2.61  21 2.64  66 2.76  58 2.85
  51  0.626  0.460  0.127-  46 2.38  76 2.45  37 2.51  56 2.52  26 2.56  32 2.58  41 2.59  73 2.60
                            69 2.62  74 2.62  67 2.63  54 2.69
  52  0.297  0.876  0.318-  55 2.43  61 2.53  78 2.53  43 2.53  79 2.54  44 2.58  30 2.61   2 2.66
                             8 2.69  22 2.73  14 2.78   6 2.78
  53  0.306  0.868  0.040-  73 2.42  38 2.47  63 2.55  46 2.56  24 2.57  45 2.60  72 2.61  35 2.65
                            23 2.78
  54  0.627  0.715  0.128-  46 2.41  71 2.46  50 2.48  48 2.48  63 2.48  49 2.49  32 2.53  38 2.56
                            73 2.56  78 2.62  69 2.68  51 2.69
  55  0.224  0.028  0.227-  52 2.43  78 2.45  79 2.49  80 2.53  22 2.53  43 2.54  31 2.56  24 2.58
                            38 2.59  77 2.72  70 2.72  65 2.86
  56  0.543  0.381  0.035-  74 2.50  51 2.52  37 2.53  72 2.59  76 2.60  46 2.62  47 2.62  20 2.70
                            62 2.70
  57  0.378  0.205  0.133-  68 2.46  80 2.54  20 2.56  45 2.57  31 2.60  47 2.61  38 2.62  74 2.62
                            70 2.64  48 2.65  21 2.71  37 2.73
  58  0.136  0.705  0.132-  72 2.47  64 2.52  35 2.54  79 2.57  28 2.57  36 2.58  74 2.64  24 2.64
                            73 2.67  21 2.67  66 2.76  50 2.85
  59  0.705  0.050  0.220-  66 2.52  48 2.55  37 2.56  68 2.58  67 2.58  19 2.61  60 2.62   1 2.65
                            77 2.66  80 2.67  49 2.69  28 2.70
  60  0.792  0.130  0.317-  67 2.52  77 2.58  18 2.59  59 2.62   2 2.62  75 2.63   1 2.68  22 2.68
                             9 2.72  19 2.76  17 2.78   4 2.82
  61  0.538  0.873  0.317-  78 2.49  52 2.53  80 2.53  44 2.56  43 2.56  49 2.63  19 2.64   1 2.66
                            29 2.67   8 2.73  27 2.79  11 2.84
  62  0.797  0.123  0.035-  66 2.54  41 2.57  37 2.59  23 2.64  20 2.64  76 2.66  56 2.70  35 2.73
                            34 2.76
  63  0.546  0.870  0.036-  54 2.48  53 2.55  38 2.55  48 2.57  46 2.58  34 2.61  71 2.61  45 2.64
                            20 2.68
  64  0.207  0.543  0.224-  58 2.52   3 2.57  30 2.61  21 2.62  26 2.63  28 2.63  68 2.65  42 2.65
                            74 2.68  33 2.71  79 2.72  31 2.79
  65  0.952  0.297  0.221-  22 2.51  41 2.52  69 2.52  67 2.54  77 2.55  31 2.57  70 2.60  75 2.62
                            32 2.63  42 2.64  39 2.76  55 2.86
  66  0.872  0.964  0.129-  34 2.51  59 2.52  62 2.54  28 2.57  77 2.58  35 2.62  37 2.66  41 2.66
                            48 2.68  24 2.70  50 2.76  58 2.76
  67  0.714  0.290  0.223-  37 2.52  60 2.52  77 2.53  65 2.54  41 2.54  18 2.56  59 2.58  75 2.63
                            51 2.63  32 2.70  68 2.70  26 2.72
  68  0.458  0.291  0.221-  57 2.46  74 2.54  37 2.56  19 2.57  59 2.58  64 2.65  18 2.66  26 2.67
                            67 2.70   3 2.72  80 2.73  31 2.75
  69  0.876  0.457  0.128-  40 2.44  71 2.45  76 2.46  65 2.52  32 2.56  41 2.57  50 2.58  21 2.61
                            42 2.61  51 2.62  70 2.65  54 2.68
  70  0.128  0.207  0.129-  45 2.49  31 2.52  40 2.57  23 2.58  65 2.60  24 2.62  57 2.64  21 2.64
                            69 2.65  41 2.65  38 2.67  55 2.72
  71  0.792  0.622  0.040-  50 2.42  69 2.45  54 2.46  40 2.53  46 2.56  34 2.56  76 2.59  63 2.61
                            36 2.72
  72  0.298  0.625  0.042-  74 2.44  58 2.47  73 2.49  35 2.55  56 2.59  53 2.61  47 2.61  36 2.64
                            46 2.64
  73  0.386  0.711  0.129-  46 2.39  53 2.42  72 2.49  26 2.50  78 2.55  38 2.55  54 2.56  51 2.60
                            79 2.63  24 2.65  58 2.67  74 2.76
  74  0.382  0.452  0.126-  47 2.41  72 2.44  56 2.50  37 2.51  68 2.54  26 2.54  51 2.62  57 2.62
                            58 2.64  64 2.68  21 2.72  73 2.76
  75  0.793  0.379  0.320-  29 2.58  39 2.59  18 2.60  22 2.61  65 2.62  67 2.63  60 2.63  44 2.66
                            32 2.69   9 2.69  15 2.73   7 2.77
  76  0.791  0.377  0.039-  51 2.45  41 2.45  69 2.46  40 2.56  71 2.59  46 2.59  56 2.60  23 2.64
                            62 2.66
  77  0.956  0.053  0.221-  67 2.53  41 2.53  24 2.54  65 2.55  22 2.57  66 2.58  60 2.58   2 2.59
                            59 2.66  79 2.71  55 2.72  28 2.77
  78  0.458  0.797  0.224-  55 2.45  61 2.49  80 2.49  52 2.53  38 2.53  73 2.55  79 2.58  49 2.61
                            54 2.62  32 2.62  44 2.64  26 2.67
  79  0.213  0.798  0.225-  55 2.49  24 2.51  52 2.54   2 2.55  58 2.57  30 2.57  78 2.58  26 2.61
                            73 2.63  77 2.71  64 2.72  28 2.76
  80  0.462  0.030  0.222-  38 2.48  48 2.48  78 2.49  61 2.53  55 2.53  49 2.53  57 2.54  19 2.55
                            43 2.66  59 2.67  31 2.70  68 2.73
 
  LATTYP: Found a hexagonal cell.
 ALAT       =    10.5600004196
 C/A-ratio  =     2.0833332505
  
  Lattice vectors:
  
 A1 = (   5.2800002098,  -9.1452286274,   0.0000000000)
 A2 = ( -10.5600004196,   0.0000000000,   0.0000000000)
 A3 = (   0.0000000000,   0.0000000000, -22.0000000000)


Analysis of symmetry for initial positions (statically):
=====================================================================
 Subroutine PRICEL returns:
 Original cell was already a primitive cell.
 

 Routine SETGRP: Setting up the symmetry group for a 
 hexagonal supercell.


 Subroutine GETGRP returns: Found  1 space group operations
 (whereof  1 operations were pure point group operations)
 out of a pool of 24 trial point group operations.


The static configuration has the point symmetry C_1 .


Analysis of symmetry for dynamics (positions and initial velocities):
=====================================================================
 Subroutine PRICEL returns:
 Original cell was already a primitive cell.
 

 Routine SETGRP: Setting up the symmetry group for a 
 hexagonal supercell.


 Subroutine GETGRP returns: Found  1 space group operations
 (whereof  1 operations were pure point group operations)
 out of a pool of 24 trial point group operations.


The dynamic configuration has the point symmetry C_1 .


Analysis of structural, dynamic, and magnetic symmetry:
=====================================================================
 Subroutine PRICEL returns:
 Original cell was already a primitive cell.
 

 Routine SETGRP: Setting up the symmetry group for a 
 hexagonal supercell.


 Subroutine GETGRP returns: Found  1 space group operations
 (whereof  1 operations were pure point group operations)
 out of a pool of 24 trial point group operations.


The magnetic configuration has the point symmetry C_1 .


 Subroutine INISYM returns: Found  1 space group operations
 (whereof  1 operations are pure point group operations),
 and found     1 'primitive' translations

 
 
 KPOINTS: mesh auto                               

Automatic generation of k-mesh.
Space group operators:
 irot       det(A)        alpha          n_x          n_y          n_z        tau_x        tau_y        tau_z
    1     1.000000     0.000001     1.000000     0.000000     0.000000     0.000000     0.000000     0.000000
 
 Subroutine IBZKPT returns following result:
 ===========================================
 
 Found      4 irreducible k-points:
 
 Following reciprocal coordinates:
            Coordinates               Weight
  0.000000  0.000000  0.000000      1.000000
  0.500000  0.000000  0.000000      1.000000
  0.000000  0.500000  0.000000      1.000000
  0.500000  0.500000  0.000000      1.000000
 
 Following cartesian coordinates:
            Coordinates               Weight
  0.000000  0.000000  0.000000      1.000000
  0.047348 -0.027337  0.000000      1.000000
  0.000000  0.054673  0.000000      1.000000
  0.047348  0.027337  0.000000      1.000000
 


--------------------------------------------------------------------------------------------------------




 Dimension of arrays:
   k-points           NKPTS =      4   k-points in BZ     NKDIM =      4   number of bands    NBANDS=    590
   number of dos      NEDOS =    301   number of ions     NIONS =     80
   non local maximal  LDIM  =      6   non local SUM 2l+1 LMDIM =     18
   total plane-waves  NPLWV = ******
   max r-space proj   IRMAX =   7802   max aug-charges    IRDMAX=  33988
   dimension x,y,z NGX =    84 NGY =   84 NGZ =  168
   dimension x,y,z NGXF=   168 NGYF=  168 NGZF=  336
   support grid    NGXF=   168 NGYF=  168 NGZF=  336
   ions per type =              32  13  10  13  12
   NGX,Y,Z   is equivalent  to a cutoff of  13.22, 13.22, 12.70 a.u.
   NGXF,Y,Z  is equivalent  to a cutoff of  26.45, 26.45, 25.39 a.u.

 SYSTEM =  Pt111                                   
 POSCAR =  10.56                                   

 Startparameter for this run:
   NWRITE =      2    write-flag & timer
   PREC   = accura    normal or accurate (medium, high low for compatibility)
   ISTART =      0    job   : 0-new  1-cont  2-samecut
   ICHARG =      2    charge: 1-file 2-atom 10-const
   ISPIN  =      2    spin polarized calculation?
   LNONCOLLINEAR =      F non collinear calculations
   LSORBIT =      F    spin-orbit coupling
   INIWAV =      1    electr: 0-lowe 1-rand  2-diag
   LASPH  =      F    aspherical Exc in radial PAW
   METAGGA=      F    non-selfconsistent MetaGGA calc.

 Electronic Relaxation 1
   ENCUT  =  550.0 eV  40.42 Ry    6.36 a.u.  20.19 20.19 42.07*2*pi/ulx,y,z
   ENINI  =  550.0     initial cutoff
   ENAUG  =  587.0 eV  augmentation charge cutoff
   NELM   =    200;   NELMIN=  2; NELMDL= -5     # of ELM steps 
   EDIFF  = 0.1E-04   stopping-criterion for ELM
   LREAL  =      T    real-space projection
   NLSPLINE    = F    spline interpolate recip. space projectors
   LCOMPAT=      F    compatible to vasp.4.4
   GGA_COMPAT  = T    GGA compatible to vasp.4.4-vasp.4.6
   LMAXPAW     = -100 max onsite density
   LMAXMIX     =    2 max onsite mixed and CHGCAR
   VOSKOWN=      0    Vosko Wilk Nusair interpolation
   ROPT   =   -0.00025  -0.00025  -0.00025  -0.00025
   ROPT   =   -0.00025
 Ionic relaxation
   EDIFFG = -.5E-01   stopping-criterion for IOM
   NSW    =    300    number of steps for IOM
   NBLOCK =      1;   KBLOCK =    300    inner block; outer block 
   IBRION =      2    ionic relax: 0-MD 1-quasi-New 2-CG
   NFREE  =      1    steps in history (QN), initial steepest desc. (CG)
   ISIF   =      2    stress and relaxation
   IWAVPR =     11    prediction:  0-non 1-charg 2-wave 3-comb
   ISYM   =      2    0-nonsym 1-usesym 2-fastsym
   LCORR  =      T    Harris-Foulkes like correction to forces

   POTIM  = 0.5000    time-step for ionic-motion
   TEIN   =    0.0    initial temperature
   TEBEG  =    0.0;   TEEND  =   0.0 temperature during run
   SMASS  =  -3.00    Nose mass-parameter (am)
   estimated Nose-frequenzy (Omega)   =  0.10E-29 period in steps =****** mass=  -0.255E-26a.u.
   SCALEE = 1.0000    scale energy and forces
   NPACO  =    256;   APACO  = 16.0  distance and # of slots for P.C.
   PSTRESS=    0.0 pullay stress

  Mass of Ions in am
   POMASS = 195.08 63.55 58.69 55.85 58.93
  Ionic Valenz
   ZVAL   =  10.00 11.00 10.00  8.00  9.00
  Atomic Wigner-Seitz radii
   RWIGS  =  -1.00 -1.00 -1.00 -1.00 -1.00
  virtual crystal weights 
   VCA    =   1.00  1.00  1.00  1.00  1.00
   NELECT =     775.0000    total number of electrons
   NUPDOWN=      -1.0000    fix difference up-down

 DOS related values:
   EMIN   =  10.00;   EMAX   =-10.00  energy-range for DOS
   EFERMI =   0.00
   ISMEAR =     1;   SIGMA  =   0.10  broadening in eV -4-tet -1-fermi 0-gaus

 Electronic relaxation 2 (details)
   IALGO  =     68    algorithm
   LDIAG  =      T    sub-space diagonalisation (order eigenvalues)
   LSUBROT=      F    optimize rotation matrix (better conditioning)
   TURBO    =      0    0=normal 1=particle mesh
   IRESTART =      0    0=no restart 2=restart with 2 vectors
   NREBOOT  =      0    no. of reboots
   NMIN     =      0    reboot dimension
   EREF     =   0.00    reference energy to select bands
   IMIX   =      4    mixing-type and parameters
     AMIX     =   0.40;   BMIX     =  1.00
     AMIX_MAG =   1.60;   BMIX_MAG =  1.00
     AMIN     =   0.10
     WC   =   100.;   INIMIX=   1;  MIXPRE=   1;  MAXMIX= -45

 Intra band minimization:
   WEIMIN = 0.0010     energy-eigenvalue tresh-hold
   EBREAK =  0.42E-08  absolut break condition
   DEPER  =   0.30     relativ break condition  

   TIME   =   0.40     timestep for ELM

  volume/ion in A,a.u.               =      26.56       179.22
  Fermi-wavevector in a.u.,A,eV,Ry     =   1.169719  2.210449 18.616081  1.368243
  Thomas-Fermi vector in A             =   2.306188
 
 Write flags
   LWAVE        =      F    write WAVECAR
   LDOWNSAMPLE  =      F    k-point downsampling of WAVECAR
   LCHARG       =      F    write CHGCAR
   LVTOT        =      F    write LOCPOT, total local potential
   LVHAR        =      F    write LOCPOT, Hartree potential only
   LELF         =      F    write electronic localiz. function (ELF)
   LORBIT       =      0    0 simple, 1 ext, 2 COOP (PROOUT), +10 PAW based schemes


 Dipole corrections
   LMONO  =      F    monopole corrections only (constant potential shift)
   LDIPOL =      F    correct potential (dipole corrections)
   IDIPOL =      0    1-x, 2-y, 3-z, 4-all directions 
   EPSILON=  1.0000000 bulk dielectric constant

 Exchange correlation treatment:
   GGA     =    --    GGA type
   LEXCH   =     8    internal setting for exchange type
   VOSKOWN=      0    Vosko Wilk Nusair interpolation
   LHFCALC =     F    Hartree Fock is set to
   LHFONE  =     F    Hartree Fock one center treatment
   AEXX    =    0.0000 exact exchange contribution

 Linear response parameters
   LEPSILON=     F    determine dielectric tensor
   LRPA    =     F    only Hartree local field effects (RPA)
   LNABLA  =     F    use nabla operator in PAW spheres
   LVEL    =     F    velocity operator in full k-point grid
   LINTERFAST=   F  fast interpolation
   KINTER  =     0    interpolate to denser k-point grid
   CSHIFT  =0.1000    complex shift for real part using Kramers Kronig
   OMEGAMAX=  -1.0    maximum frequency
   DEG_THRESHOLD= 0.2000000E-02 threshold for treating states as degnerate
   RTIME   =   -0.100 relaxation time in fs
  (WPLASMAI=    0.000 imaginary part of plasma frequency in eV, 0.658/RTIME)
   DFIELD  = 0.0000000 0.0000000 0.0000000 field for delta impulse in time
 
 Orbital magnetization related:
   ORBITALMAG=     F  switch on orbital magnetization
   LCHIMAG   =     F  perturbation theory with respect to B field
   DQ        =  0.001000  dq finite difference perturbation B field
   LLRAUG    =     F  two centre corrections for induced B field



--------------------------------------------------------------------------------------------------------


 conjugate gradient relaxation of ions
 charge density and potential will be updated during run
 spin polarized calculation
 RMM-DIIS sequential band-by-band and
  variant of blocked Davidson during initial phase
 perform sub-space diagonalisation
    before iterative eigenvector-optimisation
 modified Broyden-mixing scheme, WC =      100.0
 initial mixing is a Kerker type mixing with AMIX =  0.4000 and BMIX =      1.0000
 Hartree-type preconditioning will be used
 using additional bands          202
 real space projection scheme for non local part
 use partial core corrections
 calculate Harris-corrections to forces 
   (improved forces if not selfconsistent)
 use gradient corrections 
 use of overlap-Matrix (Vanderbilt PP)
 Methfessel and Paxton  Order N= 1 SIGMA  =   0.10


--------------------------------------------------------------------------------------------------------


  energy-cutoff  :      550.00
  volume of cell :     2124.62
      direct lattice vectors                 reciprocal lattice vectors
    10.560000420  0.000000000  0.000000000     0.094696966 -0.054673319  0.000000000
     5.280000210  9.145228627  0.000000000     0.000000000  0.109346638  0.000000000
     0.000000000  0.000000000 22.000000000     0.000000000  0.000000000  0.045454545

  length of vectors
    10.560000420 10.560000420 22.000000000     0.109346638  0.109346638  0.045454545


 
 k-points in units of 2pi/SCALE and weight: mesh auto                               
   0.00000000  0.00000000  0.00000000       0.250
   0.04734848 -0.02733666  0.00000000       0.250
   0.00000000  0.05467332  0.00000000       0.250
   0.04734848  0.02733666  0.00000000       0.250
 
 k-points in reciprocal lattice and weights: mesh auto                               
   0.00000000  0.00000000  0.00000000       0.250
   0.50000000  0.00000000  0.00000000       0.250
   0.00000000  0.50000000  0.00000000       0.250
   0.50000000  0.50000000  0.00000000       0.250
 
 position of ions in fractional coordinates (direct lattice) 
   0.78669556  0.87920450  0.31758086
   0.04183086  0.88307595  0.31587915
   0.27891865  0.38122355  0.31974604
   0.87371655  0.96213214  0.42456763
   0.12142752  0.46247546  0.42800954
   0.12401796  0.96156250  0.42182788
   0.87347514  0.46009624  0.42666903
   0.37409071  0.96017753  0.42048615
   0.87330902  0.21140380  0.42060400
   0.12488153  0.21109121  0.42240176
   0.62395275  0.96107012  0.42397943
   0.87355733  0.71107503  0.42671157
   0.37407443  0.20943558  0.42501905
   0.37477362  0.71238788  0.42437186
   0.62502331  0.46156681  0.42284344
   0.12355351  0.71125309  0.42661437
   0.62440719  0.21071785  0.42191076
   0.54803313  0.37607494  0.31721155
   0.53392003  0.12483167  0.31494713
   0.54700026  0.12353325  0.03994180
   0.12080895  0.46017830  0.12803950
   0.04292154  0.13711904  0.31399246
   0.04244149  0.13021000  0.03298030
   0.13048322  0.95798537  0.13183245
   0.37393789  0.46167844  0.42690961
   0.45454095  0.54571928  0.21885182
   0.62222710  0.71156337  0.42413984
   0.95571501  0.79013093  0.22104486
   0.79364569  0.62288077  0.31914115
   0.29151478  0.63143722  0.31858210
   0.20263023  0.28057175  0.22546492
   0.70645161  0.54939058  0.22075077
   0.04007571  0.63134662  0.32562024
   0.79731809  0.86162656  0.04207609
   0.05609859  0.86571859  0.03774080
   0.04641287  0.62819901  0.03699114
   0.62737558  0.22224168  0.12875060
   0.38211413  0.95500403  0.12988305
   0.03529669  0.38395565  0.32452215
   0.03114053  0.38167600  0.03750461
   0.87224044  0.21539432  0.12829500
   0.95471211  0.54518808  0.22389055
   0.29634776  0.11593812  0.32141240
   0.53979017  0.63047626  0.32232065
   0.29525378  0.11938697  0.03940923
   0.54825113  0.62531765  0.04365578
   0.29553136  0.37948250  0.03889216
   0.62548736  0.94995762  0.13208615
   0.70634189  0.79434825  0.22010408
   0.86572308  0.70559157  0.12880862
   0.62619676  0.46010837  0.12710353
   0.29749943  0.87578041  0.31794884
   0.30581838  0.86812735  0.04029659
   0.62671135  0.71465279  0.12827184
   0.22389857  0.02823957  0.22731031
   0.54269301  0.38102257  0.03461701
   0.37824999  0.20530955  0.13259126
   0.13618402  0.70497383  0.13178299
   0.70486941  0.05028396  0.22036332
   0.79245444  0.13008695  0.31687985
   0.53785102  0.87333055  0.31679839
   0.79655062  0.12311547  0.03453465
   0.54614634  0.87048754  0.03589640
   0.20722235  0.54282065  0.22417055
   0.95151324  0.29672189  0.22129229
   0.87185770  0.96385702  0.12897658
   0.71421099  0.29004436  0.22334568
   0.45764413  0.29147175  0.22083053
   0.87581008  0.45650690  0.12794668
   0.12769165  0.20692390  0.12876336
   0.79229095  0.62176839  0.04024823
   0.29784859  0.62540744  0.04208964
   0.38567508  0.71146547  0.12891873
   0.38207648  0.45160905  0.12649526
   0.79250693  0.37924620  0.32032212
   0.79092480  0.37725959  0.03945628
   0.95559961  0.05293444  0.22143250
   0.45755740  0.79715593  0.22440887
   0.21315004  0.79768722  0.22457904
   0.46239859  0.03021630  0.22200270
 
 position of ions in cartesian coordinates  (Angst):
  12.94970538  8.04052614  6.98677898
   5.10437506  8.07593146  6.94934120
   4.95824147  3.48637651  7.03441285
  14.30650505  8.79891842  9.34048791
   3.72414518  4.22944380  9.41620988
   6.38667992  8.79370895  9.28021338
  11.65320602  4.20768527  9.38671876
   9.02013560  8.78104305  9.25069535
  10.33835575  1.93333607  9.25328798
   2.43331068  1.93047742  9.29283878
  11.66339179  8.78920601  9.32754739
  12.97924204  6.50294373  9.38765451
   5.05604608  1.91533630  9.35041913
   7.71901780  6.51495006  9.33618100
   9.03731923  4.22113398  9.30255571
   5.06014158  6.50457208  9.38551620
   7.70633048  1.92706295  9.28203675
   7.77290585  3.43929134  6.97865399
   6.29730706  1.14161420  6.92883693
   6.42857854  1.12973983  0.87871960
   3.70548407  4.20843578  2.81686897
   1.17724004  1.25398494  6.90783401
   1.13569097  1.19080020  0.72556650
   6.43606578  8.76099519  2.90031393
   6.38644655  4.22215489  9.39201136
   7.68135056  4.99072754  4.81474005
  10.32777312  6.50740968  9.33107658
  14.26424239  7.22592798  4.86298700
  11.66970940  5.69638708  7.02110527
   6.41238482  5.77463772  7.00880622
   3.62119418  2.56589278  4.96022829
  10.36091172  5.02430245  4.85651690
   3.75670977  5.77380920  7.16364523
  12.96906778  7.87977186  0.92567400
   5.16339550  7.91719447  0.83029765
   3.80701088  5.74502359  0.81380504
   7.79852245  2.03245096  2.83251312
   9.07754686  8.73373018  2.85742705
   2.40001897  3.51136218  7.13948724
   2.34409331  3.49051425  0.82510140
  10.34814148  1.96983035  2.82248993
  12.96035349  4.98586960  4.92559202
   3.74158572  1.06028062  7.07107277
   9.02909920  5.76584956  7.09105434
   3.74824325  1.09182115  0.86700304
   9.09120953  5.71867289  0.96042722
   5.12447898  3.47045423  0.85562744
  11.62092318  8.68757958  2.90589533
  11.65312961  7.26449633  4.84228978
  12.86755974  6.45279623  2.83378953
   9.04201027  4.20779619  2.79627770
   7.76571491  8.00921211  6.99487453
   7.81315482  7.93922313  0.88652503
  10.39143898  6.53566319  2.82198042
   2.51347389  0.25825733  5.00082675
   7.74263770  3.48453850  0.76157429
   5.07835445  1.87760273  2.91700770
   5.16036530  6.44714688  2.89922570
   7.70892058  0.45985829  4.84799308
   9.05517838  1.18967487  6.97135665
  10.29089251  7.98680755  6.96956452
   9.06162455  1.12591908  0.75976228
  10.36347996  7.96080760  0.78972076
   5.05436124  4.96421897  4.93175206
  11.61467189  2.71358951  4.86843040
  14.29598293  8.81469279  2.83748465
   9.07350258  2.65252196  4.91360499
   6.37169315  2.66557579  4.85827162
  11.65891135  4.17485993  2.81482702
   2.44098212  1.89236634  2.83279397
  11.64953004  5.68621407  0.88546096
   6.44743266  5.71949403  0.92597203
   7.82926683  6.50651440  2.83621200
   6.41922371  4.13006800  2.78289578
  10.37129351  3.46829316  7.04708660
  10.34409694  3.45012521  0.86803825
  10.37062613  0.48409754  4.87151493
   9.04078979  7.29017323  4.93699507
   6.46265315  7.29503196  4.94073890
   5.04247138  0.27633499  4.88405930
 


--------------------------------------------------------------------------------------------------------


 k-point  1 :   0.0000 0.0000 0.0000  plane waves:   62167
 k-point  2 :   0.5000 0.0000 0.0000  plane waves:   62242
 k-point  3 :   0.0000 0.5000 0.0000  plane waves:   62242
 k-point  4 :   0.5000 0.5000 0.0000  plane waves:   62242

 maximum and minimum number of plane-waves per node :     15586    15521

 maximum number of plane-waves:     62242
 maximum index in each direction: 
   IXMAX=   20   IYMAX=   20   IZMAX=   42
   IXMIN=  -20   IYMIN=  -20   IZMIN=  -42


 real space projection operators:
  total allocation   :      77667.19 KBytes
  max/ min on nodes  :      19443.23      19395.14


 parallel 3D FFT for wavefunctions:
    minimum data exchange during FFTs selected (reduces bandwidth)
 parallel 3D FFT for charge:
    minimum data exchange during FFTs selected (reduces bandwidth)


 total amount of memory used by VASP MPI-rank0   256601. kBytes
=======================================================================

   base      :      30000. kBytes
   nonlr-proj:      34525. kBytes
   fftplans  :      17962. kBytes
   grid      :      53265. kBytes
   one-center:        622. kBytes
   wavefun   :     120227. kBytes
 
     INWAV:  cpu time    0.0000: real time    0.0000
 Broyden mixing: mesh for mixing (old mesh)
   NGX = 41   NGY = 41   NGZ = 85
  (NGX  =168   NGY  =168   NGZ  =336)
  gives a total of 142885 points

 initial charge density was supplied:
 charge density of overlapping atoms calculated
 number of electron     775.0000000 magnetization     233.0000000
 keeping initial charge density in first step


--------------------------------------------------------------------------------------------------------


 Maximum index for non-local projection operator         1903
 Maximum index for augmentation-charges         2095 (set IRDMAX)


--------------------------------------------------------------------------------------------------------


 First call to EWALD:  gamma=   0.138
 Maximum number of real-space cells 4x 4x 2
 Maximum number of reciprocal cells 2x 2x 4

    FEWALD:  cpu time    0.0037: real time    0.0037


--------------------------------------- Iteration      1(   1)  ---------------------------------------


    POTLOK:  cpu time    0.4094: real time    0.4490
    SETDIJ:  cpu time    0.0308: real time    0.0310
     EDDAV:  cpu time   67.4543: real time   67.6928
       DOS:  cpu time    0.0018: real time    0.0019
    --------------------------------------------
      LOOP:  cpu time   67.8963: real time   68.1747

 eigenvalue-minimisations  :  9440
 total energy-change (2. order) : 0.7874785E+04  (-0.3277566E+05)
 number of electron     775.0000000 magnetization     233.0000000
 augmentation part      775.0000000 magnetization     233.0000000

 Free energy of the ion-electron system (eV)
  ---------------------------------------------------
  alpha Z        PSCENC =      2226.57182236
  Ewald energy   TEWEN  =    217762.78443860
  -Hartree energ DENC   =   -289465.51017096
  -exchange      EXHF   =         0.00000000
  -V(xc)+E(xc)   XCENC  =      1356.98550008
  PAW double counting   =     63649.17337996   -65523.39033226
  entropy T*S    EENTRO =        -0.00644240
  eigenvalues    EBANDS =      8190.62290767
  atomic energy  EATOM  =     69677.55355740
  Solvation  Ediel_sol  =         0.00000000
  ---------------------------------------------------
  free energy    TOTEN  =      7874.78466046 eV

  energy without entropy =     7874.79110286  energy(sigma->0) =     7874.78680793


--------------------------------------------------------------------------------------------------------




--------------------------------------- Iteration      1(   2)  ---------------------------------------


     EDDAV:  cpu time   67.1350: real time   67.3194
       DOS:  cpu time    0.0018: real time    0.0018
    --------------------------------------------
      LOOP:  cpu time   67.1368: real time   67.3212

 eigenvalue-minimisations  :  9440
 total energy-change (2. order) :-0.7029069E+04  (-0.6276250E+04)
 number of electron     775.0000000 magnetization     233.0000000
 augmentation part      775.0000000 magnetization     233.0000000

 Free energy of the ion-electron system (eV)
  ---------------------------------------------------
  alpha Z        PSCENC =      2226.57182236
  Ewald energy   TEWEN  =    217762.78443860
  -Hartree energ DENC   =   -289465.51017096
  -exchange      EXHF   =         0.00000000
  -V(xc)+E(xc)   XCENC  =      1356.98550008
  PAW double counting   =     63649.17337996   -65523.39033226
  entropy T*S    EENTRO =         0.00652050
  eigenvalues    EBANDS =      1161.54065245
  atomic energy  EATOM  =     69677.55355740
  Solvation  Ediel_sol  =         0.00000000
  ---------------------------------------------------
  free energy    TOTEN  =       845.71536814 eV

  energy without entropy =      845.70884764  energy(sigma->0) =      845.71319464


--------------------------------------------------------------------------------------------------------




--------------------------------------- Iteration      1(   3)  ---------------------------------------


     EDDAV:  cpu time   67.2961: real time   67.4821
       DOS:  cpu time    0.0020: real time    0.0020
    --------------------------------------------
      LOOP:  cpu time   67.2981: real time   67.4841

 eigenvalue-minimisations  :  9440
 total energy-change (2. order) :-0.1219982E+04  (-0.9857007E+03)
 number of electron     775.0000000 magnetization     233.0000000
 augmentation part      775.0000000 magnetization     233.0000000

 Free energy of the ion-electron system (eV)
  ---------------------------------------------------
  alpha Z        PSCENC =      2226.57182236
  Ewald energy   TEWEN  =    217762.78443860
  -Hartree energ DENC   =   -289465.51017096
  -exchange      EXHF   =         0.00000000
  -V(xc)+E(xc)   XCENC  =      1356.98550008
  PAW double counting   =     63649.17337996   -65523.39033226
  entropy T*S    EENTRO =         0.00520061
  eigenvalues    EBANDS =       -58.43968102
  atomic energy  EATOM  =     69677.55355740
  Solvation  Ediel_sol  =         0.00000000
  ---------------------------------------------------
  free energy    TOTEN  =      -374.26628522 eV

  energy without entropy =     -374.27148584  energy(sigma->0) =     -374.26801876


--------------------------------------------------------------------------------------------------------




--------------------------------------- Iteration      1(   4)  ---------------------------------------


     EDDAV:  cpu time   79.4056: real time   79.6242
       DOS:  cpu time    0.0021: real time    0.0021
    --------------------------------------------
      LOOP:  cpu time   79.4077: real time   79.6263

 eigenvalue-minimisations  : 11720
 total energy-change (2. order) :-0.1170257E+03  (-0.1074812E+03)
 number of electron     775.0000000 magnetization     233.0000000
 augmentation part      775.0000000 magnetization     233.0000000

 Free energy of the ion-electron system (eV)
  ---------------------------------------------------
  alpha Z        PSCENC =      2226.57182236
  Ewald energy   TEWEN  =    217762.78443860
  -Hartree energ DENC   =   -289465.51017096
  -exchange      EXHF   =         0.00000000
  -V(xc)+E(xc)   XCENC  =      1356.98550008
  PAW double counting   =     63649.17337996   -65523.39033226
  entropy T*S    EENTRO =         0.00447903
  eigenvalues    EBANDS =      -175.46465156
  atomic energy  EATOM  =     69677.55355740
  Solvation  Ediel_sol  =         0.00000000
  ---------------------------------------------------
  free energy    TOTEN  =      -491.29197734 eV

  energy without entropy =     -491.29645637  energy(sigma->0) =     -491.29347035


--------------------------------------------------------------------------------------------------------




--------------------------------------- Iteration      1(   5)  ---------------------------------------


     EDDAV:  cpu time   76.6804: real time   77.0213
       DOS:  cpu time    0.0022: real time    0.0022
    CHARGE:  cpu time    4.2672: real time    4.2806
    MIXING:  cpu time    0.0086: real time    0.0093
    --------------------------------------------
      LOOP:  cpu time   80.9584: real time   81.3134

 eigenvalue-minimisations  : 11100
 total energy-change (2. order) :-0.4403749E+01  (-0.4370348E+01)
 number of electron     775.0000001 magnetization     218.2034926
 augmentation part      332.8898256 magnetization     186.8608837

 Broyden mixing:
  rms(total) = 0.11801E+02    rms(broyden)= 0.11801E+02
  rms(prec ) = 0.12113E+02
  weight for this iteration     100.00

 Free energy of the ion-electron system (eV)
  ---------------------------------------------------
  alpha Z        PSCENC =      2226.57182236
  Ewald energy   TEWEN  =    217762.78443860
  -Hartree energ DENC   =   -289465.51017096
  -exchange      EXHF   =         0.00000000
  -V(xc)+E(xc)   XCENC  =      1356.98550008
  PAW double counting   =     63649.17337996   -65523.39033226
  entropy T*S    EENTRO =         0.00458337
  eigenvalues    EBANDS =      -179.86850473
  atomic energy  EATOM  =     69677.55355740
  Solvation  Ediel_sol  =         0.00000000
  ---------------------------------------------------
  free energy    TOTEN  =      -495.69572617 eV

  energy without entropy =     -495.70030954  energy(sigma->0) =     -495.69725396


--------------------------------------------------------------------------------------------------------




--------------------------------------- Iteration      1(   6)  ---------------------------------------


    POTLOK:  cpu time    0.4090: real time    0.4103
    SETDIJ:  cpu time    0.0307: real time    0.0308
    EDDIAG:  cpu time   11.6140: real time   11.6470
  RMM-DIIS:  cpu time   41.0761: real time   41.2110
    ORTHCH:  cpu time    1.3163: real time    1.3198
       DOS:  cpu time    0.0021: real time    0.0021
    CHARGE:  cpu time    4.1719: real time    4.1832
    MIXING:  cpu time    0.0089: real time    0.0092
    --------------------------------------------
      LOOP:  cpu time   58.6291: real time   58.8134

 eigenvalue-minimisations  :  9569
 total energy-change (2. order) :-0.1602987E+03  (-0.8802966E+02)
 number of electron     775.0000002 magnetization     214.1185881
 augmentation part      402.0217749 magnetization     180.2187989

 Broyden mixing:
  rms(total) = 0.18767E+02    rms(broyden)= 0.18767E+02
  rms(prec ) = 0.25059E+02
  weight for this iteration     100.00

 eigenvalues of (default mixing * dielectric matrix)
  average eigenvalue GAMMA=   0.2425
  0.2425

 Free energy of the ion-electron system (eV)
  ---------------------------------------------------
  alpha Z        PSCENC =      2226.57182236
  Ewald energy   TEWEN  =    217762.78443860
  -Hartree energ DENC   =   -287905.03429409
  -exchange      EXHF   =         0.00000000
  -V(xc)+E(xc)   XCENC  =      1310.22982757
  PAW double counting   =     68797.74753954   -70462.02041634
  entropy T*S    EENTRO =         0.00634525
  eigenvalues    EBANDS =     -2063.83328114
  atomic energy  EATOM  =     69677.55355740
  Solvation  Ediel_sol  =         0.00000000
  ---------------------------------------------------
  free energy    TOTEN  =      -655.99446084 eV

  energy without entropy =     -656.00080609  energy(sigma->0) =     -655.99657593


--------------------------------------------------------------------------------------------------------




--------------------------------------- Iteration      1(   7)  ---------------------------------------


    POTLOK:  cpu time    0.4060: real time    0.4072
    SETDIJ:  cpu time    0.0309: real time    0.0309
    EDDIAG:  cpu time   11.6226: real time   11.6543
  RMM-DIIS:  cpu time   40.5192: real time   40.6314
    ORTHCH:  cpu time    1.3154: real time    1.3189
       DOS:  cpu time    0.0021: real time    0.0021
    CHARGE:  cpu time    4.2137: real time    4.2254
    MIXING:  cpu time    0.0092: real time    0.0092
    --------------------------------------------
      LOOP:  cpu time   58.1191: real time   58.2795

 eigenvalue-minimisations  :  9460
 total energy-change (2. order) : 0.1289952E+03  (-0.1590544E+02)
 number of electron     774.9999994 magnetization     208.1392076
 augmentation part      362.1713025 magnetization     163.4642546

 Broyden mixing:
  rms(total) = 0.14472E+02    rms(broyden)= 0.14471E+02
  rms(prec ) = 0.19051E+02
  weight for this iteration     100.00

 eigenvalues of (default mixing * dielectric matrix)
  average eigenvalue GAMMA=   0.3237
  0.4965  0.1509

 Free energy of the ion-electron system (eV)
  ---------------------------------------------------
  alpha Z        PSCENC =      2226.57182236
  Ewald energy   TEWEN  =    217762.78443860
  -Hartree energ DENC   =   -288636.24998602
  -exchange      EXHF   =         0.00000000
  -V(xc)+E(xc)   XCENC  =      1328.84364698
  PAW double counting   =     69861.32114005   -71688.90275915
  entropy T*S    EENTRO =         0.00292065
  eigenvalues    EBANDS =     -1058.92403578
  atomic energy  EATOM  =     69677.55355740
  Solvation  Ediel_sol  =         0.00000000
  ---------------------------------------------------
  free energy    TOTEN  =      -526.99925490 eV

  energy without entropy =     -527.00217555  energy(sigma->0) =     -527.00022845


--------------------------------------------------------------------------------------------------------




--------------------------------------- Iteration      1(   8)  ---------------------------------------


    POTLOK:  cpu time    0.4063: real time    0.4072
    SETDIJ:  cpu time    0.0310: real time    0.0310
    EDDIAG:  cpu time   11.5891: real time   11.6212
  RMM-DIIS:  cpu time   40.9408: real time   41.1727
    ORTHCH:  cpu time    1.3130: real time    1.3164
       DOS:  cpu time    0.0021: real time    0.0021
    CHARGE:  cpu time    4.1623: real time    4.1736
    MIXING:  cpu time    0.0104: real time    0.0104
    --------------------------------------------
      LOOP:  cpu time   58.4550: real time   58.7348

 eigenvalue-minimisations  :  9467
 total energy-change (2. order) : 0.3051445E+02  (-0.1225936E+02)
 number of electron     774.9999998 magnetization     202.2860755
 augmentation part      366.3105303 magnetization     161.9377106

 Broyden mixing:
  rms(total) = 0.16575E+02    rms(broyden)= 0.16575E+02
  rms(prec ) = 0.19364E+02
  weight for this iteration     100.00

 eigenvalues of (default mixing * dielectric matrix)
  average eigenvalue GAMMA=   0.3227
  0.6392  0.2369  0.0920

 Free energy of the ion-electron system (eV)
  ---------------------------------------------------
  alpha Z        PSCENC =      2226.57182236
  Ewald energy   TEWEN  =    217762.78443860
  -Hartree energ DENC   =   -288884.53153525
  -exchange      EXHF   =         0.00000000
  -V(xc)+E(xc)   XCENC  =      1336.71503510
  PAW double counting   =     71513.76267359   -73438.42498616
  entropy T*S    EENTRO =        -0.00713893
  eigenvalues    EBANDS =      -690.90866674
  atomic energy  EATOM  =     69677.55355740
  Solvation  Ediel_sol  =         0.00000000
  ---------------------------------------------------
  free energy    TOTEN  =      -496.48480002 eV

  energy without entropy =     -496.47766110  energy(sigma->0) =     -496.48242038


--------------------------------------------------------------------------------------------------------




--------------------------------------- Iteration      1(   9)  ---------------------------------------


    POTLOK:  cpu time    0.4058: real time    0.4071
    SETDIJ:  cpu time    0.0310: real time    0.0311
    EDDIAG:  cpu time   11.6117: real time   11.6434
  RMM-DIIS:  cpu time   40.6546: real time   40.7670
    ORTHCH:  cpu time    1.3117: real time    1.3152
       DOS:  cpu time    0.0021: real time    0.0021
    CHARGE:  cpu time    4.1467: real time    4.1582
    MIXING:  cpu time    0.0097: real time    0.0098
    --------------------------------------------
      LOOP:  cpu time   58.1734: real time   58.3339

 eigenvalue-minimisations  :  9480
 total energy-change (2. order) : 0.1110439E+03  (-0.1290376E+02)
 number of electron     775.0000007 magnetization     194.7053669
 augmentation part      368.3219880 magnetization     151.8548574

 Broyden mixing:
  rms(total) = 0.13010E+02    rms(broyden)= 0.13010E+02
  rms(prec ) = 0.15214E+02
  weight for this iteration     100.00

 eigenvalues of (default mixing * dielectric matrix)
  average eigenvalue GAMMA=   0.3880
  0.9974  0.3198  0.1074  0.1272

 Free energy of the ion-electron system (eV)
  ---------------------------------------------------
  alpha Z        PSCENC =      2226.57182236
  Ewald energy   TEWEN  =    217762.78443860
  -Hartree energ DENC   =   -288543.23484909
  -exchange      EXHF   =         0.00000000
  -V(xc)+E(xc)   XCENC  =      1351.27473564
  PAW double counting   =     72745.85014877   -74705.23510712
  entropy T*S    EENTRO =        -0.00288476
  eigenvalues    EBANDS =      -901.00273924
  atomic energy  EATOM  =     69677.55355740
  Solvation  Ediel_sol  =         0.00000000
  ---------------------------------------------------
  free energy    TOTEN  =      -385.44087743 eV

  energy without entropy =     -385.43799267  energy(sigma->0) =     -385.43991585


--------------------------------------------------------------------------------------------------------




--------------------------------------- Iteration      1(  10)  ---------------------------------------


    POTLOK:  cpu time    0.4035: real time    0.4044
    SETDIJ:  cpu time    0.0310: real time    0.0311
    EDDIAG:  cpu time   11.6446: real time   11.6769
  RMM-DIIS:  cpu time   40.6491: real time   40.7619
    ORTHCH:  cpu time    1.3114: real time    1.3148
       DOS:  cpu time    0.0021: real time    0.0021
    CHARGE:  cpu time    4.1699: real time    4.1814
    MIXING:  cpu time    0.0104: real time    0.0105
    --------------------------------------------
      LOOP:  cpu time   58.2220: real time   58.3830

 eigenvalue-minimisations  :  9487
 total energy-change (2. order) :-0.1689856E+02  (-0.1736156E+02)
 number of electron     774.9999996 magnetization     185.7124452
 augmentation part      366.4090743 magnetization     139.7092221

 Broyden mixing:
  rms(total) = 0.11973E+02    rms(broyden)= 0.11973E+02
  rms(prec ) = 0.13212E+02
  weight for this iteration     100.00

 eigenvalues of (default mixing * dielectric matrix)
  average eigenvalue GAMMA=   0.3987
  1.1244  0.4839  0.1476  0.1476  0.0901

 Free energy of the ion-electron system (eV)
  ---------------------------------------------------
  alpha Z        PSCENC =      2226.57182236
  Ewald energy   TEWEN  =    217762.78443860
  -Hartree energ DENC   =   -288882.67735760
  -exchange      EXHF   =         0.00000000
  -V(xc)+E(xc)   XCENC  =      1351.87146093
  PAW double counting   =     74128.54275577   -76139.80862704
  entropy T*S    EENTRO =        -0.00170824
  eigenvalues    EBANDS =      -527.17578112
  atomic energy  EATOM  =     69677.55355740
  Solvation  Ediel_sol  =         0.00000000
  ---------------------------------------------------
  free energy    TOTEN  =      -402.33943895 eV

  energy without entropy =     -402.33773070  energy(sigma->0) =     -402.33886953


--------------------------------------------------------------------------------------------------------




--------------------------------------- Iteration      1(  11)  ---------------------------------------


    POTLOK:  cpu time    0.4023: real time    0.4032
    SETDIJ:  cpu time    0.0309: real time    0.0310
    EDDIAG:  cpu time   11.6146: real time   11.6470
  RMM-DIIS:  cpu time   41.0196: real time   41.2363
    ORTHCH:  cpu time    1.3508: real time    1.3617
       DOS:  cpu time    0.0023: real time    0.0023
    CHARGE:  cpu time    4.1435: real time    4.1860
    MIXING:  cpu time    0.0110: real time    0.0112
    --------------------------------------------
      LOOP:  cpu time   58.5750: real time   58.8787

 eigenvalue-minimisations  :  9484
 total energy-change (2. order) :-0.1599287E+02  (-0.1218303E+02)
 number of electron     775.0000001 magnetization     179.9804183
 augmentation part      369.6453123 magnetization     133.8196757

 Broyden mixing:
  rms(total) = 0.13178E+02    rms(broyden)= 0.13178E+02
  rms(prec ) = 0.14844E+02
  weight for this iteration     100.00

 eigenvalues of (default mixing * dielectric matrix)
  average eigenvalue GAMMA=   0.3863
  1.2535  0.4869  0.1824  0.1824  0.0955  0.1169

 Free energy of the ion-electron system (eV)
  ---------------------------------------------------
  alpha Z        PSCENC =      2226.57182236
  Ewald energy   TEWEN  =    217762.78443860
  -Hartree energ DENC   =   -288652.54046927
  -exchange      EXHF   =         0.00000000
  -V(xc)+E(xc)   XCENC  =      1355.66569711
  PAW double counting   =     75288.75526665   -77303.34571331
  entropy T*S    EENTRO =        -0.00026137
  eigenvalues    EBANDS =      -773.77665118
  atomic energy  EATOM  =     69677.55355740
  Solvation  Ediel_sol  =         0.00000000
  ---------------------------------------------------
  free energy    TOTEN  =      -418.33231301 eV

  energy without entropy =     -418.33205164  energy(sigma->0) =     -418.33222589


--------------------------------------------------------------------------------------------------------




--------------------------------------- Iteration      1(  12)  ---------------------------------------


    POTLOK:  cpu time    0.4192: real time    0.4228
    SETDIJ:  cpu time    0.0313: real time    0.0315
    EDDIAG:  cpu time   11.6885: real time   11.8061
  RMM-DIIS:  cpu time   41.0479: real time   41.2738
    ORTHCH:  cpu time    1.3340: real time    1.3379
[...]
   -.114E+03 0.482E+01 -.146E+04   0.114E+03 -.474E+01 0.145E+04   0.281E+00 -.907E-01 0.293E+01   0.550E-02 0.572E-02 0.485E-02
   0.671E+01 -.182E+02 -.287E+04   -.673E+01 0.184E+02 0.287E+04   0.173E-01 -.217E+00 0.113E+01   0.479E-02 0.616E-02 -.257E-01
   -.255E+02 -.419E+01 -.296E+04   0.255E+02 0.412E+01 0.296E+04   0.626E-02 0.843E-01 0.977E+00   0.165E-01 0.460E-02 0.210E-01
   0.374E+02 -.455E+01 -.289E+04   -.373E+02 0.437E+01 0.289E+04   -.943E-01 0.104E+00 0.916E+00   -.117E-01 -.184E-02 0.149E-01
   0.310E+02 0.183E+01 -.293E+04   -.310E+02 -.199E+01 0.292E+04   0.196E-01 0.831E-01 0.117E+01   0.443E-02 -.293E-02 0.211E-01
   -.165E+02 0.522E+01 -.290E+04   0.165E+02 -.544E+01 0.290E+04   -.438E-01 0.263E+00 0.164E+01   -.322E-02 -.264E-02 0.154E-01
   0.279E+02 0.253E+02 -.288E+04   -.282E+02 -.250E+02 0.288E+04   0.270E+00 -.285E+00 0.166E+01   -.105E-01 -.143E-01 -.609E-02
   0.252E+02 0.165E+02 -.294E+04   -.251E+02 -.165E+02 0.294E+04   -.397E-01 0.270E-01 0.736E+00   -.479E-02 -.255E-03 0.283E-01
   -.307E+02 -.131E+02 -.288E+04   0.304E+02 0.131E+02 0.288E+04   0.273E+00 -.693E-01 0.948E+00   0.976E-02 0.131E-01 -.203E-01
   0.518E+01 -.461E+02 -.292E+04   -.507E+01 0.458E+02 0.292E+04   -.911E-01 0.292E+00 0.896E+00   0.977E-02 0.174E-01 0.745E-02
   -.493E+02 0.390E+01 -.293E+04   0.492E+02 -.381E+01 0.293E+04   0.697E-01 -.144E+00 0.701E+00   0.127E-01 0.938E-02 -.141E-01
   0.248E+02 0.479E+01 -.295E+04   -.247E+02 -.482E+01 0.295E+04   -.840E-01 0.180E-01 0.973E+00   -.885E-02 0.409E-02 -.491E-02
   0.159E+02 0.363E+02 -.290E+04   -.158E+02 -.363E+02 0.290E+04   -.710E-01 0.353E-02 0.108E+01   -.176E-01 -.575E-03 -.122E-02
   -.642E+01 -.251E+02 -.291E+04   0.648E+01 0.250E+02 0.291E+04   -.790E-01 0.848E-01 0.843E+00   0.341E-03 0.596E-02 -.506E-03
   0.566E+00 0.121E+02 -.287E+04   -.268E+00 -.122E+02 0.286E+04   -.318E+00 0.454E-01 0.130E+01   -.637E-02 -.605E-02 -.355E-01
   0.488E+02 0.476E+02 -.142E+04   -.470E+02 -.487E+02 0.142E+04   -.178E+01 0.109E+01 0.276E+01   -.313E-01 -.264E-02 -.985E-02
   -.908E+02 -.390E+02 -.142E+04   0.904E+02 0.380E+02 0.142E+04   0.313E+00 0.959E+00 0.359E+01   0.104E-01 -.205E-02 0.862E-02
   -.227E+02 -.238E+02 0.300E+04   0.227E+02 0.241E+02 -.299E+04   0.124E-02 -.264E+00 -.196E+01   -.156E-01 -.371E-02 -.195E-01
   -.728E+02 0.226E+02 0.148E+04   0.733E+02 -.222E+02 -.148E+04   -.569E+00 -.332E+00 -.768E-01   0.176E-01 -.127E-01 -.359E-02
   0.100E+03 0.262E+02 -.141E+04   -.101E+03 -.251E+02 0.140E+04   0.560E+00 -.109E+01 0.318E+01   -.805E-02 -.912E-02 0.574E-02
   0.348E+02 0.500E+02 0.303E+04   -.354E+02 -.489E+02 -.303E+04   0.647E+00 -.117E+01 -.214E+01   0.400E-01 -.379E-01 0.574E-02
   0.903E+02 0.294E+01 0.147E+04   -.905E+02 -.416E+01 -.147E+04   0.723E-01 0.126E+01 -.115E+01   0.571E-01 -.212E-01 -.328E-01
   -.187E+02 0.213E+02 -.289E+04   0.185E+02 -.212E+02 0.289E+04   0.215E+00 -.923E-01 0.740E+00   -.100E-01 -.228E-02 -.120E-01
   0.527E+02 0.614E+02 0.188E+02   -.538E+02 -.615E+02 -.204E+02   0.107E+01 -.475E-02 0.172E+01   -.347E-01 0.128E-01 -.273E-01
   -.243E+02 -.125E+02 -.293E+04   0.240E+02 0.127E+02 0.293E+04   0.298E+00 -.264E+00 0.122E+01   -.787E-02 0.109E-01 0.167E-01
   -.660E+02 -.389E+02 0.111E+03   0.664E+02 0.389E+02 -.113E+03   -.351E+00 -.686E-01 0.180E+01   -.183E-03 -.733E-02 0.187E-01
   0.157E+02 -.402E+02 -.150E+04   -.161E+02 0.401E+02 0.150E+04   0.438E+00 0.560E-02 0.235E+01   -.263E-02 0.280E-01 0.611E-02
   0.372E+02 0.562E+02 -.146E+04   -.372E+02 -.554E+02 0.146E+04   0.570E-01 -.772E+00 0.271E+01   -.100E-01 -.156E-01 -.243E-02
   -.792E+02 -.480E+02 0.736E+02   0.793E+02 0.473E+02 -.746E+02   -.164E+00 0.696E+00 0.113E+01   0.888E-02 -.111E-01 -.127E-01
   0.481E+02 0.514E+02 0.856E+01   -.473E+02 -.524E+02 -.934E+01   -.811E+00 0.106E+01 0.837E+00   -.418E-02 0.757E-02 -.116E-01
   -.731E+02 -.725E+02 -.163E+04   0.731E+02 0.722E+02 0.163E+04   0.674E-01 0.517E+00 0.968E+00   0.775E-02 0.997E-02 0.354E-02
   0.102E+02 -.906E+02 0.332E+04   -.106E+02 0.907E+02 -.331E+04   0.357E+00 0.172E-02 -.233E+01   0.239E-03 0.514E-02 -.746E-02
   -.330E+02 -.507E+02 0.329E+04   0.324E+02 0.504E+02 -.328E+04   0.646E+00 0.456E+00 -.291E+01   0.494E-01 -.347E-01 -.241E-02
   -.547E+02 0.439E+02 0.331E+04   0.548E+02 -.437E+02 -.331E+04   -.174E+00 -.307E+00 -.358E+01   0.587E-01 -.132E-01 0.112E-01
   0.518E+02 0.285E+02 0.158E+04   -.517E+02 -.286E+02 -.158E+04   -.713E-01 -.654E-02 -.135E+01   -.383E-01 0.293E-01 0.600E-02
   0.219E+02 -.664E+02 0.167E+04   -.213E+02 0.661E+02 -.167E+04   -.642E+00 0.153E+00 -.874E+00   -.226E-01 -.562E-02 -.304E-01
   0.125E+02 0.187E+02 -.163E+04   -.128E+02 -.191E+02 0.163E+04   0.415E+00 0.338E+00 0.115E+01   0.196E-01 0.154E-02 0.405E-02
   -.319E+02 0.385E+01 0.335E+04   0.303E+02 -.415E+01 -.335E+04   0.153E+01 0.361E+00 -.323E+01   0.400E-01 -.339E-01 0.176E-01
   0.324E+01 0.816E+02 0.162E+04   -.357E+01 -.813E+02 -.162E+04   0.345E+00 -.403E+00 -.112E+01   0.265E-01 -.643E-02 -.268E-02
   -.585E+02 0.183E+02 0.331E+02   0.583E+02 -.179E+02 -.332E+02   0.157E+00 -.361E+00 0.540E-01   0.822E-02 0.255E-03 -.456E-02
   -.706E+02 -.378E+02 -.165E+04   0.704E+02 0.371E+02 0.165E+04   0.230E+00 0.745E+00 0.167E+01   0.140E-01 0.387E-02 -.368E-02
   0.125E+02 0.732E+02 -.164E+04   -.124E+02 -.723E+02 0.164E+04   -.879E-01 -.982E+00 0.833E+00   -.180E-01 0.893E-02 -.477E-02
   -.373E+02 -.244E+01 0.330E+04   0.378E+02 0.196E+01 -.330E+04   -.451E+00 0.478E+00 -.278E+01   -.699E-02 -.217E-01 0.892E-02
   0.207E+02 0.215E+02 0.304E+04   -.205E+02 -.214E+02 -.304E+04   -.129E+00 -.157E+00 -.581E+00   -.714E-01 0.407E-01 0.375E-03
   -.197E+02 0.576E+01 0.297E+04   0.214E+02 -.590E+01 -.297E+04   -.165E+01 0.122E+00 -.214E+01   0.188E-01 0.241E-01 0.178E-01
   -.662E+02 -.115E+03 0.148E+04   0.663E+02 0.115E+03 -.147E+04   -.900E-01 0.544E+00 -.960E+00   -.234E-01 0.682E-02 -.130E-01
   -.652E+02 -.171E+02 -.579E+02   0.645E+02 0.176E+02 0.572E+02   0.760E+00 -.651E+00 0.632E+00   -.149E-02 0.100E-02 0.997E-02
   -.110E+03 -.186E+00 0.148E+04   0.110E+03 0.585E+00 -.148E+04   0.578E-01 -.421E+00 -.419E+00   0.143E-01 -.755E-02 0.137E-01
   0.423E+02 0.328E+02 0.147E+04   -.422E+02 -.324E+02 -.147E+04   -.662E-01 -.382E+00 0.518E-01   -.419E-01 0.369E-01 0.257E-02
   0.738E+02 0.216E+02 -.148E+04   -.735E+02 -.218E+02 0.148E+04   -.430E+00 0.212E+00 0.161E+01   -.462E-02 -.512E-02 -.831E-02
   0.457E+02 -.350E+02 0.303E+04   -.449E+02 0.338E+02 -.303E+04   -.846E+00 0.129E+01 -.195E+01   -.158E-02 -.257E-01 0.809E-02
   0.177E+02 0.358E+02 0.145E+04   -.172E+02 -.357E+02 -.145E+04   -.443E+00 -.165E+00 -.349E+00   -.419E-01 0.149E-01 -.109E-01
   0.792E+02 -.498E+02 0.361E+02   -.790E+02 0.496E+02 -.359E+02   -.190E+00 0.309E+00 -.144E+00   0.939E-02 -.709E-02 -.243E-01
   0.875E+01 0.563E+02 0.244E+04   -.841E+01 -.559E+02 -.244E+04   -.311E+00 -.532E+00 -.278E+01   -.373E-01 0.368E-01 0.342E-02
   -.195E+02 -.501E+02 0.116E+04   0.195E+02 0.505E+02 -.116E+04   -.843E-01 -.338E+00 -.742E+00   -.774E-02 0.115E-01 -.318E-03
   0.215E+02 -.150E+02 0.117E+04   -.212E+02 0.147E+02 -.117E+04   -.399E+00 0.352E+00 -.775E+00   0.391E-01 -.258E-01 -.172E-01
   -.524E+02 -.451E+02 -.247E+02   0.526E+02 0.456E+02 0.243E+02   -.171E+00 -.494E+00 0.315E+00   -.968E-02 0.718E-02 0.179E-01
   0.432E+02 0.141E+02 -.119E+04   -.429E+02 -.139E+02 0.119E+04   -.271E+00 -.227E+00 0.114E+01   -.119E-01 -.155E-01 0.130E-01
   -.762E+02 -.135E+02 -.121E+04   0.760E+02 0.137E+02 0.120E+04   0.254E+00 -.140E+00 0.142E+01   0.835E-02 0.532E-02 0.613E-02
   0.159E+02 -.146E+02 0.243E+04   -.162E+02 0.150E+02 -.243E+04   0.224E+00 -.372E+00 -.324E+01   -.234E-02 -.864E-02 -.997E-02
   -.135E+02 -.509E+02 0.245E+04   0.134E+02 0.498E+02 -.245E+04   0.128E+00 0.116E+01 -.279E+01   -.324E-01 0.944E-02 -.110E-02
   -.328E+02 0.539E+01 0.253E+02   0.333E+02 -.548E+01 -.255E+02   -.549E+00 0.591E-01 0.840E-01   0.165E-01 -.853E-02 -.126E-01
   0.253E+02 0.618E+01 0.295E+02   -.259E+02 -.676E+01 -.295E+02   0.483E+00 0.558E+00 -.219E-01   0.201E-01 0.111E-05 -.144E-01
   -.384E+02 0.578E+01 0.120E+04   0.382E+02 -.550E+01 -.120E+04   0.211E+00 -.278E+00 -.106E+01   0.101E-01 -.853E-02 0.330E-04
   0.505E+02 0.191E+02 -.708E+02   -.503E+02 -.199E+02 0.715E+02   -.144E+00 0.824E+00 -.775E+00   -.205E-01 0.921E-02 0.291E-03
   -.383E+01 -.142E+02 -.106E+02   0.399E+01 0.136E+02 0.102E+02   -.154E+00 0.516E+00 0.394E+00   -.686E-02 0.160E-01 -.968E-02
   -.409E+02 0.289E+02 0.134E+04   0.408E+02 -.288E+02 -.134E+04   0.264E-01 -.199E-01 -.115E+00   0.167E-01 -.961E-02 0.261E-01
   -.238E+02 -.732E+01 0.133E+04   0.240E+02 0.788E+01 -.133E+04   -.246E+00 -.559E+00 -.951E+00   0.161E-01 -.155E-01 -.507E-02
   -.670E+01 -.928E+00 0.272E+04   0.555E+01 0.140E+01 -.271E+04   0.112E+01 -.467E+00 -.237E+01   -.112E-01 0.149E-01 0.284E-02
   0.348E+02 0.198E+02 0.270E+04   -.339E+02 -.201E+02 -.269E+04   -.820E+00 0.301E+00 -.275E+01   0.175E-01 0.532E-02 0.818E-02
   0.714E+02 0.259E+01 0.132E+04   -.716E+02 -.277E+01 -.132E+04   0.259E+00 0.240E+00 0.229E-01   -.106E-01 -.771E-02 -.410E-01
   0.640E+02 0.290E+02 0.130E+04   -.642E+02 -.289E+02 -.130E+04   0.230E+00 -.113E+00 -.102E+00   -.467E-02 0.189E-01 -.159E-01
   0.549E+02 0.287E+02 -.130E+04   -.552E+02 -.292E+02 0.129E+04   0.298E+00 0.533E+00 0.115E+01   -.514E-02 -.729E-02 -.366E-03
   0.499E+02 0.557E+02 0.274E+04   -.505E+02 -.551E+02 -.274E+04   0.615E+00 -.560E+00 -.177E+01   -.116E-01 -.461E-02 0.822E-03
   0.471E+02 0.301E+02 -.542E+01   -.477E+02 -.295E+02 0.538E+01   0.593E+00 -.585E+00 -.144E-01   0.131E-01 -.160E-01 0.103E-01
   0.219E+02 0.747E+02 -.203E+02   -.218E+02 -.738E+02 0.205E+02   -.870E-01 -.104E+01 -.368E+00   -.180E-01 0.618E-03 -.164E-01
   0.101E+03 0.449E+02 0.275E+02   -.100E+03 -.447E+02 -.277E+02   -.549E+00 -.226E+00 0.139E+00   0.779E-02 -.975E-02 -.108E-01
   -.748E+02 -.106E+03 0.673E+01   0.753E+02 0.106E+03 -.696E+01   -.441E+00 0.347E+00 0.182E+00   -.140E-01 0.130E-01 -.111E-01
 -----------------------------------------------------------------------------------------------
   0.451E-01 -.378E+00 -.616E+01   -.682E-12 -.313E-12 -.252E-10   0.260E-01 0.306E+00 0.628E+01   -.467E-01 0.266E-01 -.123E+00
 
 
 POSITION                                       TOTAL-FORCE (eV/Angst)
 -----------------------------------------------------------------------------------
     12.96815      8.02306      6.95196         0.010306     -0.001998     -0.016102
      5.12096      8.06677      6.95723        -0.000129      0.003081     -0.012251
      5.02451      3.46293      7.04430         0.004382      0.002195     -0.004673
     14.30695      8.77911      9.32544        -0.004480     -0.009097      0.017625
      3.74025      4.20901      9.40152         0.002632     -0.017639     -0.020533
      6.40506      8.79160      9.29725         0.009935     -0.033294     -0.021153
     11.67073      4.20868      9.30108         0.006868     -0.031463      0.015239
      9.02672      8.78050      9.22769         0.005011     -0.006465     -0.010670
     10.34994      1.93897      9.27945        -0.003034     -0.002943      0.012224
      2.43269      1.92495      9.31860         0.021602      0.004956     -0.022483
     11.65000      8.78526      9.33655         0.014689     -0.008804      0.008262
     12.98649      6.48604      9.35731         0.008818      0.002921      0.010191
      5.05468      1.92703      9.40899        -0.006279     -0.025395     -0.012950
      7.71702      6.50785      9.38073         0.005899     -0.005956      0.002880
      9.03995      4.22190      9.32519         0.001611     -0.008132      0.027807
      5.06752      6.50078      9.36141         0.011551     -0.010170      0.005228
      7.70923      1.92222      9.34161        -0.001969     -0.002729      0.017188
      7.80963      3.39459      6.98642        -0.017942     -0.011552      0.010283
      6.31601      1.11802      6.92850         0.023276     -0.009325      0.006278
      6.42748      1.11951      0.84379        -0.003263      0.035102      0.008326
      3.74457      4.22498      2.80295         0.004492      0.008522     -0.027061
      1.13875      1.23247      6.89884        -0.014432      0.021739     -0.025410
      1.05351      1.23301      0.75714        -0.003809      0.009997      0.006587
      6.37970      8.73232      2.89580        -0.002289      0.025971      0.014770
      6.38826      4.22271      9.38895         0.017075     -0.003426     -0.005255
      7.71519      4.98986      4.84188        -0.010717     -0.015499      0.000206
     10.33455      6.51048      9.33512        -0.001709     -0.003555     -0.026637
     14.36690      7.24966      4.78751         0.005046     -0.001366     -0.003818
     11.62395      5.70642      7.01596         0.015978     -0.009179     -0.006177
      6.42923      5.78053      7.02156         0.024193     -0.013260      0.008387
      3.72880      2.59487      4.89932         0.002104     -0.003830      0.024588
     10.40714      4.90964      4.85294         0.015961      0.012239      0.002831
      3.72651      5.71657      7.06611         0.007224      0.004047     -0.017430
     13.01076      7.95414      0.82285        -0.019465      0.028326     -0.008766
      5.07062      7.97664      0.75916         0.001914      0.014975     -0.006426
      3.74725      5.77233      0.77268         0.000298      0.003351     -0.012191
      7.73906      1.95923      2.91892         0.007688      0.002796     -0.005276
      9.04575      8.78897      2.87226        -0.005055     -0.013982      0.010169
      2.42526      3.47420      7.05892         0.017932     -0.004540     -0.011115
      2.40788      3.44595      0.73676        -0.012349      0.026558     -0.008226
     10.29842      1.96823      2.88139         0.017481     -0.010174     -0.007849
     13.01351      4.98805      4.94410         0.001181     -0.013995      0.002372
      3.71807      1.10596      7.04155         0.012449     -0.011993     -0.012154
      9.03440      5.77760      7.07025         0.001854     -0.007244     -0.011503
      3.74683      1.15285      0.81959        -0.000782      0.005532      0.003237
      9.06513      5.72471      0.92537        -0.013428      0.020294     -0.011353
      5.21212      3.41637      0.86086        -0.006427      0.009819     -0.011523
     11.65625      8.70496      2.91787        -0.017062      0.000421      0.000923
     11.62151      7.29974      4.90178         0.012177     -0.001035      0.004580
     12.89980      6.49745      2.82364         0.012816     -0.012977     -0.004835
      9.01343      4.18612      2.81919        -0.007470      0.001614     -0.006855
      7.80013      8.01699      6.95830         0.000277     -0.013941      0.004744
      7.81053      7.92859      0.86888        -0.021634     -0.003675      0.015115
     10.31657      6.54831      2.89472         0.012241      0.009048     -0.002036
      2.46166      0.31661      4.92733        -0.001642     -0.009000      0.009630
      7.75154      3.52543      0.86333         0.001731      0.010837      0.000711
      5.10291      1.89984      2.87069        -0.000860      0.016913      0.005403
      5.17349      6.40557      2.77226        -0.030464      0.032735      0.005301
      7.65418      0.39388      4.89233        -0.001812     -0.009708      0.010222
      9.05755      1.15921      7.10716        -0.002062      0.009913      0.021466
     10.29885      7.99513      7.00196         0.016923      0.003092     -0.008552
      9.02330      1.20380      0.78512        -0.015043     -0.013212      0.006858
     10.37425      7.90856      0.90129        -0.038462      0.012465      0.001690
      5.10488      4.93977      4.94140        -0.000672      0.002431      0.002959
     11.69653      2.64892      4.87494        -0.015771     -0.012615      0.010653
     14.26247      8.83804      2.80295        -0.032530      0.016904     -0.030633
      9.09183      2.62352      4.93970        -0.005470      0.002225      0.003562
      6.39598      2.67997      4.92292        -0.000992     -0.006022     -0.002552
     11.64052      4.17844      2.78900        -0.015650      0.008117      0.006225
      2.34972      1.92500      2.86197         0.001149      0.005505     -0.016466
     11.59075      5.72177      0.94802        -0.018657      0.003731     -0.012090
      6.50379      5.69604      0.91052         0.004210      0.006671      0.010478
      7.71278      6.45493      2.81038        -0.001679      0.018431      0.039077
      6.43155      4.20716      2.83788         0.022332     -0.016674     -0.001150
     10.35844      3.38701      7.00310         0.012422     -0.003886      0.034039
     10.36553      3.54396      0.90454        -0.004287      0.008651     -0.017916
     10.23662      0.46679      4.91587        -0.020893      0.006181      0.030672
      9.06408      7.34028      4.95059        -0.000167     -0.021500      0.006851
      6.48344      7.27349      4.94428         0.014288     -0.007376     -0.007175
      5.04827      0.31035      4.87551        -0.009175      0.010322      0.003406
 -----------------------------------------------------------------------------------
    total drift:                                0.024324     -0.045087     -0.001555


--------------------------------------------------------------------------------------------------------



  FREE ENERGIE OF THE ION-ELECTRON SYSTEM (eV)
  ---------------------------------------------------
  free  energy   TOTEN  =      -511.15542767 eV

  energy  without entropy=     -511.14785336  energy(sigma->0) =     -511.15290290
 
 d Force = 0.5858988E-02[ 0.331E-02, 0.841E-02]  d Energy = 0.5794080E-02 0.649E-04
 d Force = 0.1255820E+02[ 0.126E+02, 0.126E+02]  d Ewald  = 0.1255822E+02-0.200E-04


--------------------------------------------------------------------------------------------------------


    POTLOK:  cpu time    0.4419: real time    0.4451


--------------------------------------------------------------------------------------------------------


 Conjugate gradient step on ions:
 trial-energy change:   -0.005794  1 .order   -0.005859   -0.008410   -0.003308
  (g-gl).g = 0.447E-02      g.g   = 0.525E-02  gl.gl    = 0.136E-01
 g(Force)  = 0.525E-02   g(Stress)= 0.000E+00 ortho     =-0.527E-05
 gamma     =   0.32888
 trial     =   1.60255
 opt step  =   2.80192  (harmonic =   2.64183) maximal distance =0.01064456
 next E    =  -511.156638   (d E  =  -0.00700)


--------------------------------------------------------------------------------------------------------


  
 reached required accuracy - stopping structural energy minimisation
     LOOP+:  cpu time  894.0603: real time  897.1761
    4ORBIT:  cpu time    0.0000: real time    0.0000

 total amount of memory used by VASP MPI-rank0   256601. kBytes
=======================================================================

   base      :      30000. kBytes
   nonlr-proj:      34525. kBytes
   fftplans  :      17962. kBytes
   grid      :      53265. kBytes
   one-center:        622. kBytes
   wavefun   :     120227. kBytes
 
  
  
 General timing and accounting informations for this job:
 ========================================================
  
                  Total CPU time used (sec):    21506.820
                            User time (sec):    21254.113
                          System time (sec):      252.707
                         Elapsed time (sec):    21596.568
  
                   Maximum memory used (kb):     1103008.
                   Average memory used (kb):           0.
  
                          Minor page faults:      4790645
                          Major page faults:            0
                 Voluntary context switches:         3557
