 vasp.5.4.4.18Apr17-6-g9f103f2a35 (build Nov 30 2020 22:55:02) complex          
  
 executed on             LinuxIFC date 2023.06.12  16:21:43
 running on   80 total cores
 distrk:  each k-point on   80 cores,    1 groups
 distr:  one band on NCORES_PER_BAND=   4 cores,   20 groups


--------------------------------------------------------------------------------------------------------


 INCAR:
 POTCAR:    PAW_PBE Pt 04Feb2005                  
 POTCAR:    PAW_PBE Fe 06Sep2000                  
 POTCAR:    PAW_PBE Co 02Aug2007                  
 POTCAR:    PAW_PBE Cu 22Jun2005                  
 POTCAR:    PAW_PBE Ni 02Aug2007                  
 POTCAR:    PAW_PBE H 15Jun2001                   

 ----------------------------------------------------------------------------- 
|                                                                             |
|           W    W    AA    RRRRR   N    N  II  N    N   GGGG   !!!           |
|           W    W   A  A   R    R  NN   N  II  NN   N  G    G  !!!           |
|           W    W  A    A  R    R  N N  N  II  N N  N  G       !!!           |
|           W WW W  AAAAAA  RRRRR   N  N N  II  N  N N  G  GGG   !            |
|           WW  WW  A    A  R   R   N   NN  II  N   NN  G    G                |
|           W    W  A    A  R    R  N    N  II  N    N   GGGG   !!!           |
|                                                                             |
|      For optimal performance we recommend to set                            |
|        NCORE= 4 - approx SQRT( number of cores)                             |
|      NCORE specifies how many cores store one orbital (NPAR=cpu/NCORE).     |
|      This setting can  greatly improve the performance of VASP for DFT.     |
|      The default,   NCORE=1            might be grossly inefficient         |
|      on modern multi-core architectures or massively parallel machines.     |
|      Do your own testing !!!!                                               |
|      Unfortunately you need to use the default for GW and RPA calculations. |
|      (for HF NCORE is supported but not extensively tested yet)             |
|                                                                             |
 ----------------------------------------------------------------------------- 

 POTCAR:    PAW_PBE Pt 04Feb2005                  
   VRHFIN =Pt: s1d9                                                             
   LEXCH  = PE                                                                  
   EATOM  =   729.1176 eV,   53.5886 Ry                                         
                                                                                
   TITEL  = PAW_PBE Pt 04Feb2005                                                
   LULTRA =        F    use ultrasoft PP ?                                      
   IUNSCR =        1    unscreen: 0-lin 1-nonlin 2-no                           
   RPACOR =    2.330    partial core radius                                     
   POMASS =  195.080; ZVAL   =   10.000    mass and valenz                      
   RCORE  =    2.600    outmost cutoff radius                                   
   RWIGS  =    2.750; RWIGS  =    1.455    wigner-seitz radius (au A)           
   ENMAX  =  230.283; ENMIN  =  172.712 eV                                      
   ICORE  =        3    local potential                                         
   LCOR   =        T    correct aug charges                                     
   LPAW   =        T    paw PP                                                  
   EAUG   =  358.966                                                            
   DEXC   =    0.000                                                            
   RMAX   =    2.658    core radius for proj-oper                               
   RAUG   =    1.300    factor for augmentation sphere                          
   RDEP   =    2.761    radius for radial grids                                 
   RDEPT  =    2.203    core radius for aug-charge                              
                                                                                
   Atomic configuration                                                         
   16 entries                                                                   
     n  l   j            E        occ.                                          
     1  0  0.50    -78401.1885   2.0000                                         
     2  0  0.50    -13770.7750   2.0000                                         
     2  1  1.50    -11931.0468   6.0000                                         
     3  0  0.50     -3234.7234   2.0000                                         
     3  1  1.50     -2699.2216   6.0000                                         
     3  2  2.50     -2119.5714  10.0000                                         
     4  0  0.50      -695.1528   2.0000                                         
     4  1  1.50      -519.6034   6.0000                                         
     4  2  2.50      -306.6786  10.0000                                         
     4  3  3.50       -70.1041  14.0000                                         
     5  0  0.50      -101.7747   2.0000                                         
     5  1  1.50       -55.9873   6.0000                                         
     5  2  2.50        -6.1423   9.0000                                         
     6  0  0.50        -5.6573   1.0000                                         
     6  1  1.50        -6.8029   0.0000                                         
     5  3  2.50        -1.3606   0.0000                                         
   Description                                                                  
     l       E           TYP  RCUT    TYP  RCUT                                 
     2     -6.1423404     23  2.500                                             
     2     -7.5029230     23  2.500                                             
     0     -5.6573207     23  2.500                                             
     0      0.7416693     23  2.500                                             
     1     -2.7211652     23  2.600                                             
     1     20.4087390     23  2.600                                             
     3     -1.3605826     23  2.500                                             
  local pseudopotential read in
  partial core-charges read in
  partial kinetic energy density read in
  atomic valenz-charges read in
  non local Contribution for L=           2  read in
    real space projection operators read in
  non local Contribution for L=           2  read in
    real space projection operators read in
  non local Contribution for L=           0  read in
    real space projection operators read in
  non local Contribution for L=           0  read in
    real space projection operators read in
  non local Contribution for L=           1  read in
    real space projection operators read in
  non local Contribution for L=           1  read in
    real space projection operators read in
    PAW grid and wavefunctions read in
 
   number of l-projection  operators is LMAX  =           6
   number of lm-projection operators is LMMAX =          18
 
 POTCAR:    PAW_PBE Fe 06Sep2000                  
   VRHFIN =Fe:  d7 s1                                                           
   LEXCH  = PE                                                                  
   EATOM  =   594.3153 eV,   43.6809 Ry                                         
                                                                                
   TITEL  = PAW_PBE Fe 06Sep2000                                                
   LULTRA =        F    use ultrasoft PP ?                                      
   IUNSCR =        1    unscreen: 0-lin 1-nonlin 2-no                           
   RPACOR =    2.000    partial core radius                                     
   POMASS =   55.847; ZVAL   =    8.000    mass and valenz                      
   RCORE  =    2.300    outmost cutoff radius                                   
   RWIGS  =    2.460; RWIGS  =    1.302    wigner-seitz radius (au A)           
   ENMAX  =  267.882; ENMIN  =  200.911 eV                                      
   RCLOC  =    1.701    cutoff for local pot                                    
   LCOR   =        T    correct aug charges                                     
   LPAW   =        T    paw PP                                                  
   EAUG   =  511.368                                                            
   DEXC   =    0.000                                                            
   RMAX   =    2.356    core radius for proj-oper                               
   RAUG   =    1.300    factor for augmentation sphere                          
   RDEP   =    2.442    radius for radial grids                                 
   RDEPT  =    1.890    core radius for aug-charge                              
                                                                                
   Atomic configuration                                                         
    9 entries                                                                   
     n  l   j            E        occ.                                          
     1  0  0.50     -6993.8440   2.0000                                         
     2  0  0.50      -814.6047   2.0000                                         
     2  1  1.50      -693.3689   6.0000                                         
     3  0  0.50       -89.4732   2.0000                                         
     3  1  1.50       -55.6373   6.0000                                         
     3  2  2.50        -3.8151   7.0000                                         
     4  0  0.50        -4.2551   1.0000                                         
     4  1  1.50        -3.4015   0.0000                                         
     4  3  2.50        -1.3606   0.0000                                         
   Description                                                                  
     l       E           TYP  RCUT    TYP  RCUT                                 
     2     -3.8151135     23  2.300                                             
     2     -5.1756961     23  2.300                                             
     0     -4.2550963     23  2.300                                             
     0      7.2035603     23  2.300                                             
     1     -2.7211652     23  2.300                                             
     1     18.4316424     23  2.300                                             
  local pseudopotential read in
  partial core-charges read in
  partial kinetic energy density read in
  atomic valenz-charges read in
  non local Contribution for L=           2  read in
    real space projection operators read in
  non local Contribution for L=           2  read in
    real space projection operators read in
  non local Contribution for L=           0  read in
    real space projection operators read in
  non local Contribution for L=           0  read in
    real space projection operators read in
  non local Contribution for L=           1  read in
    real space projection operators read in
  non local Contribution for L=           1  read in
    real space projection operators read in
    PAW grid and wavefunctions read in
 
   number of l-projection  operators is LMAX  =           6
   number of lm-projection operators is LMMAX =          18
 
 POTCAR:    PAW_PBE Co 02Aug2007                  
   VRHFIN =Co: d8 s1                                                            
   LEXCH  = PE                                                                  
   EATOM  =   813.3670 eV,   59.7808 Ry                                         
                                                                                
   TITEL  = PAW_PBE Co 02Aug2007                                                
   LULTRA =        F    use ultrasoft PP ?                                      
   IUNSCR =        1    unscreen: 0-lin 1-nonlin 2-no                           
   RPACOR =    2.000    partial core radius                                     
   POMASS =   58.933; ZVAL   =    9.000    mass and valenz                      
   RCORE  =    2.300    outmost cutoff radius                                   
   RWIGS  =    2.460; RWIGS  =    1.302    wigner-seitz radius (au A)           
   ENMAX  =  267.968; ENMIN  =  200.976 eV                                      
   RCLOC  =    1.203    cutoff for local pot                                    
   LCOR   =        T    correct aug charges                                     
   LPAW   =        T    paw PP                                                  
   EAUG   =  477.818                                                            
   DEXC   =    0.000                                                            
   RMAX   =    2.360    core radius for proj-oper                               
   RAUG   =    1.300    factor for augmentation sphere                          
   RDEP   =    2.393    radius for radial grids                                 
   RDEPT  =    1.864    core radius for aug-charge                              
                                                                                
   Atomic configuration                                                         
    9 entries                                                                   
     n  l   j            E        occ.                                          
     1  0  0.50     -7587.6674   2.0000                                         
     2  0  0.50      -893.6084   2.0000                                         
     2  1  1.50      -764.5805   6.0000                                         
     3  0  0.50       -97.5973   2.0000                                         
     3  1  1.50       -60.9648   6.0000                                         
     3  2  2.50        -4.2382   8.0000                                         
     4  0  0.50        -4.3746   1.0000                                         
     4  1  1.50        -4.0817   0.0000                                         
     4  3  2.50        -1.3606   0.0000                                         
   Description                                                                  
     l       E           TYP  RCUT    TYP  RCUT                                 
     2     -4.2382362     23  2.300                                             
     2     -5.5988188     23  2.300                                             
     0     -4.3745797     23  2.300                                             
     0      5.7660125     23  2.300                                             
     1     -2.7211652     23  2.300                                             
     1     16.9860234     23  2.300                                             
  local pseudopotential read in
  partial core-charges read in
  partial kinetic energy density read in
  atomic valenz-charges read in
  non local Contribution for L=           2  read in
    real space projection operators read in
  non local Contribution for L=           2  read in
    real space projection operators read in
  non local Contribution for L=           0  read in
    real space projection operators read in
  non local Contribution for L=           0  read in
    real space projection operators read in
  non local Contribution for L=           1  read in
    real space projection operators read in
  non local Contribution for L=           1  read in
    real space projection operators read in
    PAW grid and wavefunctions read in
 
   number of l-projection  operators is LMAX  =           6
   number of lm-projection operators is LMMAX =          18
 
 POTCAR:    PAW_PBE Cu 22Jun2005                  
   VRHFIN =Cu: d10 p1                                                           
   LEXCH  = PE                                                                  
   EATOM  =  1390.9808 eV,  102.2342 Ry                                         
                                                                                
   TITEL  = PAW_PBE Cu 22Jun2005                                                
   LULTRA =        F    use ultrasoft PP ?                                      
   IUNSCR =        1    unscreen: 0-lin 1-nonlin 2-no                           
   RPACOR =    2.000    partial core radius                                     
   POMASS =   63.546; ZVAL   =   11.000    mass and valenz                      
   RCORE  =    2.300    outmost cutoff radius                                   
   RWIGS  =    2.200; RWIGS  =    1.164    wigner-seitz radius (au A)           
   ENMAX  =  295.446; ENMIN  =  221.585 eV                                      
   ICORE  =        3    local potential                                         
   LCOR   =        T    correct aug charges                                     
   LPAW   =        T    paw PP                                                  
   EAUG   =  586.980                                                            
   DEXC   =    0.000                                                            
   RMAX   =    2.344    core radius for proj-oper                               
   RAUG   =    1.300    factor for augmentation sphere                          
   RDEP   =    2.302    radius for radial grids                                 
   RDEPT  =    1.771    core radius for aug-charge                              
                                                                                
   Atomic configuration                                                         
    9 entries                                                                   
     n  l   j            E        occ.                                          
     1  0  0.50     -8850.2468   2.0000                                         
     2  0  0.50     -1062.3498   2.0000                                         
     2  1  1.50      -916.8226   6.0000                                         
     3  0  0.50      -114.6929   2.0000                                         
     3  1  1.50       -72.1325   6.0000                                         
     3  2  2.50        -5.0394  10.0000                                         
     4  0  0.50        -4.6097   1.0000                                         
     4  1  0.50        -4.0817   0.0000                                         
     4  3  2.50        -1.3606   0.0000                                         
   Description                                                                  
     l       E           TYP  RCUT    TYP  RCUT                                 
     2     -5.0393973     23  2.200                                             
     2     10.8846608     23  2.200                                             
     0     -4.6097109     23  2.200                                             
     0      8.2520465     23  2.200                                             
     1     -2.7211652     23  2.200                                             
     1     21.7055443     23  2.200                                             
     3      2.7211652     23  2.300                                             
  local pseudopotential read in
  partial core-charges read in
  partial kinetic energy density read in
  atomic valenz-charges read in
  non local Contribution for L=           2  read in
    real space projection operators read in
  non local Contribution for L=           2  read in
    real space projection operators read in
  non local Contribution for L=           0  read in
    real space projection operators read in
  non local Contribution for L=           0  read in
    real space projection operators read in
  non local Contribution for L=           1  read in
    real space projection operators read in
  non local Contribution for L=           1  read in
    real space projection operators read in
    PAW grid and wavefunctions read in
 
   number of l-projection  operators is LMAX  =           6
   number of lm-projection operators is LMMAX =          18
 
 POTCAR:    PAW_PBE Ni 02Aug2007                  
   VRHFIN =Ni:                                                                  
   LEXCH  = PE                                                                  
   EATOM  =  1077.6739 eV,   79.2068 Ry                                         
                                                                                
   TITEL  = PAW_PBE Ni 02Aug2007                                                
   LULTRA =        F    use ultrasoft PP ?                                      
   IUNSCR =        1    unscreen: 0-lin 1-nonlin 2-no                           
   RPACOR =    2.000    partial core radius                                     
   POMASS =   58.690; ZVAL   =   10.000    mass and valenz                      
   RCORE  =    2.300    outmost cutoff radius                                   
   RWIGS  =    2.430; RWIGS  =    1.286    wigner-seitz radius (au A)           
   ENMAX  =  269.532; ENMIN  =  202.149 eV                                      
   RCLOC  =    1.201    cutoff for local pot                                    
   LCOR   =        T    correct aug charges                                     
   LPAW   =        T    paw PP                                                  
   EAUG   =  544.565                                                            
   DEXC   =    0.000                                                            
   RMAX   =    2.357    core radius for proj-oper                               
   RAUG   =    1.300    factor for augmentation sphere                          
   RDEP   =    2.390    radius for radial grids                                 
   RDEPT  =    1.838    core radius for aug-charge                              
                                                                                
   Atomic configuration                                                         
    9 entries                                                                   
     n  l   j            E        occ.                                          
     1  0  0.50     -8206.4253   2.0000                                         
     2  0  0.50      -976.1748   2.0000                                         
     2  1  1.50      -839.0571   6.0000                                         
     3  0  0.50      -105.9991   2.0000                                         
     3  1  1.50       -66.4603   6.0000                                         
     3  2  2.50        -4.6458   9.0000                                         
     4  0  0.50        -4.4926   1.0000                                         
     4  1  1.50        -4.0817   0.0000                                         
     4  3  2.50        -1.3606   0.0000                                         
   Description                                                                  
     l       E           TYP  RCUT    TYP  RCUT                                 
     2     -4.6457903     23  2.300                                             
     2     -6.0063729     23  2.300                                             
     0     -4.4925590     23  2.300                                             
     0      5.0102601     23  2.300                                             
     1     -2.7211652     23  2.300                                             
     1     16.5183231     23  2.300                                             
  local pseudopotential read in
  partial core-charges read in
  partial kinetic energy density read in
  atomic valenz-charges read in
  non local Contribution for L=           2  read in
    real space projection operators read in
  non local Contribution for L=           2  read in
    real space projection operators read in
  non local Contribution for L=           0  read in
    real space projection operators read in
  non local Contribution for L=           0  read in
    real space projection operators read in
  non local Contribution for L=           1  read in
    real space projection operators read in
  non local Contribution for L=           1  read in
    real space projection operators read in
    PAW grid and wavefunctions read in
 
   number of l-projection  operators is LMAX  =           6
   number of lm-projection operators is LMMAX =          18
 
 POTCAR:    PAW_PBE H 15Jun2001                   
   VRHFIN =H: ultrasoft test                                                    
   LEXCH  = PE                                                                  
   EATOM  =    12.4884 eV,    0.9179 Ry                                         
                                                                                
   TITEL  = PAW_PBE H 15Jun2001                                                 
   LULTRA =        F    use ultrasoft PP ?                                      
   IUNSCR =        0    unscreen: 0-lin 1-nonlin 2-no                           
   RPACOR =    0.000    partial core radius                                     
   POMASS =    1.000; ZVAL   =    1.000    mass and valenz                      
   RCORE  =    1.100    outmost cutoff radius                                   
   RWIGS  =    0.700; RWIGS  =    0.370    wigner-seitz radius (au A)           
   ENMAX  =  250.000; ENMIN  =  200.000 eV                                      
   RCLOC  =    0.701    cutoff for local pot                                    
   LCOR   =        T    correct aug charges                                     
   LPAW   =        T    paw PP                                                  
   EAUG   =  400.000                                                            
   RMAX   =    1.123    core radius for proj-oper                               
   RAUG   =    1.200    factor for augmentation sphere                          
   RDEP   =    1.112    radius for radial grids                                 
   RDEPT  =    0.926    core radius for aug-charge                              
                                                                                
   Atomic configuration                                                         
    2 entries                                                                   
     n  l   j            E        occ.                                          
     1  0  0.50        -6.4927   1.0000                                         
     2  1  0.50        -3.4015   0.0000                                         
   Description                                                                  
     l       E           TYP  RCUT    TYP  RCUT                                 
     0     -6.4927494     23  1.100                                             
     0      6.8029130     23  1.100                                             
     1     -4.0817478     23  1.100                                             
  local pseudopotential read in
  atomic valenz-charges read in
  non local Contribution for L=           0  read in
    real space projection operators read in
  non local Contribution for L=           0  read in
    real space projection operators read in
  non local Contribution for L=           1  read in
    real space projection operators read in
    PAW grid and wavefunctions read in
 
   number of l-projection  operators is LMAX  =           3
   number of lm-projection operators is LMMAX =           5
 
 Optimization of the real space projectors (new method)

 maximal supplied QI-value         = 14.36
 optimisation between [QCUT,QGAM] = [ 11.92, 23.98] = [ 39.79,161.09] Ry 
 Optimized for a Real-space Cutoff    1.49 Angstroem

   l    n(q)    QCUT    max X(q) W(low)/X(q) W(high)/X(q)  e(spline) 
   2     10    11.920    66.195    0.79E-04    0.18E-03    0.24E-06
   2     10    11.920    64.643    0.81E-04    0.19E-03    0.24E-06
   0     11    11.920    95.520    0.28E-04    0.54E-04    0.18E-06
   0     11    11.920    63.403    0.27E-04    0.52E-04    0.17E-06
   1     10    11.920    19.961    0.18E-04    0.11E-03    0.23E-06
   1     10    11.920    13.289    0.25E-04    0.87E-04    0.19E-06
 Optimization of the real space projectors (new method)

 maximal supplied QI-value         = 16.25
 optimisation between [QCUT,QGAM] = [ 11.86, 23.89] = [ 39.41,159.82] Ry 
 Optimized for a Real-space Cutoff    1.49 Angstroem

   l    n(q)    QCUT    max X(q) W(low)/X(q) W(high)/X(q)  e(spline) 
   2     10    11.864    80.901    0.13E-03    0.23E-03    0.37E-06
   2     10    11.864    75.754    0.13E-03    0.23E-03    0.38E-06
   0     11    11.864    58.752    0.44E-04    0.11E-04    0.20E-06
   0     11    11.864    30.679    0.36E-04    0.10E-04    0.18E-06
   1     10    11.864    17.977    0.31E-04    0.45E-04    0.10E-06
   1     10    11.864    13.559    0.25E-04    0.37E-04    0.89E-07
 Optimization of the real space projectors (new method)

 maximal supplied QI-value         = 16.25
 optimisation between [QCUT,QGAM] = [ 11.86, 23.89] = [ 39.41,159.82] Ry 
 Optimized for a Real-space Cutoff    1.33 Angstroem

   l    n(q)    QCUT    max X(q) W(low)/X(q) W(high)/X(q)  e(spline) 
   2      9    11.864    65.824    0.22E-03    0.53E-03    0.26E-06
   2      9    11.864    61.429    0.22E-03    0.53E-03    0.26E-06
   0      9    11.864    56.174    0.21E-03    0.32E-04    0.15E-06
   0      9    11.864    31.263    0.19E-03    0.30E-04    0.14E-06
   1      9    11.864    19.828    0.63E-04    0.30E-03    0.16E-06
   1      9    11.864    15.139    0.49E-04    0.25E-03    0.13E-06
 Optimization of the real space projectors (new method)

 maximal supplied QI-value         = 16.25
 optimisation between [QCUT,QGAM] = [ 11.86, 23.89] = [ 39.41,159.82] Ry 
 Optimized for a Real-space Cutoff    1.49 Angstroem

   l    n(q)    QCUT    max X(q) W(low)/X(q) W(high)/X(q)  e(spline) 
   2     10    11.864     4.610    0.10E-03    0.20E-03    0.29E-06
   2     10    11.864     8.522    0.17E-03    0.33E-03    0.50E-06
   0     11    11.864    51.609    0.52E-04    0.55E-04    0.33E-06
   0     11    11.864    27.747    0.46E-04    0.52E-04    0.31E-06
   1     10    11.864    20.408    0.54E-04    0.25E-04    0.21E-06
   1     10    11.864    13.425    0.48E-04    0.22E-04    0.18E-06
 Optimization of the real space projectors (new method)

 maximal supplied QI-value         = 16.25
 optimisation between [QCUT,QGAM] = [ 11.86, 23.89] = [ 39.41,159.82] Ry 
 Optimized for a Real-space Cutoff    1.33 Angstroem

   l    n(q)    QCUT    max X(q) W(low)/X(q) W(high)/X(q)  e(spline) 
   2      9    11.864    60.317    0.21E-03    0.51E-03    0.25E-06
   2      9    11.864    55.921    0.21E-03    0.51E-03    0.26E-06
   0      9    11.864    51.690    0.22E-03    0.30E-04    0.17E-06
   0      9    11.864    30.015    0.20E-03    0.28E-04    0.15E-06
   1      9    11.864    18.849    0.76E-04    0.33E-03    0.17E-06
   1      9    11.864    14.624    0.60E-04    0.28E-03    0.15E-06
 Optimization of the real space projectors (new method)

 maximal supplied QI-value         = 34.20
 optimisation between [QCUT,QGAM] = [ 11.97, 23.94] = [ 40.13,160.53] Ry 
 Optimized for a Real-space Cutoff    1.18 Angstroem

   l    n(q)    QCUT    max X(q) W(low)/X(q) W(high)/X(q)  e(spline) 
   0      8    11.971    19.460    0.15E-03    0.31E-03    0.25E-06
   0      8    11.971    12.209    0.13E-03    0.29E-03    0.25E-06
   1      8    11.971     4.655    0.22E-03    0.24E-03    0.21E-06
  PAW_PBE Pt 04Feb2005                  :
 energy of atom  1       EATOM= -729.1176
 kinetic energy error for atom=    0.0021 (will be added to EATOM!!)
  PAW_PBE Fe 06Sep2000                  :
 energy of atom  2       EATOM= -594.3153
 kinetic energy error for atom=    0.0024 (will be added to EATOM!!)
  PAW_PBE Co 02Aug2007                  :
 energy of atom  3       EATOM= -813.3670
 kinetic energy error for atom=    0.0026 (will be added to EATOM!!)
  PAW_PBE Cu 22Jun2005                  :
 energy of atom  4       EATOM=-1390.9808
 kinetic energy error for atom=    0.0036 (will be added to EATOM!!)
  PAW_PBE Ni 02Aug2007                  :
 energy of atom  5       EATOM=-1077.6739
 kinetic energy error for atom=    0.0027 (will be added to EATOM!!)
  PAW_PBE H 15Jun2001                   :
 energy of atom  6       EATOM=  -12.4884
 kinetic energy error for atom=    0.0008 (will be added to EATOM!!)
 
 
 POSCAR: 10.56                                   
  positions in direct lattice
  velocities in cartesian coordinates
 exchange correlation table for  LEXCH =        8
   RHO(1)=    0.500       N(1)  =     2000
   RHO(2)=  100.500       N(2)  =     4000
 


--------------------------------------------------------------------------------------------------------


 ion  position               nearest neighbor table
   1  0.786  0.879  0.317-  49 2.61  28 2.62  19 2.63  59 2.65  61 2.65  33 2.66  29 2.67  60 2.68
                             2 2.72  11 2.78   4 2.82  12 2.84
   2  0.042  0.881  0.316-  79 2.55  77 2.61  60 2.63  30 2.64  28 2.66  52 2.66  33 2.68  22 2.69
                             1 2.72   6 2.76   4 2.82  16 2.91
   3  0.278  0.381  0.320-  39 2.56  33 2.57  64 2.58  31 2.64  30 2.70  19 2.71  43 2.71  68 2.74
                            13 2.79  18 2.81   5 2.82  25 2.90
   4  0.874  0.962  0.424-  17 2.62  16 2.62   9 2.63  11 2.64   6 2.65  12 2.66  60 2.81   1 2.82
                             2 2.82
   5  0.121  0.460  0.431-  81 1.99   7 2.61  10 2.62  12 2.64  13 2.69  16 2.69  25 2.71  39 2.76
                            33 2.78   3 2.82
   6  0.125  0.962  0.422-   8 2.62  10 2.63  16 2.63   9 2.64  14 2.64   4 2.65   2 2.76  52 2.79
                            22 2.86
   7  0.874  0.459  0.427-   5 2.61  15 2.61   9 2.63  10 2.64  12 2.64  27 2.65  39 2.69  75 2.78
                            29 2.80
   8  0.374  0.960  0.421-  14 2.59  43 2.61  13 2.62   6 2.62  27 2.63  10 2.64  11 2.65  52 2.70
                            61 2.73
   9  0.874  0.211  0.420-  15 2.63   4 2.63   7 2.63  17 2.63   6 2.64  10 2.66  75 2.68  60 2.72
                            22 2.80
  10  0.125  0.211  0.423-   5 2.62  13 2.62   6 2.63   8 2.64   7 2.64   9 2.66  39 2.67  43 2.73
                            22 2.79
  11  0.625  0.960  0.424-  13 2.62  12 2.63  17 2.64   4 2.64  27 2.64   8 2.65   1 2.78  19 2.84
                            61 2.85
  12  0.872  0.711  0.426-  11 2.63  27 2.63   5 2.64   7 2.64  16 2.66   4 2.66  33 2.68  29 2.81
                             1 2.84
  13  0.376  0.207  0.425-   8 2.62  11 2.62  10 2.62  17 2.65  25 2.68   5 2.69  43 2.76   3 2.79
                            19 2.81
  14  0.377  0.713  0.423-  27 2.59   8 2.59   6 2.64  15 2.65  25 2.68  44 2.68  16 2.68  52 2.74
                            30 2.76
  15  0.626  0.461  0.423-   7 2.61  27 2.62   9 2.63  25 2.64  14 2.65  17 2.66  44 2.70  75 2.71
                            18 2.76
  16  0.122  0.714  0.429-  81 1.82   4 2.62   6 2.63  12 2.66  14 2.68   5 2.69  25 2.69  33 2.72
                            30 2.87   2 2.91
  17  0.625  0.210  0.422-   4 2.62  25 2.63   9 2.63  11 2.64  13 2.65  15 2.66  18 2.76  60 2.77
                            19 2.86
  18  0.547  0.376  0.318-  67 2.58  60 2.60  75 2.61  44 2.64  68 2.66  26 2.67  30 2.69  19 2.72
                            15 2.76  17 2.76   3 2.81  25 2.90
  19  0.534  0.125  0.315-  80 2.55  43 2.56  68 2.57  59 2.60   1 2.63  61 2.64   3 2.71  18 2.72
                            60 2.75  13 2.81  11 2.84  17 2.86
  20  0.547  0.124  0.040-  37 2.55  57 2.56  48 2.58  62 2.64  63 2.68  47 2.68  45 2.68  56 2.70
                            34 2.71
  21  0.121  0.460  0.128-  40 2.52  36 2.53  47 2.53  42 2.60  69 2.61  64 2.62  70 2.64  50 2.64
                            58 2.67  31 2.70  57 2.71  74 2.72
  22  0.043  0.136  0.314-  65 2.52  55 2.53  77 2.57  43 2.58  39 2.58  75 2.61  60 2.68   2 2.69
                            52 2.73  10 2.79   9 2.80   6 2.86  31 3.40
  23  0.042  0.130  0.033-  70 2.58  40 2.60  41 2.61  45 2.62  62 2.64  76 2.64  24 2.69  35 2.73
                            53 2.78
  24  0.130  0.958  0.132-  79 2.51  77 2.54  35 2.57  53 2.57  55 2.58  70 2.62  38 2.64  58 2.64
                            73 2.65  23 2.69  66 2.70  41 2.72
  25  0.378  0.460  0.429-  81 1.79  17 2.63  15 2.64  14 2.68  13 2.68  16 2.69   5 2.71  30 2.89
                            18 2.90   3 2.90
  26  0.455  0.546  0.219-  73 2.50  74 2.54  51 2.56  79 2.61  64 2.63  30 2.66  68 2.67  18 2.67
                            78 2.67  32 2.68  67 2.72  44 2.74
  27  0.623  0.711  0.424-  14 2.59  15 2.62  12 2.63   8 2.63  11 2.64   7 2.65  44 2.70  61 2.78
                            29 2.79
  28  0.956  0.790  0.221-  58 2.57  66 2.57  50 2.58  42 2.59  49 2.61   1 2.62  64 2.63   2 2.66
                            59 2.70  33 2.74  79 2.76  77 2.77
  29  0.794  0.622  0.319-  39 2.54  42 2.56  75 2.58  32 2.61  44 2.64  33 2.65   1 2.67  61 2.68
                            49 2.69  27 2.79   7 2.80  12 2.81
  30  0.291  0.630  0.319-  79 2.57  64 2.60  52 2.62  44 2.63   2 2.64  33 2.65  26 2.66  18 2.69
                             3 2.70  14 2.76  16 2.87  25 2.89
  31  0.203  0.281  0.225-  70 2.52  55 2.56  65 2.57  43 2.59  57 2.60   3 2.64  39 2.68  80 2.70
                            21 2.70  42 2.71  68 2.75  64 2.79  22 3.40
  32  0.706  0.549  0.221-  54 2.53  69 2.56  51 2.58  49 2.59  42 2.60  29 2.61  78 2.62  65 2.63
                            26 2.68  75 2.69  44 2.69  67 2.70
  33  0.041  0.630  0.326-   3 2.57  39 2.63  29 2.65  30 2.65   1 2.66   2 2.68  12 2.68  64 2.71
                            16 2.72  42 2.74  28 2.74   5 2.78
  34  0.797  0.862  0.042-  50 2.38  66 2.51  48 2.53  36 2.55  71 2.56  63 2.61  20 2.71  35 2.76
                            62 2.76
  35  0.056  0.866  0.038-  58 2.54  72 2.55  36 2.56  24 2.57  66 2.62  53 2.65  23 2.73  62 2.73
                            34 2.76
  36  0.046  0.628  0.037-  21 2.53  34 2.55  35 2.56  58 2.58  50 2.61  47 2.63  72 2.64  40 2.69
                            71 2.72
  37  0.627  0.222  0.129-  51 2.51  74 2.51  67 2.52  56 2.53  41 2.55  20 2.55  68 2.56  59 2.56
                            62 2.59  66 2.66  57 2.73  48 2.89
  38  0.382  0.955  0.130-  53 2.47  80 2.48  45 2.49  78 2.53  48 2.54  73 2.55  63 2.55  54 2.56
                            55 2.59  57 2.62  24 2.64  70 2.67
  39  0.035  0.383  0.325-  29 2.54   3 2.56  22 2.58  75 2.59  33 2.63  10 2.67  42 2.67  31 2.68
                             7 2.69  65 2.76   5 2.76  43 2.79
  40  0.031  0.382  0.038-  69 2.44  21 2.52  71 2.53  76 2.56  70 2.57  23 2.60  36 2.69  45 2.78
                            47 2.78
  41  0.872  0.215  0.128-  76 2.45  65 2.52  77 2.53  67 2.54  37 2.55  69 2.57  62 2.57  51 2.59
                            23 2.61  70 2.65  66 2.66  24 2.72
  42  0.955  0.545  0.224-  29 2.56  50 2.56  28 2.59  21 2.60  32 2.60  69 2.61  49 2.63  65 2.64
                            64 2.65  39 2.67  31 2.71  33 2.74
  43  0.296  0.116  0.321-  55 2.53  52 2.54  61 2.56  19 2.56  22 2.58  31 2.59   8 2.61  80 2.66
                             3 2.71  10 2.73  13 2.76  39 2.79
  44  0.540  0.630  0.322-  61 2.56  52 2.58  30 2.63  78 2.63  29 2.64  18 2.64  75 2.66  14 2.68
                            32 2.69  15 2.70  27 2.70  26 2.74
  45  0.295  0.119  0.039-  70 2.49  38 2.49  57 2.57  53 2.60  23 2.62  63 2.64  20 2.68  47 2.75
                            40 2.78
  46  0.548  0.625  0.044-  51 2.38  73 2.39  54 2.41  71 2.56  53 2.56  63 2.58  76 2.59  56 2.62
                            72 2.64
  47  0.296  0.379  0.039-  74 2.41  21 2.53  57 2.61  72 2.61  56 2.62  36 2.63  20 2.68  45 2.75
                            40 2.78
  48  0.625  0.950  0.132-  49 2.40  80 2.48  54 2.48  34 2.53  38 2.54  59 2.55  50 2.56  63 2.57
                            20 2.58  57 2.65  66 2.68  37 2.89
  49  0.706  0.794  0.220-  48 2.40  50 2.48  54 2.49  80 2.53  32 2.59  28 2.61   1 2.61  78 2.61
                            42 2.63  61 2.63  29 2.69  59 2.69
  50  0.866  0.706  0.129-  34 2.38  71 2.42  54 2.48  49 2.48  42 2.56  48 2.56  69 2.58  28 2.58
                            36 2.61  21 2.64  66 2.76  58 2.85
  51  0.626  0.460  0.127-  46 2.38  76 2.45  37 2.51  56 2.52  26 2.56  32 2.58  41 2.59  73 2.60
                            69 2.62  74 2.62  67 2.63  54 2.69
  52  0.298  0.875  0.318-  55 2.43  78 2.52  61 2.53  79 2.53  43 2.54  44 2.58  30 2.62   2 2.66
                             8 2.70  22 2.73  14 2.74   6 2.79
  53  0.306  0.868  0.040-  73 2.42  38 2.47  63 2.55  46 2.56  24 2.57  45 2.60  72 2.61  35 2.65
                            23 2.78
  54  0.627  0.715  0.128-  46 2.41  71 2.46  50 2.48  48 2.48  63 2.48  49 2.49  32 2.53  38 2.56
                            73 2.56  78 2.62  69 2.68  51 2.69
  55  0.224  0.028  0.227-  52 2.43  78 2.45  79 2.49  80 2.53  43 2.53  22 2.53  31 2.56  24 2.58
                            38 2.59  77 2.72  70 2.72  65 2.86
  56  0.543  0.381  0.035-  74 2.50  51 2.52  37 2.53  72 2.59  76 2.60  46 2.62  47 2.62  20 2.70
                            62 2.70
  57  0.378  0.205  0.133-  68 2.46  80 2.54  20 2.56  45 2.57  31 2.60  47 2.61  38 2.62  74 2.62
                            70 2.64  48 2.65  21 2.71  37 2.73
  58  0.136  0.705  0.132-  72 2.47  64 2.52  35 2.54  79 2.57  28 2.57  36 2.58  74 2.64  24 2.64
                            73 2.67  21 2.67  66 2.76  50 2.85
  59  0.705  0.050  0.220-  66 2.52  48 2.55  37 2.56  68 2.58  67 2.58  19 2.60  60 2.61   1 2.65
                            77 2.66  80 2.67  49 2.69  28 2.70
  60  0.792  0.130  0.317-  67 2.53  77 2.58  18 2.60  59 2.61  75 2.63   2 2.63   1 2.68  22 2.68
                             9 2.72  19 2.75  17 2.77   4 2.81
  61  0.538  0.873  0.317-  78 2.49  52 2.53  80 2.54  43 2.56  44 2.56  49 2.63  19 2.64   1 2.65
                            29 2.68   8 2.73  27 2.78  11 2.85
  62  0.797  0.123  0.035-  66 2.54  41 2.57  37 2.59  23 2.64  20 2.64  76 2.66  56 2.70  35 2.73
                            34 2.76
  63  0.546  0.870  0.036-  54 2.48  53 2.55  38 2.55  48 2.57  46 2.58  34 2.61  71 2.61  45 2.64
                            20 2.68
  64  0.207  0.543  0.224-  58 2.52   3 2.58  30 2.60  21 2.62  26 2.63  28 2.63  68 2.65  42 2.65
                            74 2.68  33 2.71  79 2.72  31 2.79
  65  0.952  0.297  0.221-  22 2.52  41 2.52  69 2.52  67 2.54  77 2.55  31 2.57  70 2.60  75 2.62
                            32 2.63  42 2.64  39 2.76  55 2.86
  66  0.872  0.964  0.129-  34 2.51  59 2.52  62 2.54  28 2.57  77 2.58  35 2.62  37 2.66  41 2.66
                            48 2.68  24 2.70  50 2.76  58 2.76
  67  0.714  0.290  0.223-  37 2.52  60 2.53  77 2.53  65 2.54  41 2.54  18 2.58  59 2.58  75 2.62
                            51 2.63  32 2.70  68 2.70  26 2.72
  68  0.458  0.291  0.221-  57 2.46  74 2.54  37 2.56  19 2.57  59 2.58  64 2.65  18 2.66  26 2.67
                            67 2.70  80 2.73   3 2.74  31 2.75
  69  0.876  0.457  0.128-  40 2.44  71 2.45  76 2.46  65 2.52  32 2.56  41 2.57  50 2.58  21 2.61
                            42 2.61  51 2.62  70 2.65  54 2.68
  70  0.128  0.207  0.129-  45 2.49  31 2.52  40 2.57  23 2.58  65 2.60  24 2.62  57 2.64  21 2.64
                            69 2.65  41 2.65  38 2.67  55 2.72
  71  0.792  0.622  0.040-  50 2.42  69 2.45  54 2.46  40 2.53  46 2.56  34 2.56  76 2.59  63 2.61
                            36 2.72
  72  0.298  0.625  0.042-  74 2.44  58 2.47  73 2.49  35 2.55  56 2.59  53 2.61  47 2.61  36 2.64
                            46 2.64
  73  0.386  0.711  0.129-  46 2.39  53 2.42  72 2.49  26 2.50  78 2.55  38 2.55  54 2.56  51 2.60
                            79 2.63  24 2.65  58 2.67  74 2.76
  74  0.382  0.452  0.126-  47 2.41  72 2.44  56 2.50  37 2.51  68 2.54  26 2.54  51 2.62  57 2.62
                            58 2.64  64 2.68  21 2.72  73 2.76
  75  0.792  0.379  0.320-  29 2.58  39 2.59  18 2.61  22 2.61  65 2.62  67 2.62  60 2.63  44 2.66
                             9 2.68  32 2.69  15 2.71   7 2.78
  76  0.791  0.377  0.039-  51 2.45  41 2.45  69 2.46  40 2.56  71 2.59  46 2.59  56 2.60  23 2.64
                            62 2.66
  77  0.956  0.053  0.221-  67 2.53  41 2.53  24 2.54  65 2.55  22 2.57  66 2.58  60 2.58   2 2.61
                            59 2.66  79 2.71  55 2.72  28 2.77
  78  0.458  0.797  0.224-  55 2.45  80 2.49  61 2.49  52 2.52  38 2.53  73 2.55  79 2.58  49 2.61
                            54 2.62  32 2.62  44 2.63  26 2.67
  79  0.213  0.798  0.225-  55 2.49  24 2.51  52 2.53   2 2.55  58 2.57  30 2.57  78 2.58  26 2.61
                            73 2.63  77 2.71  64 2.72  28 2.76
  80  0.462  0.030  0.222-  38 2.48  48 2.48  78 2.49  55 2.53  49 2.53  61 2.54  57 2.54  19 2.55
                            43 2.66  59 2.67  31 2.70  68 2.73
  81  0.217  0.552  0.476-  25 1.79  16 1.82   5 1.99
 
  LATTYP: Found a hexagonal cell.
 ALAT       =    10.5600004196
 C/A-ratio  =     2.0833332505
  
  Lattice vectors:
  
 A1 = (   5.2800002098,  -9.1452286274,   0.0000000000)
 A2 = ( -10.5600004196,   0.0000000000,   0.0000000000)
 A3 = (   0.0000000000,   0.0000000000, -22.0000000000)


Analysis of symmetry for initial positions (statically):
=====================================================================
 Subroutine PRICEL returns:
 Original cell was already a primitive cell.
 

 Routine SETGRP: Setting up the symmetry group for a 
 hexagonal supercell.


 Subroutine GETGRP returns: Found  1 space group operations
 (whereof  1 operations were pure point group operations)
 out of a pool of 24 trial point group operations.


The static configuration has the point symmetry C_1 .


Analysis of symmetry for dynamics (positions and initial velocities):
=====================================================================
 Subroutine PRICEL returns:
 Original cell was already a primitive cell.
 

 Routine SETGRP: Setting up the symmetry group for a 
 hexagonal supercell.


 Subroutine GETGRP returns: Found  1 space group operations
 (whereof  1 operations were pure point group operations)
 out of a pool of 24 trial point group operations.


The dynamic configuration has the point symmetry C_1 .


Analysis of constrained symmetry for selective dynamics:
=====================================================================
 Subroutine PRICEL returns:
 Original cell was already a primitive cell.
 

 Routine SETGRP: Setting up the symmetry group for a 
 hexagonal supercell.


 Subroutine GETGRP returns: Found  1 space group operations
 (whereof  1 operations were pure point group operations)
 out of a pool of 24 trial point group operations.


The constrained configuration has the point symmetry C_1 .


Analysis of structural, dynamic, and magnetic symmetry:
=====================================================================
 Subroutine PRICEL returns:
 Original cell was already a primitive cell.
 

 Routine SETGRP: Setting up the symmetry group for a 
 hexagonal supercell.


 Subroutine GETGRP returns: Found  1 space group operations
 (whereof  1 operations were pure point group operations)
 out of a pool of 24 trial point group operations.


The magnetic configuration has the point symmetry C_1 .


 Subroutine INISYM returns: Found  1 space group operations
 (whereof  1 operations are pure point group operations),
 and found     1 'primitive' translations

 
 
 KPOINTS: mesh auto                               

Automatic generation of k-mesh.
Space group operators:
 irot       det(A)        alpha          n_x          n_y          n_z        tau_x        tau_y        tau_z
    1     1.000000     0.000001     1.000000     0.000000     0.000000     0.000000     0.000000     0.000000
 
 Subroutine IBZKPT returns following result:
 ===========================================
 
 Found     10 irreducible k-points:
 
 Following reciprocal coordinates:
            Coordinates               Weight
  0.000000  0.000000  0.000000      1.000000
  0.250000  0.000000  0.000000      2.000000
  0.500000  0.000000  0.000000      1.000000
  0.000000  0.250000  0.000000      2.000000
  0.250000  0.250000  0.000000      2.000000
  0.500000  0.250000  0.000000      2.000000
 -0.250000  0.250000  0.000000      2.000000
  0.000000  0.500000  0.000000      1.000000
  0.250000  0.500000  0.000000      2.000000
  0.500000  0.500000  0.000000      1.000000
 
 Following cartesian coordinates:
            Coordinates               Weight
  0.000000  0.000000  0.000000      1.000000
  0.023674 -0.013668  0.000000      2.000000
  0.047348 -0.027337  0.000000      1.000000
  0.000000  0.027337  0.000000      2.000000
  0.023674  0.013668  0.000000      2.000000
  0.047348  0.000000  0.000000      2.000000
 -0.023674  0.041005  0.000000      2.000000
  0.000000  0.054673  0.000000      1.000000
  0.023674  0.041005  0.000000      2.000000
  0.047348  0.027337  0.000000      1.000000
 


--------------------------------------------------------------------------------------------------------




 Dimension of arrays:
   k-points           NKPTS =     10   k-points in BZ     NKDIM =     10   number of bands    NBANDS=    600
   number of dos      NEDOS =    301   number of ions     NIONS =     81
   non local maximal  LDIM  =      6   non local SUM 2l+1 LMDIM =     18
   total plane-waves  NPLWV = ******
   max r-space proj   IRMAX =   7802   max aug-charges    IRDMAX=  33988
   dimension x,y,z NGX =    84 NGY =   84 NGZ =  168
   dimension x,y,z NGXF=   168 NGYF=  168 NGZF=  336
   support grid    NGXF=   168 NGYF=  168 NGZF=  336
   ions per type =              32  13  10  13  12   1
   NGX,Y,Z   is equivalent  to a cutoff of  13.22, 13.22, 12.70 a.u.
   NGXF,Y,Z  is equivalent  to a cutoff of  26.45, 26.45, 25.39 a.u.

 SYSTEM =  Pt111                                   
 POSCAR =  10.56                                   

 Startparameter for this run:
   NWRITE =      2    write-flag & timer
   PREC   = accura    normal or accurate (medium, high low for compatibility)
   ISTART =      0    job   : 0-new  1-cont  2-samecut
   ICHARG =      2    charge: 1-file 2-atom 10-const
   ISPIN  =      2    spin polarized calculation?
   LNONCOLLINEAR =      F non collinear calculations
   LSORBIT =      F    spin-orbit coupling
   INIWAV =      1    electr: 0-lowe 1-rand  2-diag
   LASPH  =      F    aspherical Exc in radial PAW
   METAGGA=      F    non-selfconsistent MetaGGA calc.

 Electronic Relaxation 1
   ENCUT  =  550.0 eV  40.42 Ry    6.36 a.u.  20.19 20.19 42.07*2*pi/ulx,y,z
   ENINI  =  550.0     initial cutoff
   ENAUG  =  587.0 eV  augmentation charge cutoff
   NELM   =    200;   NELMIN=  2; NELMDL= -5     # of ELM steps 
   EDIFF  = 0.1E-05   stopping-criterion for ELM
   LREAL  =      T    real-space projection
   NLSPLINE    = F    spline interpolate recip. space projectors
   LCOMPAT=      F    compatible to vasp.4.4
   GGA_COMPAT  = T    GGA compatible to vasp.4.4-vasp.4.6
   LMAXPAW     = -100 max onsite density
   LMAXMIX     =    2 max onsite mixed and CHGCAR
   VOSKOWN=      0    Vosko Wilk Nusair interpolation
   ROPT   =   -0.00025  -0.00025  -0.00025  -0.00025
   ROPT   =   -0.00025  -0.00025
 Ionic relaxation
   EDIFFG = -.3E-01   stopping-criterion for IOM
   NSW    =    300    number of steps for IOM
   NBLOCK =      1;   KBLOCK =    300    inner block; outer block 
   IBRION =      2    ionic relax: 0-MD 1-quasi-New 2-CG
   NFREE  =      1    steps in history (QN), initial steepest desc. (CG)
   ISIF   =      2    stress and relaxation
   IWAVPR =     11    prediction:  0-non 1-charg 2-wave 3-comb
   ISYM   =      2    0-nonsym 1-usesym 2-fastsym
   LCORR  =      T    Harris-Foulkes like correction to forces

   POTIM  = 0.5000    time-step for ionic-motion
   TEIN   =    0.0    initial temperature
   TEBEG  =    0.0;   TEEND  =   0.0 temperature during run
   SMASS  =  -3.00    Nose mass-parameter (am)
   estimated Nose-frequenzy (Omega)   =  0.10E-29 period in steps =****** mass=  -0.255E-26a.u.
   SCALEE = 1.0000    scale energy and forces
   NPACO  =    256;   APACO  = 16.0  distance and # of slots for P.C.
   PSTRESS=    0.0 pullay stress

  Mass of Ions in am
   POMASS = 195.08 55.85 58.93 63.55 58.69  1.00
  Ionic Valenz
   ZVAL   =  10.00  8.00  9.00 11.00 10.00  1.00
  Atomic Wigner-Seitz radii
   RWIGS  =  -1.00 -1.00 -1.00 -1.00 -1.00 -1.00
  virtual crystal weights 
   VCA    =   1.00  1.00  1.00  1.00  1.00  1.00
   NELECT =     778.0000    total number of electrons
   NUPDOWN=      -1.0000    fix difference up-down

 DOS related values:
   EMIN   =  10.00;   EMAX   =-10.00  energy-range for DOS
   EFERMI =   0.00
   ISMEAR =     1;   SIGMA  =   0.10  broadening in eV -4-tet -1-fermi 0-gaus

 Electronic relaxation 2 (details)
   IALGO  =     68    algorithm
   LDIAG  =      T    sub-space diagonalisation (order eigenvalues)
   LSUBROT=      F    optimize rotation matrix (better conditioning)
   TURBO    =      0    0=normal 1=particle mesh
   IRESTART =      0    0=no restart 2=restart with 2 vectors
   NREBOOT  =      0    no. of reboots
   NMIN     =      0    reboot dimension
   EREF     =   0.00    reference energy to select bands
   IMIX   =      4    mixing-type and parameters
     AMIX     =   0.40;   BMIX     =  1.00
     AMIX_MAG =   1.60;   BMIX_MAG =  1.00
     AMIN     =   0.10
     WC   =   100.;   INIMIX=   1;  MIXPRE=   1;  MAXMIX= -45

 Intra band minimization:
   WEIMIN = 0.0010     energy-eigenvalue tresh-hold
   EBREAK =  0.42E-09  absolut break condition
   DEPER  =   0.30     relativ break condition  

   TIME   =   0.40     timestep for ELM

  volume/ion in A,a.u.               =      26.23       177.01
  Fermi-wavevector in a.u.,A,eV,Ry     =   1.171227  2.213298 18.664091  1.371772
  Thomas-Fermi vector in A             =   2.307674
 
 Write flags
   LWAVE        =      F    write WAVECAR
   LDOWNSAMPLE  =      F    k-point downsampling of WAVECAR
   LCHARG       =      F    write CHGCAR
   LVTOT        =      F    write LOCPOT, total local potential
   LVHAR        =      F    write LOCPOT, Hartree potential only
   LELF         =      F    write electronic localiz. function (ELF)
   LORBIT       =      0    0 simple, 1 ext, 2 COOP (PROOUT), +10 PAW based schemes


 Dipole corrections
   LMONO  =      F    monopole corrections only (constant potential shift)
   LDIPOL =      F    correct potential (dipole corrections)
   IDIPOL =      0    1-x, 2-y, 3-z, 4-all directions 
   EPSILON=  1.0000000 bulk dielectric constant

 Exchange correlation treatment:
   GGA     =    --    GGA type
   LEXCH   =     8    internal setting for exchange type
   VOSKOWN=      0    Vosko Wilk Nusair interpolation
   LHFCALC =     F    Hartree Fock is set to
   LHFONE  =     F    Hartree Fock one center treatment
   AEXX    =    0.0000 exact exchange contribution

 Linear response parameters
   LEPSILON=     F    determine dielectric tensor
   LRPA    =     F    only Hartree local field effects (RPA)
   LNABLA  =     F    use nabla operator in PAW spheres
   LVEL    =     F    velocity operator in full k-point grid
   LINTERFAST=   F  fast interpolation
   KINTER  =     0    interpolate to denser k-point grid
   CSHIFT  =0.1000    complex shift for real part using Kramers Kronig
   OMEGAMAX=  -1.0    maximum frequency
   DEG_THRESHOLD= 0.2000000E-02 threshold for treating states as degnerate
   RTIME   =   -0.100 relaxation time in fs
  (WPLASMAI=    0.000 imaginary part of plasma frequency in eV, 0.658/RTIME)
   DFIELD  = 0.0000000 0.0000000 0.0000000 field for delta impulse in time
 
 Orbital magnetization related:
   ORBITALMAG=     F  switch on orbital magnetization
   LCHIMAG   =     F  perturbation theory with respect to B field
   DQ        =  0.001000  dq finite difference perturbation B field
   LLRAUG    =     F  two centre corrections for induced B field



--------------------------------------------------------------------------------------------------------


 conjugate gradient relaxation of ions
   using selective dynamics as specified on POSCAR
 charge density and potential will be updated during run
 spin polarized calculation
 RMM-DIIS sequential band-by-band and
  variant of blocked Davidson during initial phase
 perform sub-space diagonalisation
    before iterative eigenvector-optimisation
 modified Broyden-mixing scheme, WC =      100.0
 initial mixing is a Kerker type mixing with AMIX =  0.4000 and BMIX =      1.0000
 Hartree-type preconditioning will be used
 using additional bands          211
 real space projection scheme for non local part
 use partial core corrections
 calculate Harris-corrections to forces 
   (improved forces if not selfconsistent)
 use gradient corrections 
 use of overlap-Matrix (Vanderbilt PP)
 Methfessel and Paxton  Order N= 1 SIGMA  =   0.10


--------------------------------------------------------------------------------------------------------


  energy-cutoff  :      550.00
  volume of cell :     2124.62
      direct lattice vectors                 reciprocal lattice vectors
    10.560000420  0.000000000  0.000000000     0.094696966 -0.054673319  0.000000000
     5.280000210  9.145228627  0.000000000     0.000000000  0.109346638  0.000000000
     0.000000000  0.000000000 22.000000000     0.000000000  0.000000000  0.045454545

  length of vectors
    10.560000420 10.560000420 22.000000000     0.109346638  0.109346638  0.045454545


 
 k-points in units of 2pi/SCALE and weight: mesh auto                               
   0.00000000  0.00000000  0.00000000       0.062
   0.02367424 -0.01366833  0.00000000       0.125
   0.04734848 -0.02733666  0.00000000       0.062
   0.00000000  0.02733666  0.00000000       0.125
   0.02367424  0.01366833  0.00000000       0.125
   0.04734848  0.00000000  0.00000000       0.125
  -0.02367424  0.04100499  0.00000000       0.125
   0.00000000  0.05467332  0.00000000       0.062
   0.02367424  0.04100499  0.00000000       0.125
   0.04734848  0.02733666  0.00000000       0.062
 
 k-points in reciprocal lattice and weights: mesh auto                               
   0.00000000  0.00000000  0.00000000       0.062
   0.25000000  0.00000000  0.00000000       0.125
   0.50000000  0.00000000  0.00000000       0.062
   0.00000000  0.25000000  0.00000000       0.125
   0.25000000  0.25000000  0.00000000       0.125
   0.50000000  0.25000000  0.00000000       0.125
  -0.25000000  0.25000000  0.00000000       0.125
   0.00000000  0.50000000  0.00000000       0.062
   0.25000000  0.50000000  0.00000000       0.125
   0.50000000  0.50000000  0.00000000       0.062
 
 position of ions in fractional coordinates (direct lattice) 
   0.78638647  0.87869274  0.31729117
   0.04245415  0.88147433  0.31635715
   0.27813923  0.38112925  0.32036194
   0.87393462  0.96199996  0.42386780
   0.12084916  0.46002035  0.43071740
   0.12457377  0.96212046  0.42181742
   0.87446299  0.45943496  0.42706017
   0.37405714  0.96004213  0.42051426
   0.87378266  0.21095574  0.42030190
   0.12536594  0.21066968  0.42273069
   0.62450983  0.96027277  0.42433017
   0.87245396  0.71084221  0.42595901
   0.37563593  0.20683038  0.42453040
   0.37662557  0.71343140  0.42281392
   0.62646623  0.46109150  0.42253564
   0.12230643  0.71420514  0.42875999
   0.62522563  0.20964416  0.42209872
   0.54660569  0.37607233  0.31770599
   0.53406087  0.12471885  0.31493731
   0.54700026  0.12353325  0.03994180
   0.12080895  0.46017830  0.12803950
   0.04275346  0.13626390  0.31401474
   0.04244149  0.13021000  0.03298030
   0.13048322  0.95798537  0.13183245
   0.37789150  0.45950863  0.42936017
   0.45454095  0.54571928  0.21885182
   0.62324390  0.71057712  0.42391603
   0.95571501  0.79013093  0.22104486
   0.79412153  0.62178676  0.31897577
   0.29107675  0.63034095  0.31864833
   0.20263023  0.28057175  0.22546492
   0.70645161  0.54939058  0.22075077
   0.04051901  0.62969224  0.32611863
   0.79731809  0.86162656  0.04207609
   0.05609859  0.86571859  0.03774080
   0.04641287  0.62819901  0.03699114
   0.62737558  0.22224168  0.12875060
   0.38211413  0.95500403  0.12988305
   0.03536348  0.38304531  0.32487524
   0.03114053  0.38167600  0.03750461
   0.87224044  0.21539432  0.12829500
   0.95471211  0.54518808  0.22389055
   0.29597081  0.11607037  0.32120351
   0.54008615  0.62959403  0.32168601
   0.29525378  0.11938697  0.03940923
   0.54825113  0.62531765  0.04365578
   0.29553136  0.37948250  0.03889216
   0.62548736  0.94995762  0.13208615
   0.70634189  0.79434825  0.22010408
   0.86572308  0.70559157  0.12880862
   0.62619676  0.46010837  0.12710353
   0.29786007  0.87485126  0.31770645
   0.30581838  0.86812735  0.04029659
   0.62671135  0.71465279  0.12827184
   0.22389857  0.02823957  0.22731031
   0.54269301  0.38102257  0.03461701
   0.37824999  0.20530955  0.13259126
   0.13618402  0.70497383  0.13178299
   0.70486941  0.05028396  0.22036332
   0.79212214  0.12964953  0.31681449
   0.53803553  0.87310313  0.31699822
   0.79655062  0.12311547  0.03453465
   0.54614634  0.87048754  0.03589640
   0.20722235  0.54282065  0.22417055
   0.95151324  0.29672189  0.22129229
   0.87185770  0.96385702  0.12897658
   0.71421099  0.29004436  0.22334568
   0.45764413  0.29147175  0.22083053
   0.87581008  0.45650690  0.12794668
   0.12769165  0.20692390  0.12876336
   0.79229095  0.62176839  0.04024823
   0.29784859  0.62540744  0.04208964
   0.38567508  0.71146547  0.12891873
   0.38207648  0.45160905  0.12649526
   0.79210531  0.37877736  0.32045546
   0.79092480  0.37725959  0.03945628
   0.95559961  0.05293444  0.22143250
   0.45755740  0.79715593  0.22440887
   0.21315004  0.79768722  0.22457904
   0.46239859  0.03021630  0.22200270
   0.21745648  0.55163155  0.47601106
 
 position of ions in cartesian coordinates  (Angst):
  12.94373933  8.03584598  6.98040571
   5.10250043  8.06128427  6.95985725
   4.94951288  3.48551410  7.04796275
  14.30810993  8.79770955  9.32509163
   3.70507469  4.20699125  9.47578279
   6.39549532  8.79881160  9.27998326
  11.66014619  4.20163776  9.39532372
   9.01906616  8.77980476  9.25131373
  10.34099161  1.92923846  9.24664184
   2.43620033  1.92662237  9.30007516
  11.66506451  8.78191407  9.33526372
  12.96636119  6.50081451  9.37109826
   5.05878008  1.89151113  9.33966890
   7.74408409  6.52449327  9.30190629
   9.05004688  4.21678718  9.29578407
   5.06255927  6.53156926  9.43271980
   7.70930411  1.91724380  9.28617184
   7.75781829  3.43926746  6.98953177
   6.29819859  1.14058238  6.92862076
   6.42857854  1.12973983  0.87871960
   3.70548407  4.20843578  2.81686897
   1.17094992  1.24616448  6.90832427
   1.13569097  1.19080020  0.72556650
   6.43606578  8.76099519  2.90031393
   6.41674003  4.20231146  9.44592378
   7.68135056  4.99072754  4.81474005
  10.33330325  6.49839026  9.32615267
  14.26424239  7.22592798  4.86298700
  11.66895792  5.68638204  7.01746702
   6.40197097  5.76461210  7.01026327
   3.62119418  2.56589278  4.96022829
  10.36091172  5.02430245  4.85651690
   3.75265595  5.75867948  7.17460994
  12.96906778  7.87977186  0.92567400
   5.16339550  7.91719447  0.83029765
   3.80701088  5.74502359  0.81380505
   7.79852245  2.03245096  2.83251312
   9.07754686  8.73373018  2.85742705
   2.39591768  3.50303694  7.14725523
   2.34409331  3.49051425  0.82510140
  10.34814148  1.96983035  2.82248993
  12.96035349  4.98586960  4.92559202
   3.73830352  1.06149011  7.06647714
   9.02756658  5.75778137  7.07709226
   3.74824325  1.09182115  0.86700304
   9.09120953  5.71867289  0.96042722
   5.12447898  3.47045423  0.85562744
  11.62092318  8.68757958  2.90589533
  11.65312961  7.26449633  4.84228978
  12.86755974  6.45279623  2.83378953
   9.04201027  4.20779619  2.79627770
   7.76461728  8.00071479  6.98954182
   7.81315482  7.93922313  0.88652503
  10.39143898  6.53566319  2.82198042
   2.51347389  0.25825733  5.00082675
   7.74263770  3.48453850  0.76157429
   5.07835445  1.87760273  2.91700770
   5.16036530  6.44714688  2.89922570
   7.70892058  0.45985829  4.84799308
   9.04935970  1.18567456  6.96991887
  10.29164015  7.98472777  6.97396089
   9.06162455  1.12591908  0.75976228
  10.36347996  7.96080760  0.78972076
   5.05436124  4.96421897  4.93175206
  11.61467189  2.71358951  4.86843040
  14.29598293  8.81469279  2.83748465
   9.07350258  2.65252196  4.91360499
   6.37169315  2.66557579  4.85827162
  11.65891135  4.17485993  2.81482702
   2.44098212  1.89236634  2.83279397
  11.64953004  5.68621407  0.88546096
   6.44743266  5.71949403  0.92597203
   7.82926683  6.50651440  2.83621200
   6.41922371  4.13006800  2.78289578
  10.36457689  3.46400553  7.05002003
  10.34409694  3.45012521  0.86803825
  10.37062613  0.48409754  4.87151493
   9.04078979  7.29017323  4.93699507
   6.46265315  7.29503196  4.94073890
   5.04247138  0.27633499  4.88405930
   5.20895528  5.04479668 10.47224330
 


--------------------------------------------------------------------------------------------------------


 k-point  1 :   0.0000 0.0000 0.0000  plane waves:   62167
 k-point  2 :   0.2500 0.0000 0.0000  plane waves:   62237
 k-point  3 :   0.5000 0.0000 0.0000  plane waves:   62242
 k-point  4 :   0.0000 0.2500 0.0000  plane waves:   62237
 k-point  5 :   0.2500 0.2500 0.0000  plane waves:   62237
 k-point  6 :   0.5000 0.2500 0.0000  plane waves:   62180
 k-point  7 :  -0.2500 0.2500 0.0000  plane waves:   62180
 k-point  8 :   0.0000 0.5000 0.0000  plane waves:   62242
 k-point  9 :   0.2500 0.5000 0.0000  plane waves:   62180
 k-point 10 :   0.5000 0.5000 0.0000  plane waves:   62242

 maximum and minimum number of plane-waves per node :     15586    15521

 maximum number of plane-waves:     62242
 maximum index in each direction: 
   IXMAX=   20   IYMAX=   20   IZMAX=   42
   IXMIN=  -20   IYMIN=  -20   IZMIN=  -42


 real space projection operators:
  total allocation   :      77806.23 KBytes
  max/ min on nodes  :      19475.12      19436.77


 parallel 3D FFT for wavefunctions:
    minimum data exchange during FFTs selected (reduces bandwidth)
 parallel 3D FFT for charge:
    minimum data exchange during FFTs selected (reduces bandwidth)


 total amount of memory used by VASP MPI-rank0   275322. kBytes
=======================================================================

   base      :      30000. kBytes
   nonlr-proj:      34698. kBytes
   fftplans  :      14120. kBytes
   grid      :      42827. kBytes
   one-center:        653. kBytes
   wavefun   :     153024. kBytes
 
     INWAV:  cpu time    0.0000: real time    0.0000
 Broyden mixing: mesh for mixing (old mesh)
   NGX = 41   NGY = 41   NGZ = 85
  (NGX  =168   NGY  =168   NGZ  =336)
  gives a total of 142885 points

 initial charge density was supplied:
 charge density of overlapping atoms calculated
 number of electron     778.0000000 magnetization     231.0000000
 keeping initial charge density in first step


--------------------------------------------------------------------------------------------------------


 Maximum index for non-local projection operator         1902
 Maximum index for augmentation-charges         2095 (set IRDMAX)


--------------------------------------------------------------------------------------------------------


 First call to EWALD:  gamma=   0.138
 Maximum number of real-space cells 4x 4x 2
 Maximum number of reciprocal cells 2x 2x 4

    FEWALD:  cpu time    0.0042: real time    0.0042


--------------------------------------- Iteration      1(   1)  ---------------------------------------


    POTLOK:  cpu time    0.2539: real time    0.2817
    SETDIJ:  cpu time    0.0246: real time    0.0249
     EDDAV:  cpu time   86.7620: real time   86.9796
       DOS:  cpu time    0.0030: real time    0.0030
    --------------------------------------------
      LOOP:  cpu time   87.0434: real time   87.2893

 eigenvalue-minimisations  : 24000
 total energy-change (2. order) : 0.7823966E+04  (-0.3303123E+05)
 number of electron     778.0000000 magnetization     231.0000000
 augmentation part      778.0000000 magnetization     231.0000000

 Free energy of the ion-electron system (eV)
  ---------------------------------------------------
  alpha Z        PSCENC =      2238.96497515
  Ewald energy   TEWEN  =    223786.51336797
  -Hartree energ DENC   =   -296046.57253706
  -exchange      EXHF   =         0.00000000
  -V(xc)+E(xc)   XCENC  =      1387.85434869
  PAW double counting   =     64136.80006862   -66038.70876209
  entropy T*S    EENTRO =        -0.00148030
  eigenvalues    EBANDS =      8140.46184633
  atomic energy  EATOM  =     70218.65458108
  Solvation  Ediel_sol  =         0.00000000
  ---------------------------------------------------
  free energy    TOTEN  =      7823.96640838 eV

  energy without entropy =     7823.96788868  energy(sigma->0) =     7823.96690181


--------------------------------------------------------------------------------------------------------




--------------------------------------- Iteration      1(   2)  ---------------------------------------


     EDDAV:  cpu time   85.8414: real time   86.0444
       DOS:  cpu time    0.0036: real time    0.0036
    --------------------------------------------
      LOOP:  cpu time   85.8449: real time   86.0480

 eigenvalue-minimisations  : 24000
 total energy-change (2. order) :-0.7007478E+04  (-0.6238763E+04)
 number of electron     778.0000000 magnetization     231.0000000
 augmentation part      778.0000000 magnetization     231.0000000

 Free energy of the ion-electron system (eV)
  ---------------------------------------------------
  alpha Z        PSCENC =      2238.96497515
  Ewald energy   TEWEN  =    223786.51336797
  -Hartree energ DENC   =   -296046.57253706
  -exchange      EXHF   =         0.00000000
  -V(xc)+E(xc)   XCENC  =      1387.85434869
  PAW double counting   =     64136.80006862   -66038.70876209
  entropy T*S    EENTRO =         0.00540913
  eigenvalues    EBANDS =      1132.97656057
  atomic energy  EATOM  =     70218.65458108
  Solvation  Ediel_sol  =         0.00000000
  ---------------------------------------------------
  free energy    TOTEN  =       816.48801205 eV

  energy without entropy =      816.48260292  energy(sigma->0) =      816.48620901


--------------------------------------------------------------------------------------------------------




--------------------------------------- Iteration      1(   3)  ---------------------------------------


     EDDAV:  cpu time   86.8843: real time   87.1029
       DOS:  cpu time    0.0038: real time    0.0039
    --------------------------------------------
      LOOP:  cpu time   86.8881: real time   87.1067

 eigenvalue-minimisations  : 24000
 total energy-change (2. order) :-0.1203241E+04  (-0.9739532E+03)
 number of electron     778.0000000 magnetization     231.0000000
 augmentation part      778.0000000 magnetization     231.0000000

 Free energy of the ion-electron system (eV)
  ---------------------------------------------------
  alpha Z        PSCENC =      2238.96497515
  Ewald energy   TEWEN  =    223786.51336797
  -Hartree energ DENC   =   -296046.57253706
  -exchange      EXHF   =         0.00000000
  -V(xc)+E(xc)   XCENC  =      1387.85434869
  PAW double counting   =     64136.80006862   -66038.70876209
  entropy T*S    EENTRO =        -0.00091956
  eigenvalues    EBANDS =       -70.25841545
  atomic energy  EATOM  =     70218.65458108
  Solvation  Ediel_sol  =         0.00000000
  ---------------------------------------------------
  free energy    TOTEN  =      -386.75329266 eV

  energy without entropy =     -386.75237310  energy(sigma->0) =     -386.75298614


--------------------------------------------------------------------------------------------------------




--------------------------------------- Iteration      1(   4)  ---------------------------------------


     EDDAV:  cpu time  102.8749: real time  103.1251
       DOS:  cpu time    0.0037: real time    0.0037
    --------------------------------------------
      LOOP:  cpu time  102.8786: real time  103.1288

 eigenvalue-minimisations  : 30080
 total energy-change (2. order) :-0.1066324E+03  (-0.9910019E+02)
 number of electron     778.0000000 magnetization     231.0000000
 augmentation part      778.0000000 magnetization     231.0000000

 Free energy of the ion-electron system (eV)
  ---------------------------------------------------
  alpha Z        PSCENC =      2238.96497515
  Ewald energy   TEWEN  =    223786.51336797
  -Hartree energ DENC   =   -296046.57253706
  -exchange      EXHF   =         0.00000000
  -V(xc)+E(xc)   XCENC  =      1387.85434869
  PAW double counting   =     64136.80006862   -66038.70876209
  entropy T*S    EENTRO =         0.01193841
  eigenvalues    EBANDS =      -176.90364229
  atomic energy  EATOM  =     70218.65458108
  Solvation  Ediel_sol  =         0.00000000
  ---------------------------------------------------
  free energy    TOTEN  =      -493.38566153 eV

  energy without entropy =     -493.39759994  energy(sigma->0) =     -493.38964100


--------------------------------------------------------------------------------------------------------




--------------------------------------- Iteration      1(   5)  ---------------------------------------


     EDDAV:  cpu time   97.9436: real time   98.2009
       DOS:  cpu time    0.0039: real time    0.0039
    CHARGE:  cpu time    5.3341: real time    5.3496
    MIXING:  cpu time    0.0055: real time    0.0061
    --------------------------------------------
      LOOP:  cpu time  103.2872: real time  103.5606

 eigenvalue-minimisations  : 28320
 total energy-change (2. order) :-0.3722109E+01  (-0.3701856E+01)
 number of electron     778.0000034 magnetization     216.3308724
 augmentation part      334.8690443 magnetization     184.7135462

 Broyden mixing:
  rms(total) = 0.11914E+02    rms(broyden)= 0.11914E+02
  rms(prec ) = 0.12226E+02
  weight for this iteration     100.00

 Free energy of the ion-electron system (eV)
  ---------------------------------------------------
  alpha Z        PSCENC =      2238.96497515
  Ewald energy   TEWEN  =    223786.51336797
  -Hartree energ DENC   =   -296046.57253706
  -exchange      EXHF   =         0.00000000
  -V(xc)+E(xc)   XCENC  =      1387.85434869
  PAW double counting   =     64136.80006862   -66038.70876209
  entropy T*S    EENTRO =         0.01209950
  eigenvalues    EBANDS =      -180.62591271
  atomic energy  EATOM  =     70218.65458108
  Solvation  Ediel_sol  =         0.00000000
  ---------------------------------------------------
  free energy    TOTEN  =      -497.10777086 eV

  energy without entropy =     -497.11987036  energy(sigma->0) =     -497.11180403


--------------------------------------------------------------------------------------------------------




--------------------------------------- Iteration      1(   6)  ---------------------------------------


    POTLOK:  cpu time    0.2280: real time    0.2285
    SETDIJ:  cpu time    0.0234: real time    0.0234
    EDDIAG:  cpu time   16.7043: real time   16.7486
  RMM-DIIS:  cpu time   52.4090: real time   52.5621
    ORTHCH:  cpu time    2.5495: real time    2.5568
       DOS:  cpu time    0.0035: real time    0.0035
    CHARGE:  cpu time    5.2592: real time    5.2744
    MIXING:  cpu time    0.0052: real time    0.0085
    --------------------------------------------
      LOOP:  cpu time   77.1821: real time   77.4059

 eigenvalue-minimisations  : 24268
 total energy-change (2. order) :-0.1612594E+03  (-0.8859015E+02)
 number of electron     778.0000043 magnetization     212.2810576
 augmentation part      406.3146123 magnetization     178.1247155

 Broyden mixing:
  rms(total) = 0.19523E+02    rms(broyden)= 0.19523E+02
  rms(prec ) = 0.25692E+02
  weight for this iteration     100.00

 eigenvalues of (default mixing * dielectric matrix)
  average eigenvalue GAMMA=   0.2314
  0.2314

 Free energy of the ion-electron system (eV)
  ---------------------------------------------------
  alpha Z        PSCENC =      2238.96497515
  Ewald energy   TEWEN  =    223786.51336797
  -Hartree energ DENC   =   -294395.92029230
  -exchange      EXHF   =         0.00000000
  -V(xc)+E(xc)   XCENC  =      1343.66272194
  PAW double counting   =     69297.14473590   -70990.43004169
  entropy T*S    EENTRO =         0.00194823
  eigenvalues    EBANDS =     -2156.95919303
  atomic energy  EATOM  =     70218.65458108
  Solvation  Ediel_sol  =         0.00000000
  ---------------------------------------------------
  free energy    TOTEN  =      -658.36719677 eV

  energy without entropy =     -658.36914500  energy(sigma->0) =     -658.36784618


--------------------------------------------------------------------------------------------------------




--------------------------------------- Iteration      1(   7)  ---------------------------------------


    POTLOK:  cpu time    0.2241: real time    0.2250
    SETDIJ:  cpu time    0.0234: real time    0.0235
    EDDIAG:  cpu time   16.6081: real time   16.6560
  RMM-DIIS:  cpu time   52.1198: real time   52.2743
    ORTHCH:  cpu time    2.4894: real time    2.4953
       DOS:  cpu time    0.0036: real time    0.0036
    CHARGE:  cpu time    5.3319: real time    5.3445
    MIXING:  cpu time    0.0044: real time    0.0044
    --------------------------------------------
      LOOP:  cpu time   76.8046: real time   77.0265

 eigenvalue-minimisations  : 24033
 total energy-change (2. order) : 0.1084673E+03  (-0.1599050E+02)
 number of electron     778.0000039 magnetization     207.5251753
 augmentation part      365.2592515 magnetization     164.5968695

 Broyden mixing:
  rms(total) = 0.15953E+02    rms(broyden)= 0.15953E+02
  rms(prec ) = 0.21635E+02
  weight for this iteration     100.00

 eigenvalues of (default mixing * dielectric matrix)
  average eigenvalue GAMMA=   0.2732
  0.3894  0.1571

 Free energy of the ion-electron system (eV)
  ---------------------------------------------------
  alpha Z        PSCENC =      2238.96497515
  Ewald energy   TEWEN  =    223786.51336797
  -Hartree energ DENC   =   -295114.27153829
  -exchange      EXHF   =         0.00000000
  -V(xc)+E(xc)   XCENC  =      1363.00747173
  PAW double counting   =     70372.76543600   -72227.91068500
  entropy T*S    EENTRO =         0.00268946
  eigenvalues    EBANDS =     -1187.62615119
  atomic energy  EATOM  =     70218.65458108
  Solvation  Ediel_sol  =         0.00000000
  ---------------------------------------------------
  free energy    TOTEN  =      -549.89985310 eV

  energy without entropy =     -549.90254256  energy(sigma->0) =     -549.90074959


--------------------------------------------------------------------------------------------------------




--------------------------------------- Iteration      1(   8)  ---------------------------------------


    POTLOK:  cpu time    0.2263: real time    0.2269
    SETDIJ:  cpu time    0.0231: real time    0.0231
    EDDIAG:  cpu time   16.5603: real time   16.5999
  RMM-DIIS:  cpu time   52.4558: real time   52.5796
    ORTHCH:  cpu time    2.4758: real time    2.4817
       DOS:  cpu time    0.0038: real time    0.0038
    CHARGE:  cpu time    5.2467: real time    5.2591
    MIXING:  cpu time    0.0046: real time    0.0046
    --------------------------------------------
      LOOP:  cpu time   76.9964: real time   77.1786

 eigenvalue-minimisations  : 24044
 total energy-change (2. order) : 0.6722973E+02  (-0.9856482E+01)
[...]
   -.261E+01 0.193E+02 -.294E+04   0.273E+01 -.192E+02 0.293E+04   -.116E+00 -.620E-01 0.697E+00   0.170E-03 0.402E-02 -.476E-02
   -.187E+01 0.841E+01 -.292E+04   0.273E+00 -.876E+01 0.292E+04   0.161E+01 0.377E+00 0.150E+01   -.735E-02 -.438E-02 0.935E-02
   -.743E+00 -.463E-02 -.291E+04   0.761E+00 -.253E+00 0.291E+04   0.910E-02 0.213E+00 0.880E+00   -.451E-02 -.268E-03 -.219E-03
   -.124E+02 -.569E+01 -.295E+04   0.126E+02 0.534E+01 0.295E+04   -.184E+00 0.338E+00 0.130E+01   -.342E-02 0.178E-02 0.162E-02
   0.110E+02 -.170E+02 -.293E+04   -.113E+02 0.172E+02 0.293E+04   0.269E+00 -.144E+00 0.182E+01   -.148E-03 0.225E-02 -.822E-02
   -.203E+02 0.138E+02 -.294E+04   0.201E+02 -.136E+02 0.294E+04   0.136E+00 -.226E+00 0.101E+01   -.809E-02 0.329E-02 -.146E-01
   -.688E+01 0.364E+01 -.290E+04   0.725E+01 -.334E+01 0.290E+04   -.322E+00 -.268E+00 0.154E+01   -.105E-02 0.554E-03 -.540E-02
   -.654E+01 -.391E+01 -.294E+04   0.676E+01 0.376E+01 0.294E+04   -.252E+00 0.111E+00 0.656E+00   -.266E-02 -.119E-02 0.110E-01
   -.847E+01 -.847E+00 -.291E+04   0.856E+01 0.605E+00 0.291E+04   -.572E-01 0.234E+00 0.110E+01   -.535E-02 -.530E-02 -.114E-01
   0.914E+00 -.164E+02 -.291E+04   -.123E+01 0.160E+02 0.291E+04   0.335E+00 0.480E+00 0.792E+00   -.475E-02 0.801E-03 0.245E-02
   0.213E+02 0.763E+01 -.291E+04   -.206E+02 -.737E+01 0.291E+04   -.748E+00 -.281E+00 0.142E+01   -.607E-02 0.531E-02 -.238E-02
   0.162E+02 -.116E+02 -.293E+04   -.159E+02 0.119E+02 0.293E+04   -.281E+00 -.202E+00 0.121E+01   0.272E-02 -.854E-02 -.778E-02
   0.104E+00 -.156E+02 -.291E+04   -.454E+00 0.160E+02 0.291E+04   0.341E+00 -.383E+00 0.311E+00   0.180E-02 0.800E-02 -.106E-01
   0.251E+02 -.241E+01 -.293E+04   -.250E+02 0.262E+01 0.293E+04   -.123E+00 -.253E+00 0.912E+00   0.845E-02 0.238E-02 -.478E-02
   0.689E+02 -.692E+02 -.154E+04   -.679E+02 0.695E+02 0.154E+04   -.965E+00 -.377E+00 0.157E+01   0.240E-02 0.316E-02 -.801E-02
   0.312E+02 -.439E+02 -.152E+04   -.323E+02 0.435E+02 0.152E+04   0.106E+01 0.413E+00 0.245E+01   -.442E-02 -.930E-03 -.539E-02
   0.334E+02 0.316E+02 0.304E+04   -.335E+02 -.318E+02 -.304E+04   0.134E+00 0.129E+00 -.235E+01   0.111E-02 0.287E-02 0.271E-02
   0.353E+02 -.839E+01 0.160E+04   -.361E+02 0.910E+01 -.160E+04   0.935E+00 -.625E+00 0.904E+00   -.402E-02 -.370E-03 0.148E-01
   -.693E+02 0.103E+02 -.148E+04   0.702E+02 -.967E+01 0.148E+04   -.867E+00 -.635E+00 0.266E+01   0.302E-02 0.374E-02 0.144E-02
   -.542E+02 0.512E+02 0.309E+04   0.548E+02 -.503E+02 -.309E+04   -.701E+00 -.876E+00 -.210E+01   0.696E-03 0.319E-02 0.341E-02
   -.417E-01 -.527E+02 0.159E+04   0.318E+00 0.522E+02 -.159E+04   -.348E+00 0.404E+00 -.735E+00   0.788E-02 -.483E-02 0.798E-03
   -.502E+01 0.107E+02 -.292E+04   0.532E+01 -.110E+02 0.292E+04   -.315E+00 0.322E+00 -.196E+00   0.524E-02 -.213E-02 0.123E-02
   -.226E+02 -.821E+01 0.770E+01   0.226E+02 0.843E+01 -.905E+01   -.408E-01 -.298E+00 0.132E+01   0.550E-02 0.309E-02 -.111E-01
   -.116E+02 0.722E+01 -.294E+04   0.112E+02 -.735E+01 0.294E+04   0.484E+00 0.148E+00 0.123E+01   0.466E-02 -.453E-03 -.497E-02
   0.178E+02 0.660E+02 0.333E+01   -.188E+02 -.671E+02 -.377E+01   0.110E+01 0.108E+01 0.345E+00   -.146E-02 -.138E-01 0.284E-02
   -.658E+02 0.771E+01 -.149E+04   0.662E+02 -.896E+01 0.148E+04   -.362E+00 0.133E+01 0.283E+01   0.130E-02 -.323E-02 -.722E-02
   0.296E+02 0.278E+02 -.155E+04   -.295E+02 -.271E+02 0.155E+04   -.148E+00 -.613E+00 0.233E+01   -.947E-02 -.360E-02 -.159E-01
   0.197E+02 -.648E+02 -.784E+02   -.207E+02 0.642E+02 0.786E+02   0.109E+01 0.558E+00 -.152E+00   -.755E-03 0.825E-02 -.382E-02
   -.222E+02 -.223E+02 0.617E+01   0.230E+02 0.229E+02 -.687E+01   -.817E+00 -.724E+00 0.656E+00   0.446E-03 0.113E-04 -.838E-02
   0.147E+02 0.154E+02 -.126E+04   -.148E+02 -.158E+02 0.126E+04   0.154E+00 0.490E+00 0.497E+00   -.372E-02 -.105E-03 -.136E-01
   -.599E+02 -.262E+01 0.244E+04   0.602E+02 0.139E+01 -.244E+04   -.410E+00 0.125E+01 -.273E+01   -.348E-02 0.275E-02 -.196E-03
   0.306E+02 -.140E+02 0.247E+04   -.304E+02 0.126E+02 -.247E+04   -.807E-01 0.144E+01 -.236E+01   0.623E-02 0.102E-02 0.277E-02
   0.229E+02 -.398E+01 0.247E+04   -.230E+02 0.456E+01 -.247E+04   0.108E+00 -.602E+00 -.289E+01   0.789E-03 -.297E-02 0.280E-02
   0.687E+01 0.517E+02 0.129E+04   -.604E+01 -.510E+02 -.129E+04   -.912E+00 -.692E+00 -.146E+00   0.367E-02 0.931E-02 0.995E-03
   0.337E+02 -.543E+02 0.128E+04   -.336E+02 0.540E+02 -.128E+04   -.129E+00 0.207E+00 -.459E+00   -.220E-02 -.674E-02 0.236E-02
   -.569E+02 -.253E+02 -.124E+04   0.570E+02 0.255E+02 0.124E+04   -.156E+00 -.206E+00 0.720E+00   -.230E-03 0.722E-02 -.107E-01
   -.934E+02 0.205E+02 0.248E+04   0.931E+02 -.203E+02 -.248E+04   0.310E+00 -.184E+00 -.269E+01   -.578E-02 -.207E-02 0.496E-02
   -.335E+02 0.462E+02 0.130E+04   0.327E+02 -.457E+02 -.130E+04   0.839E+00 -.538E+00 -.421E+00   -.285E-02 0.106E-01 -.800E-03
   -.449E+02 0.303E+01 -.451E+02   0.446E+02 -.267E+01 0.450E+02   0.205E+00 -.424E+00 -.100E-02   0.291E-03 -.540E-03 0.184E-03
   0.130E+02 -.804E+02 -.125E+04   -.132E+02 0.803E+02 0.124E+04   0.171E+00 0.225E+00 0.105E+01   0.153E-02 -.980E-03 -.630E-02
   0.141E+02 0.273E+02 -.123E+04   -.142E+02 -.273E+02 0.123E+04   0.808E-01 -.394E-01 0.314E+00   0.396E-02 -.995E-03 -.129E-01
   0.146E+02 -.465E+02 0.245E+04   -.153E+02 0.458E+02 -.245E+04   0.665E+00 0.686E+00 -.273E+01   -.161E-02 -.456E-02 0.341E-02
   0.446E+01 -.197E+02 0.276E+04   -.453E+01 0.198E+02 -.275E+04   0.831E-01 -.189E+00 -.235E+01   -.380E-02 -.438E-02 0.833E-02
   0.119E+03 0.290E+02 0.279E+04   -.120E+03 -.284E+02 -.279E+04   0.412E+00 -.671E+00 -.239E+01   0.451E-02 -.975E-03 0.464E-02
   -.363E+02 -.276E+02 0.142E+04   0.359E+02 0.265E+02 -.142E+04   0.452E+00 0.112E+01 -.425E+00   -.622E-02 0.145E-02 0.500E-02
   -.593E+02 0.673E+02 0.233E+02   0.592E+02 -.671E+02 -.242E+02   0.135E-01 -.203E+00 0.896E+00   -.494E-02 -.782E-02 0.248E-02
   -.887E+02 0.192E+02 0.141E+04   0.883E+02 -.187E+02 -.141E+04   0.518E+00 -.501E+00 -.162E+00   -.295E-02 -.903E-02 0.130E-01
   -.207E+02 0.956E+01 0.139E+04   0.208E+02 -.975E+01 -.139E+04   -.142E+00 0.264E+00 -.127E+00   0.430E-03 0.574E-02 -.241E-02
   0.473E+02 0.919E+01 -.139E+04   -.471E+02 -.934E+01 0.139E+04   -.321E+00 0.191E+00 0.147E+01   0.259E-02 -.252E-02 -.103E-01
   0.529E+02 -.806E+02 0.277E+04   -.526E+02 0.805E+02 -.276E+04   -.327E+00 0.212E+00 -.245E+01   0.721E-02 -.792E-02 0.565E-02
   -.136E+02 0.196E+01 0.138E+04   0.138E+02 -.172E+01 -.138E+04   -.115E+00 -.273E+00 -.476E+00   -.143E-01 -.893E-02 0.326E-02
   0.172E+02 -.677E+02 -.157E+02   -.165E+02 0.671E+02 0.159E+02   -.742E+00 0.638E+00 -.342E+00   0.657E-02 -.477E-02 -.563E-02
   0.308E+02 0.339E+02 0.344E+04   -.309E+02 -.331E+02 -.344E+04   0.593E-01 -.838E+00 -.359E+01   0.124E-01 0.964E-02 0.106E-01
   0.632E+02 0.824E+01 0.174E+04   -.633E+02 -.891E+01 -.174E+04   0.154E+00 0.697E+00 -.234E+00   -.467E-03 0.776E-04 0.568E-02
   0.102E+03 -.315E+02 0.172E+04   -.102E+03 0.315E+02 -.172E+04   -.181E+00 0.833E-02 0.439E-01   0.905E-02 -.549E-02 0.114E-01
   0.130E+02 0.704E+02 0.856E+02   -.136E+02 -.703E+02 -.864E+02   0.582E+00 -.256E+00 0.789E+00   -.291E-02 0.291E-02 -.323E-02
   0.124E+02 0.526E+02 -.171E+04   -.120E+02 -.522E+02 0.170E+04   -.430E+00 -.471E+00 0.140E+01   0.157E-02 0.340E-02 -.459E-02
   -.379E+02 0.317E+02 -.168E+04   0.370E+02 -.314E+02 0.167E+04   0.103E+01 -.271E+00 0.234E+01   -.253E-03 -.290E-02 -.148E-01
   -.725E+01 0.995E+02 0.339E+04   0.736E+01 -.999E+02 -.339E+04   -.154E+00 0.454E+00 -.283E+01   -.187E-03 0.118E-01 0.418E-02
   -.164E+02 -.779E+02 0.342E+04   0.155E+02 0.776E+02 -.342E+04   0.940E+00 0.337E+00 -.266E+01   -.125E-01 -.686E-02 0.285E-02
   0.108E+03 0.809E+01 -.725E+02   -.108E+03 -.784E+01 0.726E+02   -.592E-02 -.364E+00 -.197E+00   -.621E-02 0.268E-02 -.249E-05
   -.115E+03 -.428E+02 0.409E+02   0.115E+03 0.426E+02 -.411E+02   0.353E+00 0.194E+00 0.182E+00   0.277E-03 0.160E-01 -.567E-02
   -.136E+02 0.534E+02 0.181E+04   0.132E+02 -.529E+02 -.181E+04   0.425E+00 -.576E+00 -.667E+00   0.587E-03 0.490E-02 0.469E-02
   0.914E+01 -.768E+02 0.467E+02   -.867E+01 0.756E+02 -.476E+02   -.482E+00 0.127E+01 0.863E+00   -.967E-04 0.119E-01 -.898E-02
   0.562E+02 -.395E+02 0.295E+01   -.556E+02 0.390E+02 -.340E+01   -.672E+00 0.468E+00 0.511E+00   0.155E-02 0.469E-02 -.651E-02
   -.736E+02 0.120E+01 0.155E+04   0.731E+02 -.108E+01 -.155E+04   0.401E+00 -.445E-01 -.152E+00   -.840E-02 0.218E-03 0.906E-02
   -.126E+02 0.195E+02 0.162E+04   0.130E+02 -.196E+02 -.162E+04   -.407E+00 0.214E+00 -.533E+00   -.631E-03 0.277E-02 0.209E-02
   -.101E+03 -.424E+01 0.309E+04   0.101E+03 0.433E+01 -.308E+04   -.490E+00 -.422E-01 -.137E+01   -.154E-01 -.623E-02 0.456E-02
   0.702E+02 -.524E+02 0.309E+04   -.705E+02 0.530E+02 -.309E+04   0.371E+00 -.598E+00 -.820E+00   0.176E-01 -.131E-02 0.720E-02
   0.150E+02 -.403E+02 0.155E+04   -.146E+02 0.401E+02 -.155E+04   -.421E+00 0.232E+00 -.524E-01   0.931E-02 -.658E-02 0.157E-03
   0.512E+02 0.201E+01 0.159E+04   -.508E+02 -.204E+01 -.159E+04   -.510E+00 0.704E-01 -.106E+00   0.118E-01 0.379E-02 0.506E-02
   -.374E+02 -.693E+02 -.155E+04   0.373E+02 0.694E+02 0.154E+04   0.134E+00 -.965E-01 0.740E+00   -.644E-03 0.180E-02 -.687E-02
   -.540E+02 0.296E+02 0.307E+04   0.544E+02 -.290E+02 -.307E+04   -.386E+00 -.596E+00 -.195E+01   -.921E-02 0.786E-02 0.984E-02
   -.451E+02 0.752E+02 0.739E+02   0.455E+02 -.749E+02 -.742E+02   -.411E+00 -.383E+00 0.206E+00   -.121E-02 0.172E-02 -.391E-02
   -.687E-01 0.618E+02 -.243E+01   0.246E-02 -.611E+02 0.228E+01   0.850E-01 -.836E+00 0.524E-01   0.205E-02 -.555E-02 -.910E-02
   0.466E+02 0.541E+01 -.331E+02   -.463E+02 -.470E+01 0.329E+02   -.399E+00 -.696E+00 0.174E+00   0.532E-02 -.964E-02 -.771E-02
   0.261E+02 -.490E+02 0.342E+02   -.264E+02 0.486E+02 -.345E+02   0.314E+00 0.455E+00 0.219E+00   -.336E-02 -.565E-02 -.201E-02
   0.190E+01 0.110E+01 -.347E+03   -.217E+01 -.122E+01 0.349E+03   0.301E+00 0.133E+00 -.173E+01   -.328E-04 -.348E-03 0.733E-03
 -----------------------------------------------------------------------------------------------
   -.325E+01 -.132E+01 -.473E+01   -.216E-12 -.187E-12 -.180E-10   0.330E+01 0.132E+01 0.480E+01   -.365E-01 0.363E-02 -.971E-01
 
 
 POSITION                                       TOTAL-FORCE (eV/Angst)
 -----------------------------------------------------------------------------------
     12.95002      8.03515      6.98544        -0.000969      0.007218     -0.006050
      5.10555      8.05548      6.96275         0.004565      0.002707      0.003580
      4.95005      3.48014      7.04612         0.013983      0.002785      0.004785
     14.31007      8.79439      9.32171         0.003494     -0.002483      0.003602
      3.70841      4.20684      9.46476         0.002463     -0.000761     -0.019553
      6.39966      8.79567      9.27415        -0.000409     -0.011577     -0.000433
     11.66064      4.20312      9.38492         0.013296      0.007750     -0.003195
      9.02427      8.77674      9.25005         0.000926     -0.001323      0.006254
     10.34723      1.92983      9.25197        -0.004502      0.000030      0.008413
      2.43680      1.92616      9.29638         0.012408      0.000876      0.004069
     11.66604      8.78446      9.31932         0.004957     -0.001312     -0.004997
     12.97324      6.50030      9.36933         0.006405     -0.014838      0.001715
      5.05705      1.89829      9.33356         0.000968      0.005778     -0.003411
      7.73831      6.51543      9.30200        -0.000120      0.007415     -0.000136
      9.04688      4.21458      9.29321         0.002439     -0.002711      0.006573
      5.06786      6.52939      9.43688         0.000722      0.007863     -0.003505
      7.71460      1.91997      9.28734        -0.000550     -0.000301     -0.001899
      7.75293      3.44432      6.99306         0.008750     -0.005019      0.000865
      6.30127      1.13926      6.92285        -0.000823      0.000311      0.006413
      6.42858      1.12974      0.87872        -0.019176      0.007256      0.002946
      3.70548      4.20844      2.81687         0.039865      0.038400     -0.013289
      1.16604      1.24494      6.91017         0.005652      0.006360      0.003997
      1.13569      1.19080      0.72557        -0.015938      0.010506     -0.015203
      6.43607      8.76100      2.90031        -0.016217     -0.037581      0.042633
      6.41382      4.20007      9.44326         0.003026     -0.001216     -0.006846
      7.68135      4.99073      4.81474         0.034829     -0.026556     -0.031147
     10.33286      6.50121      9.32196         0.004653     -0.010819      0.002386
     14.26424      7.22593      4.86299         0.059467     -0.036524     -0.025508
     11.67476      5.68798      7.01741         0.003924     -0.002508      0.009435
      6.39993      5.76652      7.00568         0.013343      0.004182      0.017978
      3.62119      2.56589      4.96023        -0.003463     -0.025494      0.029697
     10.36091      5.02430      4.85652        -0.006735     -0.022481     -0.050108
      3.75532      5.75728      7.17849         0.003520      0.000580      0.000494
     12.96907      7.87977      0.92567        -0.040636     -0.001370      0.003774
      5.16340      7.91719      0.83030         0.014232      0.011039      0.012340
      3.80701      5.74502      0.81381         0.017709     -0.000296     -0.024207
      7.79852      2.03245      2.83251        -0.052200     -0.011162      0.030394
      9.07755      8.73373      2.85743         0.010938     -0.014200     -0.020058
      2.39348      3.49918      7.15109        -0.001140      0.000800     -0.009222
      2.34409      3.49051      0.82510        -0.002440      0.009948     -0.004426
     10.34814      1.96983      2.82249         0.000656     -0.019502      0.020063
     12.96035      4.98587      4.92559         0.000048     -0.033864     -0.045548
      3.73256      1.06401      7.07559         0.005741     -0.000006     -0.006761
      9.03313      5.75208      7.08803         0.002145      0.003926     -0.010834
      3.74824      1.09182      0.86700        -0.002419      0.018147      0.010864
      9.09121      5.71867      0.96043        -0.001436      0.014162      0.015201
      5.12448      3.47045      0.85563         0.028606      0.006655      0.004161
     11.62092      8.68758      2.90590         0.003997     -0.005350      0.044631
     11.65313      7.26450      4.84229        -0.011459      0.017829     -0.032409
     12.86756      6.45280      2.83379         0.025196      0.002177      0.005902
      9.04201      4.20780      2.79628        -0.008589      0.033087     -0.003097
      7.77098      8.01042      6.99428        -0.002582     -0.007494     -0.002263
      7.81315      7.93922      0.88653        -0.005470      0.006914      0.023255
     10.39144      6.53566      2.82198         0.011084     -0.026766     -0.007814
      2.51347      0.25826      5.00083         0.004596      0.061144     -0.023500
      7.74264      3.48454      0.76157        -0.009719     -0.009277      0.000427
      5.07835      1.87760      2.91701        -0.000227     -0.009623     -0.001516
      5.16037      6.44715      2.89923        -0.016005     -0.004919     -0.013609
      7.70892      0.45986      4.84799         0.024490      0.003844     -0.016756
      9.05053      1.18769      6.98043         0.001761      0.001614     -0.002365
     10.29345      7.98460      6.97773         0.000989      0.001358     -0.007651
      9.06162      1.12592      0.75976        -0.022488     -0.010970     -0.003293
     10.36348      7.96081      0.78972        -0.014789      0.002323      0.024510
      5.05436      4.96422      4.93175        -0.011708     -0.041341      0.000302
     11.61467      2.71359      4.86843         0.007561      0.000795      0.017680
     14.29598      8.81469      2.83748        -0.014963      0.008029      0.004839
      9.07350      2.65252      4.91360        -0.004969     -0.021021      0.037414
      6.37169      2.66558      4.85827        -0.018126      0.031743     -0.005129
     11.65891      4.17486      2.81483        -0.010812      0.011502     -0.027325
      2.44098      1.89237      2.83279         0.003452      0.040789      0.022086
     11.64953      5.68621      0.88546         0.002091      0.036129      0.007410
      6.44743      5.71949      0.92597        -0.002529      0.010379      0.028517
      7.82927      6.50651      2.83621        -0.032026      0.004564     -0.031222
      6.41922      4.13007      2.78290        -0.033991     -0.004181     -0.000744
     10.36971      3.46946      7.05063        -0.002629     -0.001295      0.001526
     10.34410      3.45013      0.86804         0.005965     -0.006294     -0.005841
     10.37063      0.48410      4.87151        -0.046195     -0.026501     -0.003827
      9.04079      7.29017      4.93700        -0.002286     -0.039731      0.012845
      6.46265      7.29503      4.94074         0.020774      0.030636      0.015594
      5.04247      0.27633      4.88406        -0.016725      0.002868     -0.012685
      5.21739      5.05442     10.46842         0.021772      0.016251      0.007815
 -----------------------------------------------------------------------------------
    total drift:                                0.014560     -0.002703     -0.032415


--------------------------------------------------------------------------------------------------------



  FREE ENERGIE OF THE ION-ELECTRON SYSTEM (eV)
  ---------------------------------------------------
  free  energy   TOTEN  =      -511.46096525 eV

  energy  without entropy=     -511.47096816  energy(sigma->0) =     -511.46429956
 
 d Force = 0.3918774E-03[ 0.179E-03, 0.605E-03]  d Energy = 0.4049964E-03-0.131E-04
 d Force =-0.1625430E+02[-0.163E+02,-0.163E+02]  d Ewald  =-0.1625430E+02-0.129E-05


--------------------------------------------------------------------------------------------------------


    POTLOK:  cpu time    0.2647: real time    0.2653


--------------------------------------------------------------------------------------------------------


 Conjugate gradient step on ions:
 trial-energy change:   -0.000405  1 .order   -0.000392   -0.000605   -0.000179
  (g-gl).g = 0.499E-03      g.g   = 0.481E-03  gl.gl    = 0.833E-03
 g(Force)  = 0.481E-03   g(Stress)= 0.000E+00 ortho     =-0.279E-05
 gamma     =   0.59970
 trial     =   1.26219
 opt step  =   1.68790  (harmonic =   1.79318) maximal distance =0.00345047
 next E    =  -511.460996   (d E  =  -0.00044)


--------------------------------------------------------------------------------------------------------


  
 reached required accuracy - stopping structural energy minimisation
     LOOP+:  cpu time 1103.2795: real time 1106.1937
    4ORBIT:  cpu time    0.0000: real time    0.0000

 total amount of memory used by VASP MPI-rank0   275322. kBytes
=======================================================================

   base      :      30000. kBytes
   nonlr-proj:      34698. kBytes
   fftplans  :      14120. kBytes
   grid      :      42827. kBytes
   one-center:        653. kBytes
   wavefun   :     153024. kBytes
 
  
  
 General timing and accounting informations for this job:
 ========================================================
  
                  Total CPU time used (sec):    16810.895
                            User time (sec):    16788.819
                          System time (sec):       22.075
                         Elapsed time (sec):    16857.455
  
                   Maximum memory used (kb):      707152.
                   Average memory used (kb):           0.
  
                          Minor page faults:      7241317
                          Major page faults:            0
                 Voluntary context switches:        30344
