 vasp.5.4.4.18Apr17-6-g9f103f2a35 (build Nov 06 2019 15:09:28) complex          
  
 executed on             LinuxIFC date 2023.08.07  10:54:27
 running on  120 total cores
 each image running on   40 cores
 distrk:  each k-point on   40 cores,    1 groups
 distr:  one band on NCORES_PER_BAND=   4 cores,   10 groups


--------------------------------------------------------------------------------------------------------


 INCAR:
 POTCAR:    PAW_PBE Pt 04Feb2005                  
 POTCAR:    PAW_PBE H 15Jun2001                   
 POTCAR:    PAW_PBE Pt 04Feb2005                  
   VRHFIN =Pt: s1d9                                                             
   LEXCH  = PE                                                                  
   EATOM  =   729.1176 eV,   53.5886 Ry                                         
                                                                                
   TITEL  = PAW_PBE Pt 04Feb2005                                                
   LULTRA =        F    use ultrasoft PP ?                                      
   IUNSCR =        1    unscreen: 0-lin 1-nonlin 2-no                           
   RPACOR =    2.330    partial core radius                                     
   POMASS =  195.080; ZVAL   =   10.000    mass and valenz                      
   RCORE  =    2.600    outmost cutoff radius                                   
   RWIGS  =    2.750; RWIGS  =    1.455    wigner-seitz radius (au A)           
   ENMAX  =  230.283; ENMIN  =  172.712 eV                                      
   ICORE  =        3    local potential                                         
   LCOR   =        T    correct aug charges                                     
   LPAW   =        T    paw PP                                                  
   EAUG   =  358.966                                                            
   DEXC   =    0.000                                                            
   RMAX   =    2.658    core radius for proj-oper                               
   RAUG   =    1.300    factor for augmentation sphere                          
   RDEP   =    2.761    radius for radial grids                                 
   RDEPT  =    2.203    core radius for aug-charge                              
                                                                                
   Atomic configuration                                                         
   16 entries                                                                   
     n  l   j            E        occ.                                          
     1  0  0.50    -78401.1885   2.0000                                         
     2  0  0.50    -13770.7750   2.0000                                         
     2  1  1.50    -11931.0468   6.0000                                         
     3  0  0.50     -3234.7234   2.0000                                         
     3  1  1.50     -2699.2216   6.0000                                         
     3  2  2.50     -2119.5714  10.0000                                         
     4  0  0.50      -695.1528   2.0000                                         
     4  1  1.50      -519.6034   6.0000                                         
     4  2  2.50      -306.6786  10.0000                                         
     4  3  3.50       -70.1041  14.0000                                         
     5  0  0.50      -101.7747   2.0000                                         
     5  1  1.50       -55.9873   6.0000                                         
     5  2  2.50        -6.1423   9.0000                                         
     6  0  0.50        -5.6573   1.0000                                         
     6  1  1.50        -6.8029   0.0000                                         
     5  3  2.50        -1.3606   0.0000                                         
   Description                                                                  
     l       E           TYP  RCUT    TYP  RCUT                                 
     2     -6.1423404     23  2.500                                             
     2     -7.5029230     23  2.500                                             
     0     -5.6573207     23  2.500                                             
     0      0.7416693     23  2.500                                             
     1     -2.7211652     23  2.600                                             
     1     20.4087390     23  2.600                                             
     3     -1.3605826     23  2.500                                             
  local pseudopotential read in
  partial core-charges read in
  partial kinetic energy density read in
  atomic valenz-charges read in
  non local Contribution for L=           2  read in
    real space projection operators read in
  non local Contribution for L=           2  read in
    real space projection operators read in
  non local Contribution for L=           0  read in
    real space projection operators read in
  non local Contribution for L=           0  read in
    real space projection operators read in
  non local Contribution for L=           1  read in
    real space projection operators read in
  non local Contribution for L=           1  read in
    real space projection operators read in
    PAW grid and wavefunctions read in
 
   number of l-projection  operators is LMAX  =           6
   number of lm-projection operators is LMMAX =          18
 
 POTCAR:    PAW_PBE H 15Jun2001                   
   VRHFIN =H: ultrasoft test                                                    
   LEXCH  = PE                                                                  
   EATOM  =    12.4884 eV,    0.9179 Ry                                         
                                                                                
   TITEL  = PAW_PBE H 15Jun2001                                                 
   LULTRA =        F    use ultrasoft PP ?                                      
   IUNSCR =        0    unscreen: 0-lin 1-nonlin 2-no                           
   RPACOR =    0.000    partial core radius                                     
   POMASS =    1.000; ZVAL   =    1.000    mass and valenz                      
   RCORE  =    1.100    outmost cutoff radius                                   
   RWIGS  =    0.700; RWIGS  =    0.370    wigner-seitz radius (au A)           
   ENMAX  =  250.000; ENMIN  =  200.000 eV                                      
   RCLOC  =    0.701    cutoff for local pot                                    
   LCOR   =        T    correct aug charges                                     
   LPAW   =        T    paw PP                                                  
   EAUG   =  400.000                                                            
   RMAX   =    1.123    core radius for proj-oper                               
   RAUG   =    1.200    factor for augmentation sphere                          
   RDEP   =    1.112    radius for radial grids                                 
   RDEPT  =    0.926    core radius for aug-charge                              
                                                                                
   Atomic configuration                                                         
    2 entries                                                                   
     n  l   j            E        occ.                                          
     1  0  0.50        -6.4927   1.0000                                         
     2  1  0.50        -3.4015   0.0000                                         
   Description                                                                  
     l       E           TYP  RCUT    TYP  RCUT                                 
     0     -6.4927494     23  1.100                                             
     0      6.8029130     23  1.100                                             
     1     -4.0817478     23  1.100                                             
  local pseudopotential read in
  atomic valenz-charges read in
  non local Contribution for L=           0  read in
    real space projection operators read in
  non local Contribution for L=           0  read in
    real space projection operators read in
  non local Contribution for L=           1  read in
    real space projection operators read in
    PAW grid and wavefunctions read in
 
   number of l-projection  operators is LMAX  =           3
   number of lm-projection operators is LMMAX =           5
 
 Optimization of the real space projectors (new method)

 maximal supplied QI-value         = 14.36
 optimisation between [QCUT,QGAM] = [ 11.92, 23.98] = [ 39.79,161.09] Ry 
 Optimized for a Real-space Cutoff    1.49 Angstroem

   l    n(q)    QCUT    max X(q) W(low)/X(q) W(high)/X(q)  e(spline) 
   2     10    11.920    66.195    0.79E-04    0.18E-03    0.24E-06
   2     10    11.920    64.643    0.81E-04    0.19E-03    0.24E-06
   0     11    11.920    95.520    0.28E-04    0.54E-04    0.18E-06
   0     11    11.920    63.403    0.27E-04    0.52E-04    0.17E-06
   1     10    11.920    19.961    0.18E-04    0.11E-03    0.23E-06
   1     10    11.920    13.289    0.25E-04    0.87E-04    0.19E-06
 Optimization of the real space projectors (new method)

 maximal supplied QI-value         = 34.20
 optimisation between [QCUT,QGAM] = [ 11.97, 23.94] = [ 40.13,160.53] Ry 
 Optimized for a Real-space Cutoff    1.18 Angstroem

   l    n(q)    QCUT    max X(q) W(low)/X(q) W(high)/X(q)  e(spline) 
   0      8    11.971    19.460    0.15E-03    0.31E-03    0.25E-06
   0      8    11.971    12.209    0.13E-03    0.29E-03    0.25E-06
   1      8    11.971     4.655    0.22E-03    0.24E-03    0.21E-06
  PAW_PBE Pt 04Feb2005                  :
 energy of atom  1       EATOM= -729.1176
 kinetic energy error for atom=    0.0021 (will be added to EATOM!!)
  PAW_PBE H 15Jun2001                   :
 energy of atom  2       EATOM=  -12.4884
 kinetic energy error for atom=    0.0008 (will be added to EATOM!!)
 
 
 POSCAR: Pt   H                                  
  positions in cartesian coordinates
  No initial velocities read in
 exchange correlation table for  LEXCH =        8
   RHO(1)=    0.500       N(1)  =     2000
   RHO(2)=  100.500       N(2)  =     4000

 VTST: version 3.2, (02/03/18)

 CHAIN: initializing optimizer
 
 OPT: Using VASP QUASI-newton optimizer
 CHAIN: Read ICHAIN            0
 CHAIN: Running the NEB
 NEB:          SPRING     -5.000000
 NEB:          LCLIMB      T
 NEB:     LTANGENTOLD      F
 NEB:           LDNEB      F
 NEB:        LDNEBORG      F
 NEB:        LNEBCELL      F
 NEB:          EFIRST      0.000000
 NEB:           ELAST      0.000000
 
 POSCAR: Pt   H                                  
  positions in cartesian coordinates
  No initial velocities read in
 
 POSCAR: Pt111\(1\1\1)\(2)                       
  positions in cartesian coordinates
  No initial velocities read in
 


--------------------------------------------------------------------------------------------------------


 ion  position               nearest neighbor table
   1  1.000  0.000  0.056-   5 2.64   9 2.64  13 2.64  29 2.64  57 2.64  37 2.64  42 2.87  14 2.87
                            54 2.87
   2  0.333  0.167  0.178-  30 2.64  26 2.64  38 2.64  42 2.64  14 2.64   6 2.64  11 2.83   7 2.87
                             9 2.87  21 2.87  13 2.87  15 2.90
   3  0.169  0.333  0.300-  15 2.60   7 2.60  43 2.62  39 2.64  27 2.65  31 2.66   8 2.80   6 2.87
                            48 2.87  14 2.88  10 2.90  12 3.32
   4  0.002  0.003  0.419-   8 2.62  16 2.62  32 2.65  40 2.65  12 2.66  60 2.68   7 2.82  27 2.86
                            63 2.89
   5  1.000  0.250  0.056-   1 2.64  45 2.64  33 2.64   9 2.64  29 2.64  25 2.64  14 2.87  10 2.87
                            18 2.87
   6  0.333  0.417  0.178-  26 2.64  62 2.64  10 2.64  34 2.64  14 2.64   2 2.64  43 2.87  45 2.87
                            49 2.87   9 2.87   3 2.87  15 2.88
   7  0.169  0.087  0.300-   3 2.60  15 2.61  11 2.63  27 2.64  35 2.66  63 2.67  16 2.82   4 2.82
                             2 2.87  14 2.87  42 2.89  12 3.31
   8  0.001  0.250  0.417-   4 2.62  48 2.64  32 2.64  36 2.65  28 2.65  12 2.69   3 2.80  27 2.85
                            31 2.85
   9  0.250  0.250  0.056-  21 2.64  13 2.64   1 2.64  49 2.64  45 2.64   5 2.64   2 2.87  14 2.87
                             6 2.87
  10  0.083  0.417  0.178-  34 2.64   6 2.64  46 2.64  14 2.64  18 2.64  22 2.64  31 2.83  39 2.84
                            33 2.87  45 2.87   5 2.87   3 2.90
  11  0.416  0.085  0.297-   7 2.63  19 2.63  35 2.64  15 2.64  23 2.65  47 2.66   2 2.83  30 2.84
                            38 2.84  24 2.85  16 2.87  20 2.88
  12  0.249  0.248  0.448-  66 1.76  65 1.83   4 2.66  16 2.68   8 2.69  52 2.70  24 2.71  48 2.71
                             7 3.31   3 3.32  15 3.32
  13  0.250  0.000  0.056-  21 2.64   9 2.64  17 2.64   1 2.64  37 2.64  41 2.64  38 2.87   2 2.87
                            42 2.87
  14  0.083  0.167  0.178-  42 2.64  54 2.64   6 2.64   2 2.64  10 2.64  18 2.64  27 2.83   5 2.87
                             1 2.87   9 2.87   7 2.87   3 2.88
  15  0.416  0.335  0.300-  43 2.60   3 2.60  55 2.61   7 2.61  11 2.64  19 2.64  24 2.81   6 2.88
                            26 2.90   2 2.90  52 3.26  12 3.32
  16  0.250  0.001  0.418-   4 2.62  40 2.64  24 2.64  20 2.65  44 2.65  12 2.68   7 2.82  11 2.87
                            35 2.87
  17  0.500  0.000  0.056-  29 2.64  25 2.64  13 2.64  21 2.64  41 2.64  53 2.64  58 2.87  30 2.87
                            38 2.87
  18  0.833  0.167  0.178-  54 2.64  58 2.64  22 2.64  10 2.64  30 2.64  14 2.64  31 2.83  27 2.84
                            23 2.84  25 2.87  29 2.87   5 2.87
  19  0.666  0.334  0.297-  55 2.63  11 2.63  59 2.64  15 2.64  23 2.64  31 2.66  26 2.83  30 2.84
                            22 2.84  24 2.85  64 2.87  28 2.88
  20  0.500  0.000  0.419-  44 2.64  28 2.64  24 2.65  32 2.65  16 2.65  56 2.65  23 2.87  47 2.88
                            11 2.88
  21  0.500  0.250  0.056-  25 2.64  61 2.64   9 2.64  13 2.64  49 2.64  17 2.64  30 2.87   2 2.87
                            26 2.87
  22  0.833  0.417  0.178-  50 2.64  26 2.64  30 2.64  18 2.64  46 2.64  10 2.64  59 2.83  31 2.84
                            19 2.84  61 2.87  25 2.87  33 2.87
  23  0.667  0.084  0.298-  47 2.64  31 2.64  19 2.64  11 2.65  51 2.65  27 2.65  30 2.84  18 2.84
                            58 2.84  32 2.86  28 2.87  20 2.87
  24  0.500  0.251  0.418-  64 2.64  16 2.64  28 2.64  20 2.65  52 2.70  12 2.71  15 2.81  19 2.85
                            11 2.85
  25  0.750  0.250  0.056-  17 2.64  21 2.64  29 2.64  61 2.64  33 2.64   5 2.64  18 2.87  22 2.87
                            30 2.87
  26  0.583  0.417  0.178-   6 2.64   2 2.64  22 2.64  30 2.64  62 2.64  50 2.64  19 2.83  55 2.87
                            49 2.87  61 2.87  21 2.87  15 2.90
  27  0.918  0.084  0.297-  63 2.63   7 2.64  31 2.64   3 2.65  51 2.65  23 2.65  14 2.83  54 2.84
                            18 2.84   8 2.85  32 2.86   4 2.86
  28  0.750  0.250  0.419-  36 2.64  20 2.64  24 2.64  32 2.64  64 2.65   8 2.65  23 2.87  31 2.88
                            19 2.88
  29  0.750  0.000  0.056-  17 2.64  25 2.64   5 2.64  53 2.64   1 2.64  57 2.64  54 2.87  18 2.87
                            58 2.87
  30  0.583  0.167  0.178-   2 2.64  38 2.64  58 2.64  26 2.64  22 2.64  18 2.64  11 2.84  19 2.84
                            23 2.84  21 2.87  17 2.87  25 2.87
  31  0.917  0.333  0.297-  27 2.64  39 2.64  59 2.64  23 2.64  19 2.66   3 2.66  10 2.83  18 2.83
                            22 2.84   8 2.85  36 2.87  28 2.88
  32  0.751  0.000  0.418-   8 2.64  56 2.64  28 2.64  60 2.64  20 2.65   4 2.65  23 2.86  27 2.86
                            51 2.86
  33  1.000  0.500  0.056-  37 2.64  41 2.64   5 2.64  45 2.64  25 2.64  61 2.64  10 2.87  46 2.87
                            22 2.87
  34  0.333  0.667  0.178-  62 2.64  10 2.64  58 2.64  46 2.64   6 2.64  38 2.64  47 2.83  39 2.83
                            41 2.87  45 2.87  53 2.87  43 2.89
  35  0.167  0.834  0.297-  11 2.64  47 2.64  63 2.65  59 2.65  39 2.66   7 2.66  40 2.82  38 2.83
                            42 2.83  46 2.83  16 2.87  44 2.88
  36  0.000  0.500  0.418-  48 2.64  28 2.64  44 2.64   8 2.65  64 2.65  40 2.65  39 2.86  31 2.87
                            59 2.87
  37  1.000  0.750  0.056-  33 2.64  41 2.64  61 2.64  57 2.64  13 2.64   1 2.64  46 2.87  50 2.87
                            42 2.87
  38  0.333  0.917  0.178-  58 2.64  30 2.64   2 2.64  42 2.64  34 2.64  46 2.64  35 2.83  47 2.84
                            11 2.84  13 2.87  17 2.87  41 2.87
  39  0.168  0.583  0.297-  43 2.64   3 2.64  47 2.64  31 2.64  35 2.66  59 2.66  34 2.83  10 2.84
                            46 2.85  36 2.86  44 2.87  48 2.91
  40  0.000  0.751  0.415-  16 2.64  64 2.64  60 2.65  44 2.65   4 2.65  36 2.65  35 2.82  63 2.83
                            59 2.83
  41  0.250  0.750  0.056-  45 2.64  33 2.64  37 2.64  53 2.64  17 2.64  13 2.64  34 2.87  46 2.87
                            38 2.87
  42  0.083  0.917  0.178-  14 2.64   2 2.64  38 2.64  46 2.64  50 2.64  54 2.64  63 2.83  35 2.83
                             1 2.87  13 2.87  37 2.87   7 2.89
  43  0.417  0.581  0.300-  15 2.60  55 2.60   3 2.62  39 2.64  51 2.65  47 2.66  56 2.81   6 2.87
                            48 2.88  62 2.88  34 2.89  52 3.26
  44  0.251  0.750  0.419-  48 2.64  20 2.64  36 2.64  56 2.65  40 2.65  16 2.65  39 2.87  47 2.87
                            35 2.88
  45  0.250  0.500  0.056-  41 2.64  53 2.64   5 2.64   9 2.64  49 2.64  33 2.64   6 2.87  10 2.87
                            34 2.87
  46  0.083  0.667  0.178-  34 2.64  50 2.64  10 2.64  42 2.64  22 2.64  38 2.64  59 2.83  35 2.83
                            39 2.85  37 2.87  33 2.87  41 2.87
  47  0.417  0.833  0.297-  39 2.64  51 2.64  23 2.64  35 2.64  11 2.66  43 2.66  58 2.83  34 2.83
                            38 2.84  56 2.85  44 2.87  20 2.88
  48  0.250  0.500  0.422-  65 2.18  36 2.64  44 2.64   8 2.64  56 2.64  52 2.70  12 2.71   3 2.87
                            43 2.88  39 2.91
  49  0.500  0.500  0.056-  61 2.64  53 2.64  57 2.64  21 2.64   9 2.64  45 2.64  26 2.87   6 2.87
                            62 2.87
  50  0.833  0.667  0.178-  22 2.64  46 2.64  26 2.64  42 2.64  54 2.64  62 2.64  59 2.83  63 2.83
                            57 2.87  61 2.87  37 2.87  55 2.89
  51  0.667  0.833  0.297-  63 2.63  55 2.64  47 2.64  43 2.65  27 2.65  23 2.65  62 2.83  54 2.83
                            58 2.84  56 2.84  32 2.86  60 2.87
  52  0.503  0.503  0.444-  65 1.84  66 1.93  60 2.64  56 2.67  64 2.67  12 2.70  48 2.70  24 2.70
                            55 3.24  43 3.26  15 3.26
  53  0.500  0.750  0.056-  49 2.64  57 2.64  45 2.64  41 2.64  29 2.64  17 2.64  62 2.87  34 2.87
                            58 2.87
  54  0.833  0.917  0.178-  18 2.64  14 2.64  50 2.64  58 2.64  42 2.64  62 2.64  63 2.82  51 2.83
                            27 2.84  29 2.87   1 2.87  57 2.87
  55  0.664  0.582  0.300-  43 2.60  15 2.61  19 2.63  51 2.64  59 2.66  63 2.67  64 2.82  60 2.83
                            26 2.87  62 2.87  50 2.89  52 3.24
  56  0.501  0.750  0.417-  60 2.62  48 2.64  32 2.64  44 2.65  20 2.65  52 2.67  43 2.81  51 2.84
                            47 2.85
  57  0.750  0.750  0.056-  61 2.64  49 2.64  53 2.64  37 2.64   1 2.64  29 2.64  50 2.87  62 2.87
                            54 2.87
  58  0.583  0.917  0.178-  38 2.64  30 2.64  18 2.64  34 2.64  62 2.64  54 2.64  47 2.83  51 2.84
                            23 2.84  17 2.87  29 2.87  53 2.87
  59  0.916  0.583  0.297-  19 2.64  31 2.64  63 2.65  35 2.65  39 2.66  55 2.66  40 2.83  22 2.83
                            50 2.83  46 2.83  64 2.86  36 2.87
  60  0.749  0.749  0.419-  56 2.62  64 2.62  52 2.64  32 2.64  40 2.65   4 2.68  55 2.83  51 2.87
                            63 2.89
  61  0.750  0.500  0.056-  49 2.64  57 2.64  21 2.64  25 2.64  37 2.64  33 2.64  22 2.87  26 2.87
                            50 2.87
  62  0.583  0.667  0.178-  34 2.64   6 2.64  26 2.64  58 2.64  54 2.64  50 2.64  51 2.83  53 2.87
                            49 2.87  57 2.87  55 2.87  43 2.88
  63  0.916  0.834  0.297-  51 2.63  27 2.63  59 2.65  35 2.65  55 2.67   7 2.67  54 2.82  40 2.83
                            42 2.83  50 2.83   4 2.89  60 2.89
  64  0.750  0.501  0.418-  60 2.62  40 2.64  24 2.64  28 2.65  36 2.65  52 2.67  55 2.82  59 2.86
                            19 2.87
  65  0.339  0.417  0.497-  12 1.83  52 1.84  48 2.18
  66  0.405  0.329  0.499-  12 1.76  52 1.93
 
  LATTYP: Found a hexagonal cell.
 ALAT       =    10.5600004196
 C/A-ratio  =     1.8939393187
  
  Lattice vectors:
  
 A1 = (  10.5600004196,   0.0000000000,   0.0000000000)
 A2 = (  -5.2800002098,   9.1452286274,   0.0000000000)
 A3 = (   0.0000000000,   0.0000000000,  20.0000000000)


Analysis of symmetry for initial positions (statically):
=====================================================================
 Subroutine PRICEL returns:
 Original cell was already a primitive cell.
 

 Routine SETGRP: Setting up the symmetry group for a 
 hexagonal supercell.


 Subroutine GETGRP returns: Found  1 space group operations
 (whereof  1 operations were pure point group operations)
 out of a pool of 24 trial point group operations.


The static configuration has the point symmetry C_1 .


Analysis of symmetry for dynamics (positions and initial velocities):
=====================================================================
 Subroutine PRICEL returns:
 Original cell was already a primitive cell.
 

 Routine SETGRP: Setting up the symmetry group for a 
 hexagonal supercell.


 Subroutine GETGRP returns: Found  1 space group operations
 (whereof  1 operations were pure point group operations)
 out of a pool of 24 trial point group operations.


The dynamic configuration has the point symmetry C_1 .


Analysis of constrained symmetry for selective dynamics:
=====================================================================
 Subroutine PRICEL returns:
 Original cell was already a primitive cell.
 

 Routine SETGRP: Setting up the symmetry group for a 
 hexagonal supercell.


 Subroutine GETGRP returns: Found  1 space group operations
 (whereof  1 operations were pure point group operations)
 out of a pool of 24 trial point group operations.


The constrained configuration has the point symmetry C_1 .


Analysis of structural, dynamic, and magnetic symmetry:
=====================================================================
 Subroutine PRICEL returns:
 Original cell was already a primitive cell.
 

 Routine SETGRP: Setting up the symmetry group for a 
 hexagonal supercell.


 Subroutine GETGRP returns: Found  1 space group operations
 (whereof  1 operations were pure point group operations)
 out of a pool of 24 trial point group operations.


The magnetic configuration has the point symmetry C_1 .


 Subroutine INISYM returns: Found  1 space group operations
 (whereof  1 operations are pure point group operations),
 and found     1 'primitive' translations

 
 
 KPOINTS: mesh auto                               

Automatic generation of k-mesh.
Space group operators:
 irot       det(A)        alpha          n_x          n_y          n_z        tau_x        tau_y        tau_z
    1     1.000000     0.000000     1.000000     0.000000     0.000000     0.000000     0.000000     0.000000
 
 Subroutine IBZKPT returns following result:
 ===========================================
 
 Found      4 irreducible k-points:
 
 Following reciprocal coordinates:
            Coordinates               Weight
  0.000000  0.000000  0.000000      1.000000
  0.500000 -0.000000  0.000000      1.000000
  0.000000  0.500000  0.000000      1.000000
  0.500000  0.500000  0.000000      1.000000
 
 Following cartesian coordinates:
            Coordinates               Weight
  0.000000  0.000000  0.000000      1.000000
  0.047348  0.027337  0.000000      1.000000
  0.000000  0.054673  0.000000      1.000000
  0.047348  0.082010  0.000000      1.000000
 


--------------------------------------------------------------------------------------------------------




 Dimension of arrays:
   k-points           NKPTS =      4   k-points in BZ     NKDIM =      4   number of bands    NBANDS=    420
   number of dos      NEDOS =    301   number of ions     NIONS =     66
   non local maximal  LDIM  =      6   non local SUM 2l+1 LMDIM =     18
   total plane-waves  NPLWV = ******
   max r-space proj   IRMAX =   8171   max aug-charges    IRDMAX=  35597
   dimension x,y,z NGX =    84 NGY =   84 NGZ =  160
   dimension x,y,z NGXF=   168 NGYF=  168 NGZF=  320
   support grid    NGXF=   168 NGYF=  168 NGZF=  320
   ions per type =              64   2
   NGX,Y,Z   is equivalent  to a cutoff of  13.22, 13.22, 13.30 a.u.
   NGXF,Y,Z  is equivalent  to a cutoff of  26.45, 26.45, 26.60 a.u.

 SYSTEM =  Pt111                                   
 POSCAR =  Pt   H                                  

 Startparameter for this run:
   NWRITE =      2    write-flag & timer
   PREC   = accura    normal or accurate (medium, high low for compatibility)
   ISTART =      0    job   : 0-new  1-cont  2-samecut
   ICHARG =      2    charge: 1-file 2-atom 10-const
   ISPIN  =      2    spin polarized calculation?
   LNONCOLLINEAR =      F non collinear calculations
   LSORBIT =      F    spin-orbit coupling
   INIWAV =      1    electr: 0-lowe 1-rand  2-diag
   LASPH  =      F    aspherical Exc in radial PAW
   METAGGA=      F    non-selfconsistent MetaGGA calc.

 Electronic Relaxation 1
   ENCUT  =  550.0 eV  40.42 Ry    6.36 a.u.  20.19 20.19 38.24*2*pi/ulx,y,z
   ENINI  =  550.0     initial cutoff
   ENAUG  =  400.0 eV  augmentation charge cutoff
   NELM   =    200;   NELMIN=  2; NELMDL= -5     # of ELM steps 
   EDIFF  = 0.1E-04   stopping-criterion for ELM
   LREAL  =      T    real-space projection
   NLSPLINE    = F    spline interpolate recip. space projectors
   LCOMPAT=      F    compatible to vasp.4.4
   GGA_COMPAT  = T    GGA compatible to vasp.4.4-vasp.4.6
   LMAXPAW     = -100 max onsite density
   LMAXMIX     =    2 max onsite mixed and CHGCAR
   VOSKOWN=      0    Vosko Wilk Nusair interpolation
   ROPT   =   -0.00025  -0.00025
 Ionic relaxation
   EDIFFG = -.5E-01   stopping-criterion for IOM
   NSW    =    300    number of steps for IOM
   NBLOCK =      1;   KBLOCK =    300    inner block; outer block 
   IBRION =      1    ionic relax: 0-MD 1-quasi-New 2-CG
   NFREE  =      0    steps in history (QN), initial steepest desc. (CG)
   ISIF   =      2    stress and relaxation
   IWAVPR =     11    prediction:  0-non 1-charg 2-wave 3-comb
   ISYM   =      2    0-nonsym 1-usesym 2-fastsym
   LCORR  =      T    Harris-Foulkes like correction to forces

   POTIM  = 0.5000    time-step for ionic-motion
   TEIN   =    0.0    initial temperature
   TEBEG  =    0.0;   TEEND  =   0.0 temperature during run
   SMASS  =  -3.00    Nose mass-parameter (am)
   estimated Nose-frequenzy (Omega)   =  0.10E-29 period in steps =****** mass=  -0.255E-26a.u.
   SCALEE = 1.0000    scale energy and forces
   NPACO  =    256;   APACO  = 16.0  distance and # of slots for P.C.
   PSTRESS=    0.0 pullay stress

  Mass of Ions in am
   POMASS = 195.08  1.00
  Ionic Valenz
   ZVAL   =  10.00  1.00
  Atomic Wigner-Seitz radii
   RWIGS  =  -1.00 -1.00
  virtual crystal weights 
   VCA    =   1.00  1.00
   NELECT =     642.0000    total number of electrons
   NUPDOWN=      -1.0000    fix difference up-down

 DOS related values:
   EMIN   =  10.00;   EMAX   =-10.00  energy-range for DOS
   EFERMI =   0.00
   ISMEAR =     1;   SIGMA  =   0.10  broadening in eV -4-tet -1-fermi 0-gaus

 Electronic relaxation 2 (details)
   IALGO  =     68    algorithm
   LDIAG  =      T    sub-space diagonalisation (order eigenvalues)
   LSUBROT=      F    optimize rotation matrix (better conditioning)
   TURBO    =      0    0=normal 1=particle mesh
   IRESTART =      0    0=no restart 2=restart with 2 vectors
   NREBOOT  =      0    no. of reboots
   NMIN     =      0    reboot dimension
   EREF     =   0.00    reference energy to select bands
   IMIX   =      4    mixing-type and parameters
     AMIX     =   0.40;   BMIX     =  1.00
     AMIX_MAG =   1.60;   BMIX_MAG =  1.00
     AMIN     =   0.10
     WC   =   100.;   INIMIX=   1;  MIXPRE=   1;  MAXMIX= -45

 Intra band minimization:
   WEIMIN = 0.0010     energy-eigenvalue tresh-hold
   EBREAK =  0.60E-08  absolut break condition
   DEPER  =   0.30     relativ break condition  

   TIME   =   0.40     timestep for ELM

  volume/ion in A,a.u.               =      29.26       197.49
  Fermi-wavevector in a.u.,A,eV,Ry     =   1.134028  2.143002 17.497349  1.286019
  Thomas-Fermi vector in A             =   2.270731
 
 Write flags
   LWAVE        =      F    write WAVECAR
   LDOWNSAMPLE  =      F    k-point downsampling of WAVECAR
   LCHARG       =      F    write CHGCAR
   LVTOT        =      F    write LOCPOT, total local potential
   LVHAR        =      F    write LOCPOT, Hartree potential only
   LELF         =      F    write electronic localiz. function (ELF)
   LORBIT       =      0    0 simple, 1 ext, 2 COOP (PROOUT), +10 PAW based schemes


 Dipole corrections
   LMONO  =      F    monopole corrections only (constant potential shift)
   LDIPOL =      F    correct potential (dipole corrections)
   IDIPOL =      0    1-x, 2-y, 3-z, 4-all directions 
   EPSILON=  1.0000000 bulk dielectric constant

 Exchange correlation treatment:
   GGA     =    --    GGA type
   LEXCH   =     8    internal setting for exchange type
   VOSKOWN=      0    Vosko Wilk Nusair interpolation
   LHFCALC =     F    Hartree Fock is set to
   LHFONE  =     F    Hartree Fock one center treatment
   AEXX    =    0.0000 exact exchange contribution

 Linear response parameters
   LEPSILON=     F    determine dielectric tensor
   LRPA    =     F    only Hartree local field effects (RPA)
   LNABLA  =     F    use nabla operator in PAW spheres
   LVEL    =     F    velocity operator in full k-point grid
   LINTERFAST=   F  fast interpolation
   KINTER  =     0    interpolate to denser k-point grid
   CSHIFT  =0.1000    complex shift for real part using Kramers Kronig
   OMEGAMAX=  -1.0    maximum frequency
   DEG_THRESHOLD= 0.2000000E-02 threshold for treating states as degnerate
   RTIME   =   -0.100 relaxation time in fs
  (WPLASMAI=    0.000 imaginary part of plasma frequency in eV, 0.658/RTIME)
   DFIELD  = 0.0000000 0.0000000 0.0000000 field for delta impulse in time
 
 Orbital magnetization related:
   ORBITALMAG=     F  switch on orbital magnetization
   LCHIMAG   =     F  perturbation theory with respect to B field
   DQ        =  0.001000  dq finite difference perturbation B field
   LLRAUG    =     F  two centre corrections for induced B field



--------------------------------------------------------------------------------------------------------


 quasi-Newton-method for relaxation of ions
   using selective dynamics as specified on POSCAR
   WARNING: If single coordinates had been selected the selection of coordinates
            is made according to the corresponding   d i r e c t   coordinates!
            Don't support selection of single cartesian coordinates -- sorry ...
  !
 charge density and potential will be updated during run
 spin polarized calculation
 RMM-DIIS sequential band-by-band and
  variant of blocked Davidson during initial phase
 perform sub-space diagonalisation
    before iterative eigenvector-optimisation
 modified Broyden-mixing scheme, WC =      100.0
 initial mixing is a Kerker type mixing with AMIX =  0.4000 and BMIX =      1.0000
 Hartree-type preconditioning will be used
 using additional bands           99
 real space projection scheme for non local part
 use partial core corrections
 calculate Harris-corrections to forces 
   (improved forces if not selfconsistent)
 use gradient corrections 
 use of overlap-Matrix (Vanderbilt PP)
 Methfessel and Paxton  Order N= 1 SIGMA  =   0.10


--------------------------------------------------------------------------------------------------------


  energy-cutoff  :      550.00
  volume of cell :     1931.47
      direct lattice vectors                 reciprocal lattice vectors
    10.560000420  0.000000000  0.000000000     0.094696966  0.054673319  0.000000000
    -5.280000210  9.145228627  0.000000000     0.000000000  0.109346638  0.000000000
     0.000000000  0.000000000 20.000000000     0.000000000  0.000000000  0.050000000

  length of vectors
    10.560000420 10.560000420 20.000000000     0.109346638  0.109346638  0.050000000


 
 k-points in units of 2pi/SCALE and weight: mesh auto                               
   0.00000000  0.00000000  0.00000000       0.250
   0.04734848  0.02733666  0.00000000       0.250
   0.00000000  0.05467332  0.00000000       0.250
   0.04734848  0.08200998  0.00000000       0.250
 
 k-points in reciprocal lattice and weights: mesh auto                               
   0.00000000  0.00000000  0.00000000       0.250
   0.50000000 -0.00000000  0.00000000       0.250
   0.00000000  0.50000000  0.00000000       0.250
   0.50000000  0.50000000  0.00000000       0.250
 
 position of ions in fractional coordinates (direct lattice) 
   0.99999844  0.00000156  0.05579229
   0.33333173  0.16666826  0.17752397
   0.16914383  0.33335229  0.29998591
   0.00244925  0.00252451  0.41853006
   0.99999844  0.25000155  0.05579229
   0.33333172  0.41666827  0.17752397
   0.16885731  0.08670198  0.29958640
   0.00125739  0.25002054  0.41727458
   0.24999844  0.25000155  0.05579229
   0.08333172  0.41666827  0.17752397
   0.41646891  0.08453776  0.29698828
   0.24860252  0.24774772  0.44789672
   0.24999844  0.00000156  0.05579229
   0.08333172  0.16666826  0.17752397
   0.41584674  0.33457497  0.30047225
   0.24970513  0.00055654  0.41830287
   0.49999844  0.00000156  0.05579229
   0.83333168  0.16666826  0.17752397
   0.66577169  0.33371947  0.29693543
   0.50015157  0.00025072  0.41893572
   0.49999843  0.25000155  0.05579229
   0.83333168  0.41666827  0.17752397
   0.66662073  0.08368090  0.29752392
   0.50005349  0.25067940  0.41784031
   0.74999841  0.25000155  0.05579229
   0.58333168  0.41666827  0.17752397
   0.91780646  0.08371261  0.29700032
   0.75022106  0.25046341  0.41878602
   0.74999842  0.00000156  0.05579229
   0.58333166  0.16666826  0.17752397
   0.91727433  0.33336332  0.29701095
   0.75071042  0.00027425  0.41799512
   0.99999844  0.50000154  0.05579229
   0.33333171  0.66666826  0.17752397
   0.16740969  0.83415095  0.29675580
   0.00041241  0.50007231  0.41836955
   0.99999843  0.75000151  0.05579229
   0.33333173  0.91666828  0.17752397
   0.16793773  0.58257519  0.29739256
   0.00021274  0.75070737  0.41542968
   0.24999843  0.75000151  0.05579229
   0.08333173  0.91666828  0.17752397
   0.41687396  0.58114918  0.29974774
   0.25059774  0.75027328  0.41854594
   0.24999844  0.50000154  0.05579229
   0.08333171  0.66666826  0.17752397
   0.41708921  0.83320199  0.29700443
   0.25013422  0.50047639  0.42173131
   0.49999844  0.50000154  0.05579229
   0.83333171  0.66666826  0.17752397
   0.66683990  0.83278176  0.29707471
   0.50336923  0.50344761  0.44425977
   0.49999843  0.75000151  0.05579229
   0.83333170  0.91666828  0.17752397
   0.66355644  0.58158627  0.29967182
   0.50081255  0.74972301  0.41717576
   0.74999841  0.75000151  0.05579229
   0.58333168  0.91666828  0.17752397
   0.91627757  0.58301874  0.29667957
   0.74886991  0.74891416  0.41899038
   0.74999839  0.50000154  0.05579229
   0.58333166  0.66666826  0.17752397
   0.91646714  0.83378770  0.29654499
   0.75012921  0.50099115  0.41806789
   0.33854001  0.41665468  0.49733586
   0.40539388  0.32912675  0.49875281
 
 position of ions in cartesian coordinates  (Angst):
  10.55997578  0.00001422  1.11584590
   2.63997474  1.52421935  3.55047947
   0.02605878  3.04858287  5.99971813
   0.01253471  0.02308722  8.37060111
   9.23997574  2.28632132  1.11584590
   1.31997457  3.81052657  3.55047947
   1.32534676  0.79290943  5.99172798
  -1.30683045  2.28649496  8.34549162
   1.31997542  2.28632132  1.11584590
  -1.32002553  3.81052657  3.55047947
   3.95155248  0.77311714  5.93976559
   1.31713473  2.26570957  8.95793435
   2.63997547  0.00001422  1.11584590
  -0.00002541  1.52421935  3.55047947
   2.62478585  3.05976460  6.00944501
   2.63394772  0.00508968  8.36605738
   5.27997557  0.00001422  1.11584590
   7.91997448  1.52421935  3.55047947
   5.26851040  3.05194087  5.93870859
   5.28027694  0.00229291  8.37871434
   3.95997540  2.28632132  1.11584590
   6.59997431  3.81052657  3.55047947
   6.59768000  0.76528100  5.95047830
   3.95697779  2.29252046  8.35680612
   6.59997527  2.28632132  1.11584590
   3.95997420  3.81052657  3.55047947
   9.25003399  0.76557095  5.94000639
   6.59988784  2.29054514  8.37572033
   7.91997543  0.00001422  1.11584590
   5.27997414  1.52421935  3.55047947
   7.92625892  3.04868376  5.94021904
   7.92605437  0.00250804  8.35990233
   7.91997567  4.57262842  1.11584590
  -0.00002559  6.09683366  3.55047947
  -2.63647079  7.62850112  5.93511596
  -2.63602681  4.57327557  8.36739105
   6.59997574  6.85893527  1.11584590
  -1.32002553  8.38314100  3.55047947
  -1.30257466  5.32778329  5.94785121
  -3.96148851  6.86539049  8.30859366
  -1.32002457  6.85893527  1.11584590
  -3.96002563  8.38314100  3.55047947
   1.33372145  5.31474211  5.99495486
  -1.31513088  6.86142070  8.37091886
  -0.00002464  4.57262842  1.11584590
  -2.64002570  6.09683366  3.55047947
   0.00515557  7.61982270  5.94008853
  -0.00109801  4.57697105  8.43462614
   2.63997546  4.57262842  1.11584590
   5.27997462  6.09683366  3.55047947
   2.64474178  7.61597957  5.94149415
   2.65737573  4.60414353  8.88519538
   1.31997553  6.85893527  1.11584590
   3.95997444  8.38314100  3.55047947
   3.93638069  5.31873938  5.99343644
   1.33004305  6.85638834  8.34351516
   3.95997540  6.85893527  1.11584590
   1.31997410  8.38314100  3.55047947
   6.59755247  5.33183970  5.93359146
   3.95379959  6.84899124  8.37980760
   5.27997509  4.57262842  1.11584590
   2.63997404  6.09683366  3.55047947
   5.27549409  7.62517916  5.93089981
   5.27613137  4.58167865  8.36135782
   1.37504590  3.81040228  9.94671724
   2.54317019  3.00993938  9.97505624
 


--------------------------------------------------------------------------------------------------------


 k-point  1 :   0.0000 0.0000 0.0000  plane waves:   56579
 k-point  2 :   0.5000-0.0000 0.0000  plane waves:   56606
 k-point  3 :   0.0000 0.5000 0.0000  plane waves:   56606
 k-point  4 :   0.5000 0.5000 0.0000  plane waves:   56606

 maximum and minimum number of plane-waves per node :     14185    14108

 maximum number of plane-waves:     56606
 maximum index in each direction: 
   IXMAX=   20   IYMAX=   20   IZMAX=   38
   IXMIN=  -20   IYMIN=  -20   IZMIN=  -38


 real space projection operators:
  total allocation   :      71341.84 KBytes
  max/ min on nodes  :      17841.59      17831.81


 parallel 3D FFT for wavefunctions:
    minimum data exchange during FFTs selected (reduces bandwidth)
 parallel 3D FFT for charge:
    minimum data exchange during FFTs selected (reduces bandwidth)


 total amount of memory used by VASP MPI-rank0   200779. kBytes
=======================================================================

   base      :      30000. kBytes
   nonlr-proj:      31121. kBytes
   fftplans  :      17093. kBytes
   grid      :      44247. kBytes
   one-center:        528. kBytes
   wavefun   :      77790. kBytes
 
     INWAV:  cpu time    0.0000: real time    0.0000
 Broyden mixing: mesh for mixing (old mesh)
   NGX = 41   NGY = 41   NGZ = 77
  (NGX  =168   NGY  =168   NGZ  =320)
  gives a total of 129437 points

 initial charge density was supplied:
 charge density of overlapping atoms calculated
 number of electron     642.0000000 magnetization      66.0000000
 keeping initial charge density in first step


--------------------------------------------------------------------------------------------------------


 Maximum index for non-local projection operator         2013
 Maximum index for augmentation-charges         2177 (set IRDMAX)


--------------------------------------------------------------------------------------------------------


 First call to EWALD:  gamma=   0.142
 Maximum number of real-space cells 4x 4x 2
 Maximum number of reciprocal cells 2x 2x 4

    FEWALD:  cpu time    0.0024: real time    0.0024


--------------------------------------- Iteration      1(   1)  ---------------------------------------


    POTLOK:  cpu time    0.3929: real time    0.4301
    SETDIJ:  cpu time    0.0329: real time    0.0330
     EDDAV:  cpu time   40.8422: real time   40.9887
       DOS:  cpu time    0.0015: real time    0.0183
    --------------------------------------------
      LOOP:  cpu time   41.2695: real time   41.4702

 eigenvalue-minimisations  :  6720
 total energy-change (2. order) : 0.4503594E+04  (-0.3124789E+05)
 number of electron     642.0000000 magnetization      66.0000000
 augmentation part      642.0000000 magnetization      66.0000000

 Free energy of the ion-electron system (eV)
  ---------------------------------------------------
  alpha Z        PSCENC =      2023.78361127
  Ewald energy   TEWEN  =    123725.90211740
  -Hartree energ DENC   =   -174841.40953481
  -exchange      EXHF   =         0.00000000
  -V(xc)+E(xc)   XCENC  =       247.34086427
  PAW double counting   =     44550.55032729   -42740.70693553
  entropy T*S    EENTRO =         0.00460465
  eigenvalues    EBANDS =      4849.75874980
  atomic energy  EATOM  =     46688.37031544
  Solvation  Ediel_sol  =         0.00000000
  ---------------------------------------------------
  free energy    TOTEN  =      4503.59411979 eV

  energy without entropy =     4503.58951514  energy(sigma->0) =     4503.59258491


--------------------------------------------------------------------------------------------------------




--------------------------------------- Iteration      1(   2)  ---------------------------------------


     EDDAV:  cpu time   45.2060: real time   45.3471
       DOS:  cpu time    0.0016: real time    0.0145
    --------------------------------------------
      LOOP:  cpu time   45.2076: real time   45.3616

 eigenvalue-minimisations  :  7530
 total energy-change (2. order) :-0.4638765E+04  (-0.4249651E+04)
 number of electron     642.0000000 magnetization      66.0000000
 augmentation part      642.0000000 magnetization      66.0000000

 Free energy of the ion-electron system (eV)
  ---------------------------------------------------
  alpha Z        PSCENC =      2023.78361127
  Ewald energy   TEWEN  =    123725.90211740
  -Hartree energ DENC   =   -174841.40953481
  -exchange      EXHF   =         0.00000000
  -V(xc)+E(xc)   XCENC  =       247.34086427
  PAW double counting   =     44550.55032729   -42740.70693553
  entropy T*S    EENTRO =        -0.00121203
  eigenvalues    EBANDS =       210.99978111
  atomic energy  EATOM  =     46688.37031544
  Solvation  Ediel_sol  =         0.00000000
  ---------------------------------------------------
  free energy    TOTEN  =      -135.17066559 eV

  energy without entropy =     -135.16945356  energy(sigma->0) =     -135.17026158


--------------------------------------------------------------------------------------------------------




--------------------------------------- Iteration      1(   3)  ---------------------------------------


     EDDAV:  cpu time   45.5606: real time   45.6947
       DOS:  cpu time    0.0016: real time    0.0047
    --------------------------------------------
      LOOP:  cpu time   45.5621: real time   45.6994

 eigenvalue-minimisations  :  7620
 total energy-change (2. order) :-0.2485444E+03  (-0.2297335E+03)
 number of electron     642.0000000 magnetization      66.0000000
 augmentation part      642.0000000 magnetization      66.0000000

 Free energy of the ion-electron system (eV)
  ---------------------------------------------------
  alpha Z        PSCENC =      2023.78361127
  Ewald energy   TEWEN  =    123725.90211740
  -Hartree energ DENC   =   -174841.40953481
  -exchange      EXHF   =         0.00000000
  -V(xc)+E(xc)   XCENC  =       247.34086427
  PAW double counting   =     44550.55032729   -42740.70693553
  entropy T*S    EENTRO =        -0.01434688
  eigenvalues    EBANDS =       -37.53152739
  atomic energy  EATOM  =     46688.37031544
  Solvation  Ediel_sol  =         0.00000000
  ---------------------------------------------------
  free energy    TOTEN  =      -383.71510893 eV

  energy without entropy =     -383.70076205  energy(sigma->0) =     -383.71032664


--------------------------------------------------------------------------------------------------------




--------------------------------------- Iteration      1(   4)  ---------------------------------------


     EDDAV:  cpu time   47.0766: real time   47.2118
       DOS:  cpu time    0.0017: real time    0.0198
    --------------------------------------------
      LOOP:  cpu time   47.0783: real time   47.2315

 eigenvalue-minimisations  :  7930
 total energy-change (2. order) :-0.6598474E+01  (-0.6534879E+01)
 number of electron     642.0000000 magnetization      66.0000000
 augmentation part      642.0000000 magnetization      66.0000000

 Free energy of the ion-electron system (eV)
  ---------------------------------------------------
  alpha Z        PSCENC =      2023.78361127
  Ewald energy   TEWEN  =    123725.90211740
  -Hartree energ DENC   =   -174841.40953481
  -exchange      EXHF   =         0.00000000
  -V(xc)+E(xc)   XCENC  =       247.34086427
  PAW double counting   =     44550.55032729   -42740.70693553
  entropy T*S    EENTRO =        -0.01840682
  eigenvalues    EBANDS =       -44.12594135
  atomic energy  EATOM  =     46688.37031544
  Solvation  Ediel_sol  =         0.00000000
  ---------------------------------------------------
  free energy    TOTEN  =      -390.31358284 eV

  energy without entropy =     -390.29517602  energy(sigma->0) =     -390.30744723


--------------------------------------------------------------------------------------------------------




--------------------------------------- Iteration      1(   5)  ---------------------------------------


     EDDAV:  cpu time   46.4954: real time   46.6058
       DOS:  cpu time    0.0020: real time    0.0042
    CHARGE:  cpu time    3.0728: real time    3.0802
    MIXING:  cpu time    0.0081: real time    0.0089
    --------------------------------------------
      LOOP:  cpu time   49.5784: real time   49.6991

 eigenvalue-minimisations  :  7840
 total energy-change (2. order) :-0.2307822E+00  (-0.2301936E+00)
 number of electron     642.0000096 magnetization      59.7517260
 augmentation part      185.6400247 magnetization      47.2480584

 Broyden mixing:
  rms(total) = 0.10484E+02    rms(broyden)= 0.10484E+02
  rms(prec ) = 0.10589E+02
  weight for this iteration     100.00

 Free energy of the ion-electron system (eV)
  ---------------------------------------------------
  alpha Z        PSCENC =      2023.78361127
  Ewald energy   TEWEN  =    123725.90211740
  -Hartree energ DENC   =   -174841.40953481
  -exchange      EXHF   =         0.00000000
  -V(xc)+E(xc)   XCENC  =       247.34086427
  PAW double counting   =     44550.55032729   -42740.70693553
  entropy T*S    EENTRO =        -0.01860032
  eigenvalues    EBANDS =       -44.35653010
  atomic energy  EATOM  =     46688.37031544
  Solvation  Ediel_sol  =         0.00000000
  ---------------------------------------------------
  free energy    TOTEN  =      -390.54436508 eV

  energy without entropy =     -390.52576477  energy(sigma->0) =     -390.53816498


--------------------------------------------------------------------------------------------------------




--------------------------------------- Iteration      1(   6)  ---------------------------------------


    POTLOK:  cpu time    0.3831: real time    0.3873
    SETDIJ:  cpu time    0.0322: real time    0.0323
    EDDIAG:  cpu time    7.2712: real time    7.2887
  RMM-DIIS:  cpu time   26.7455: real time   26.8131
    ORTHCH:  cpu time    0.6497: real time    0.6535
       DOS:  cpu time    0.0016: real time    0.0058
    CHARGE:  cpu time    2.9991: real time    3.0062
    MIXING:  cpu time    0.0086: real time    0.0089
    --------------------------------------------
      LOOP:  cpu time   38.0909: real time   38.1957

 eigenvalue-minimisations  :  6757
 total energy-change (2. order) : 0.2779357E+02  (-0.6794691E+01)
 number of electron     642.0000103 magnetization      51.9109279
 augmentation part      195.2726405 magnetization      38.5974456

 Broyden mixing:
  rms(total) = 0.67058E+01    rms(broyden)= 0.67058E+01
  rms(prec ) = 0.69780E+01
  weight for this iteration     100.00

 eigenvalues of (default mixing * dielectric matrix)
  average eigenvalue GAMMA=   1.2657
  1.2657

 Free energy of the ion-electron system (eV)
  ---------------------------------------------------
  alpha Z        PSCENC =      2023.78361127
  Ewald energy   TEWEN  =    123725.90211740
  -Hartree energ DENC   =   -174162.25116533
  -exchange      EXHF   =         0.00000000
  -V(xc)+E(xc)   XCENC  =       238.09118461
  PAW double counting   =     50835.38651207   -49132.95664926
  entropy T*S    EENTRO =        -0.02513465
  eigenvalues    EBANDS =      -579.05158172
  atomic energy  EATOM  =     46688.37031544
  Solvation  Ediel_sol  =         0.00000000
  ---------------------------------------------------
  free energy    TOTEN  =      -362.75079018 eV

  energy without entropy =     -362.72565553  energy(sigma->0) =     -362.74241196


--------------------------------------------------------------------------------------------------------




--------------------------------------- Iteration      1(   7)  ---------------------------------------


    POTLOK:  cpu time    0.3875: real time    0.3911
    SETDIJ:  cpu time    0.0322: real time    0.0322
    EDDIAG:  cpu time    7.2728: real time    7.2901
  RMM-DIIS:  cpu time   26.1722: real time   26.2472
    ORTHCH:  cpu time    0.6474: real time    0.6520
       DOS:  cpu time    0.0016: real time    0.0016
    CHARGE:  cpu time    3.0549: real time    3.0638
    MIXING:  cpu time    0.0087: real time    0.0087
    --------------------------------------------
      LOOP:  cpu time   37.5773: real time   37.6867

 eigenvalue-minimisations  :  6729
 total energy-change (2. order) :-0.1041968E+03  (-0.1157453E+02)
 number of electron     642.0000105 magnetization      46.2525673
 augmentation part      192.8810390 magnetization      34.7070821

 Broyden mixing:
  rms(total) = 0.94051E+01    rms(broyden)= 0.94051E+01
  rms(prec ) = 0.11660E+02
  weight for this iteration     100.00

 eigenvalues of (default mixing * dielectric matrix)
  average eigenvalue GAMMA=   1.0488
  1.7587  0.3388

 Free energy of the ion-electron system (eV)
  ---------------------------------------------------
  alpha Z        PSCENC =      2023.78361127
  Ewald energy   TEWEN  =    123725.90211740
  -Hartree energ DENC   =   -174711.70362025
  -exchange      EXHF   =         0.00000000
  -V(xc)+E(xc)   XCENC  =       232.62883641
  PAW double counting   =     56515.82934318   -54875.48691221
  entropy T*S    EENTRO =        -0.02428362
  eigenvalues    EBANDS =       -66.24701447
  atomic energy  EATOM  =     46688.37031544
  Solvation  Ediel_sol  =         0.00000000
  ---------------------------------------------------
  free energy    TOTEN  =      -466.94760686 eV

  energy without entropy =     -466.92332324  energy(sigma->0) =     -466.93951232


--------------------------------------------------------------------------------------------------------




--------------------------------------- Iteration      1(   8)  ---------------------------------------


    POTLOK:  cpu time    0.3839: real time    0.3875
    SETDIJ:  cpu time    0.0326: real time    0.0326
    EDDIAG:  cpu time    7.2624: real time    7.2842
  RMM-DIIS:  cpu time   26.4703: real time   26.5534
    ORTHCH:  cpu time    0.6468: real time    0.6513
       DOS:  cpu time    0.0016: real time    0.0016
    CHARGE:  cpu time    2.9931: real time    3.0019
    MIXING:  cpu time    0.0092: real time    0.0093
    --------------------------------------------
      LOOP:  cpu time   37.7999: real time   37.9218

 eigenvalue-minimisations  :  6751
 total energy-change (2. order) : 0.1087143E+03  (-0.5180050E+01)
 number of electron     642.0000106 magnetization      43.6673186
 augmentation part      198.6006965 magnetization      31.8279937

 Broyden mixing:
  rms(total) = 0.32179E+01    rms(broyden)= 0.32179E+01
  rms(prec ) = 0.39436E+01
  weight for this iteration     100.00

 eigenvalues of (default mixing * dielectric matrix)
  average eigenvalue GAMMA=   0.9971
  2.0984  0.5762  0.3168

 Free energy of the ion-electron system (eV)
  ---------------------------------------------------
  alpha Z        PSCENC =      2023.78361127
  Ewald energy   TEWEN  =    123725.90211740
  -Hartree energ DENC   =   -174197.43529941
  -exchange      EXHF   =         0.00000000
  -V(xc)+E(xc)   XCENC  =       234.49518518
  PAW double counting   =     59878.91504337   -58279.00360276
  entropy T*S    EENTRO =        -0.03180377
  eigenvalues    EBANDS =      -433.22883861
  atomic energy  EATOM  =     46688.37031544
  Solvation  Ediel_sol  =         0.00000000
  ---------------------------------------------------
  free energy    TOTEN  =      -358.23327189 eV

  energy without entropy =     -358.20146812  energy(sigma->0) =     -358.22267063


--------------------------------------------------------------------------------------------------------




--------------------------------------- Iteration      1(   9)  ---------------------------------------


    POTLOK:  cpu time    0.3855: real time    0.3887
    SETDIJ:  cpu time    0.0321: real time    0.0322
    EDDIAG:  cpu time    7.3876: real time    7.4095
  RMM-DIIS:  cpu time   26.3250: real time   26.4064
    ORTHCH:  cpu time    0.6509: real time    0.6554
       DOS:  cpu time    0.0014: real time    0.0014
    CHARGE:  cpu time    2.9956: real time    3.0044
    MIXING:  cpu time    0.0101: real time    0.0102
    --------------------------------------------
      LOOP:  cpu time   37.7882: real time   37.9082

 eigenvalue-minimisations  :  6748
 total energy-change (2. order) :-0.2359601E+02  (-0.2636157E+01)
 number of electron     642.0000103 magnetization      41.1861978
 augmentation part      197.9520068 magnetization      33.6319874

 Broyden mixing:
  rms(total) = 0.52940E+01    rms(broyden)= 0.52940E+01
  rms(prec ) = 0.78151E+01
  weight for this iteration     100.00

 eigenvalues of (default mixing * dielectric matrix)
  average eigenvalue GAMMA=   0.8652
  2.2548  0.7101  0.3181  0.1777

 Free energy of the ion-electron system (eV)
  ---------------------------------------------------
  alpha Z        PSCENC =      2023.78361127
  Ewald energy   TEWEN  =    123725.90211740
  -Hartree energ DENC   =   -174154.13569054
  -exchange      EXHF   =         0.00000000
  -V(xc)+E(xc)   XCENC  =       233.29796652
  PAW double counting   =     60372.73248814   -58775.02001683
  entropy T*S    EENTRO =         0.01191936
  eigenvalues    EBANDS =      -496.77199577
  atomic energy  EATOM  =     46688.37031544
  Solvation  Ediel_sol  =         0.00000000
  ---------------------------------------------------
  free energy    TOTEN  =      -381.82928501 eV

  energy without entropy =     -381.84120437  energy(sigma->0) =     -381.83325813


--------------------------------------------------------------------------------------------------------




--------------------------------------- Iteration      1(  10)  ---------------------------------------


    POTLOK:  cpu time    0.3857: real time    0.3889
    SETDIJ:  cpu time    0.0321: real time    0.0322
    EDDIAG:  cpu time    7.2749: real time    7.2965
  RMM-DIIS:  cpu time   26.4500: real time   26.5320
    ORTHCH:  cpu time    0.6447: real time    0.6510
       DOS:  cpu time    0.0016: real time    0.0016
    CHARGE:  cpu time    2.9953: real time    3.0041
    MIXING:  cpu time    0.0095: real time    0.0095
    --------------------------------------------
      LOOP:  cpu time   37.7939: real time   37.9158

 eigenvalue-minimisations  :  6755
 total energy-change (2. order) : 0.1219149E+02  (-0.8485609E+00)
 number of electron     642.0000105 magnetization      39.3327896
 augmentation part      197.5530286 magnetization      29.0178515

 Broyden mixing:
  rms(total) = 0.38220E+01    rms(broyden)= 0.38220E+01
  rms(prec ) = 0.51942E+01
  weight for this iteration     100.00

 eigenvalues of (default mixing * dielectric matrix)
  average eigenvalue GAMMA=   0.7459
  2.3045  0.7331  0.2848  0.2848  0.1226

 Free energy of the ion-electron system (eV)
  ---------------------------------------------------
  alpha Z        PSCENC =      2023.78361127
  Ewald energy   TEWEN  =    123725.90211740
  -Hartree energ DENC   =   -174211.03283652
  -exchange      EXHF   =         0.00000000
  -V(xc)+E(xc)   XCENC  =       232.55786248
  PAW double counting   =     60755.22745564   -59159.20571111
  entropy T*S    EENTRO =        -0.01800371
  eigenvalues    EBANDS =      -425.22260754
  atomic energy  EATOM  =     46688.37031544
  Solvation  Ediel_sol  =         0.00000000
  ---------------------------------------------------
  free energy    TOTEN  =      -369.63779667 eV

  energy without entropy =     -369.61979296  energy(sigma->0) =     -369.63179544


--------------------------------------------------------------------------------------------------------




--------------------------------------- Iteration      1(  11)  ---------------------------------------


    POTLOK:  cpu time    0.3852: real time    0.3865
    SETDIJ:  cpu time    0.0323: real time    0.0323
    EDDIAG:  cpu time    7.2705: real time    7.2919
  RMM-DIIS:  cpu time   26.4942: real time   26.5763
    ORTHCH:  cpu time    0.6500: real time    0.6629
       DOS:  cpu time    0.0017: real time    0.0017
    CHARGE:  cpu time    3.0167: real time    3.0255
    MIXING:  cpu time    0.0104: real time    0.0104
    --------------------------------------------
      LOOP:  cpu time   37.8609: real time   37.9876

 eigenvalue-minimisations  :  6745
 total energy-change (2. order) : 0.1193637E+02  (-0.4058521E+00)
 number of electron     642.0000102 magnetization      37.8053883
 augmentation part      197.6666147 magnetization      28.6998365

 Broyden mixing:
  rms(total) = 0.17208E+01    rms(broyden)= 0.17208E+01
  rms(prec ) = 0.19228E+01
  weight for this iteration     100.00

 eigenvalues of (default mixing * dielectric matrix)
  average eigenvalue GAMMA=   0.7027
  2.2008  0.6959  0.5143  0.3449  0.3449  0.1156

 Free energy of the ion-electron system (eV)
  ---------------------------------------------------
  alpha Z        PSCENC =      2023.78361127
  Ewald energy   TEWEN  =    123725.90211740
  -Hartree energ DENC   =   -174226.27426557
  -exchange      EXHF   =         0.00000000
  -V(xc)+E(xc)   XCENC  =       231.97057472
  PAW double counting   =     60997.12679792   -59403.14722391
  entropy T*S    EENTRO =        -0.02670829
  eigenvalues    EBANDS =      -395.40664266
  atomic energy  EATOM  =     46688.37031544
  Solvation  Ediel_sol  =         0.00000000
  ---------------------------------------------------
  free energy    TOTEN  =      -357.70142369 eV

  energy without entropy =     -357.67471540  energy(sigma->0) =     -357.69252092


--------------------------------------------------------------------------------------------------------




--------------------------------------- Iteration      1(  12)  ---------------------------------------


    POTLOK:  cpu time    0.3848: real time    0.3857
    SETDIJ:  cpu time    0.0323: real time    0.0324
    EDDIAG:  cpu time    7.2978: real time    7.3193
  RMM-DIIS:  cpu time   26.5256: real time   26.6008
    ORTHCH:  cpu time    0.6486: real time    0.6524
       DOS:  cpu time    0.0016: real time    0.0016
    CHARGE:  cpu time    3.0104: real time    3.0175
    MIXING:  cpu time    0.0098: real time    0.0098
    --------------------------------------------
      LOOP:  cpu time   37.9108: real time   38.0195

 eigenvalue-minimisations  :  6757
 total energy-change (2. order) :-0.4339649E+00  (-0.1923852E+00)
 number of electron     642.0000102 magnetization      36.2300738
 augmentation part      197.5727779 magnetization      26.4620872

 Broyden mixing:
  rms(total) = 0.13104E+01    rms(broyden)= 0.13104E+01
  rms(prec ) = 0.14611E+01
  weight for this iteration     100.00

 eigenvalues of (default mixing * dielectric matrix)
  average eigenvalue GAMMA=   0.6627
  2.1939  0.6565  0.6565  0.4660  0.2752  0.2752  0.1155

 Free energy of the ion-electron system (eV)
  ---------------------------------------------------
  alpha Z        PSCENC =      2023.78361127
  Ewald energy   TEWEN  =    123725.90211740
  -Hartree energ DENC   =   -174223.05991154
  -exchange      EXHF   =         0.00000000
  -V(xc)+E(xc)   XCENC  =       231.60243824
  PAW double counting   =     60742.89707447   -59146.46644348
  entropy T*S    EENTRO =         0.01372466
  eigenvalues    EBANDS =      -401.17831508
  atomic energy  EATOM  =     46688.37031544
  Solvation  Ediel_sol  =         0.00000000
  ---------------------------------------------------
  free energy    TOTEN  =      -358.13538863 eV

  energy without entropy =     -358.14911329  energy(sigma->0) =     -358.13996352


--------------------------------------------------------------------------------------------------------




--------------------------------------- Iteration      1(  13)  ---------------------------------------


    POTLOK:  cpu time    0.3987: real time    0.4079
    SETDIJ:  cpu time    0.0321: real time    0.0322
    EDDIAG:  cpu time    7.2679: real time    7.2852
  RMM-DIIS:  cpu time   26.4807: real time   26.5559
    ORTHCH:  cpu time    0.6517: real time    0.6562
       DOS:  cpu time    0.0018: real time    0.0018
    CHARGE:  cpu time    2.9834: real time    2.9905
    MIXING:  cpu time    0.0098: real time    0.0098
    --------------------------------------------
      LOOP:  cpu time   37.8260: real time   37.9395

 eigenvalue-minimisations  :  6762
 total energy-change (2. order) :-0.7820837E+00  (-0.8102397E-01)
 number of electron     642.0000103 magnetization      32.7048627
 augmentation part      197.5116692 magnetization      23.2011224

 Broyden mixing:
  rms(total) = 0.97365E+00    rms(broyden)= 0.97365E+00
  rms(prec ) = 0.10379E+01
  weight for this iteration     100.00

 eigenvalues of (default mixing * dielectric matrix)
  average eigenvalue GAMMA=   0.6814
  2.2239  0.7674  0.7674  0.6888  0.3243  0.3243  0.2391  0.1157

 Free energy of the ion-electron system (eV)
  ---------------------------------------------------
  alpha Z        PSCENC =      2023.78361127
  Ewald energy   TEWEN  =    123725.90211740
  -Hartree energ DENC   =   -174235.23004657
  -exchange      EXHF   =         0.00000000
  -V(xc)+E(xc)   XCENC  =       230.85929081
  PAW double counting   =     60696.11963452   -59099.35754863
  entropy T*S    EENTRO =         0.03362201
  eigenvalues    EBANDS =      -389.39846861
  atomic energy  EATOM  =     46688.37031544
  Solvation  Ediel_sol  =         0.00000000
  ---------------------------------------------------
  free energy    TOTEN  =      -358.91747236 eV

  energy without entropy =     -358.95109437  energy(sigma->0) =     -358.92867969


--------------------------------------------------------------------------------------------------------




--------------------------------------- Iteration      1(  14)  ---------------------------------------


    POTLOK:  cpu time    0.3849: real time    0.3858
    SETDIJ:  cpu time    0.0320: real time    0.0321
    EDDIAG:  cpu time    7.2621: real time    7.2794
  RMM-DIIS:  cpu time   26.4956: real time   26.5622
    ORTHCH:  cpu time    0.6482: real time    0.6533
       DOS:  cpu time    0.0016: real time    0.0016
    CHARGE:  cpu time    2.9878: real time    2.9949
    MIXING:  cpu time    0.0104: real time    0.0104
    --------------------------------------------
      LOOP:  cpu time   37.8226: real time   37.9197

 eigenvalue-minimisations  :  6751
 total energy-change (2. order) :-0.2780844E+01  (-0.1022761E+00)
 number of electron     642.0000103 magnetization      28.0395754
 augmentation part      197.3481757 magnetization      18.3170745

 Broyden mixing:
  rms(total) = 0.80152E+00    rms(broyden)= 0.80152E+00
  rms(prec ) = 0.85637E+00
  weight for this iteration     100.00

 eigenvalues of (default mixing * dielectric matrix)
  average eigenvalue GAMMA=   0.7380
  2.1196  1.4771  0.9459  0.5669  0.5669  0.3016  0.3016  0.1157  0.2469

 Free energy of the ion-electron system (eV)
  ---------------------------------------------------
  alpha Z        PSCENC =      2023.78361127
  Ewald energy   TEWEN  =    123725.90211740
  -Hartree energ DENC   =   -174256.35254595
  -exchange      EXHF   =         0.00000000
  -V(xc)+E(xc)   XCENC  =       229.23087235
  PAW double counting   =     60760.27416949   -59164.35460279
  entropy T*S    EENTRO =        -0.00750126
  eigenvalues    EBANDS =      -368.54475238
  atomic energy  EATOM  =     46688.37031544
  Solvation  Ediel_sol  =         0.00000000
  ---------------------------------------------------
  free energy    TOTEN  =      -361.69831644 eV

  energy without entropy =     -361.69081518  energy(sigma->0) =     -361.69581602


--------------------------------------------------------------------------------------------------------




--------------------------------------- Iteration      1(  15)  ---------------------------------------


    POTLOK:  cpu time    0.3849: real time    0.3890
    SETDIJ:  cpu time    0.0318: real time    0.0319
    EDDIAG:  cpu time    7.2740: real time    7.2914
  RMM-DIIS:  cpu time   26.5050: real time   26.5728
    ORTHCH:  cpu time    0.6448: real time    0.6489
       DOS:  cpu time    0.0017: real time    0.0017
    CHARGE:  cpu time    2.9716: real time    2.9787
    MIXING:  cpu time    0.0108: real time    0.0108
    --------------------------------------------
      LOOP:  cpu time   37.8245: real time   37.9252

 eigenvalue-minimisations  :  6743
 total energy-change (2. order) :-0.4068225E+01  (-0.1942889E+00)
 number of electron     642.0000103 magnetization      25.0282675
 augmentation part      197.1526413 magnetization      15.6620827

 Broyden mixing:
  rms(total) = 0.71382E+00    rms(broyden)= 0.71381E+00
  rms(prec ) = 0.81018E+00
  weight for this iteration     100.00

 eigenvalues of (default mixing * dielectric matrix)
  average eigenvalue GAMMA=   0.7622
  2.1342  2.1342  0.8613  0.5957  0.5957  0.1157  0.3138  0.3138  0.3230  0.2345

 Free energy of the ion-electron system (eV)
  ---------------------------------------------------
  alpha Z        PSCENC =      2023.78361127
  Ewald energy   TEWEN  =    123725.90211740
  -Hartree energ DENC   =   -174275.92673795
  -exchange      EXHF   =         0.00000000
  -V(xc)+E(xc)   XCENC  =       226.85333894
  PAW double counting   =     60690.20422668   -59093.78826976
  entropy T*S    EENTRO =        -0.00182860
  eigenvalues    EBANDS =      -351.16331460
  atomic energy  EATOM  =     46688.37031544
  Solvation  Ediel_sol  =         0.00000000
  ---------------------------------------------------
  free energy    TOTEN  =      -365.76654119 eV

  energy without entropy =     -365.76471259  energy(sigma->0) =     -365.76593166


--------------------------------------------------------------------------------------------------------




--------------------------------------- Iteration      1(  16)  ---------------------------------------


    POTLOK:  cpu time    0.3847: real time    0.3856
    SETDIJ:  cpu time    0.0320: real time    0.0321
    EDDIAG:  cpu time    7.2769: real time    7.2942
  RMM-DIIS:  cpu time   26.5829: real time   26.6503
    ORTHCH:  cpu time    0.6484: real time    0.6524
       DOS:  cpu time    0.0017: real time    0.0017
    CHARGE:  cpu time    2.9788: real time    2.9859
    MIXING:  cpu time    0.0125: real time    0.0125
    --------------------------------------------
      LOOP:  cpu time   37.9178: real time   38.0148

 eigenvalue-minimisations  :  6746
 total energy-change (2. order) :-0.2652827E+01  (-0.1260783E+00)
 number of electron     642.0000102 magnetization      22.3811958
 augmentation part      197.0519793 magnetization      13.8907811

 Broyden mixing:
  rms(total) = 0.45771E+00    rms(broyden)= 0.45771E+00
  rms(prec ) = 0.49741E+00
  weight for this iteration     100.00

 eigenvalues of (default mixing * dielectric matrix)
  average eigenvalue GAMMA=   0.7997
  2.3928  2.3928  0.8074  0.8074  0.5617  0.5617  0.1157  0.3112  0.3112  0.2983
  0.2362

 Free energy of the ion-electron system (eV)
  ---------------------------------------------------
  alpha Z        PSCENC =      2023.78361127
  Ewald energy   TEWEN  =    123725.90211740
  -Hartree energ DENC   =   -174270.45241804
  -exchange      EXHF   =         0.00000000
  -V(xc)+E(xc)   XCENC  =       225.15504727
  PAW double counting   =     60555.64644491   -58958.02739056
  entropy T*S    EENTRO =         0.00885194
  eigenvalues    EBANDS =      -358.80594763
  atomic energy  EATOM  =     46688.37031544
  Solvation  Ediel_sol  =         0.00000000
  ---------------------------------------------------
  free energy    TOTEN  =      -368.41936800 eV

  energy without entropy =     -368.42821994  energy(sigma->0) =     -368.42231865


--------------------------------------------------------------------------------------------------------




--------------------------------------- Iteration      1(  17)  ---------------------------------------


    POTLOK:  cpu time    0.4118: real time    0.4127
    SETDIJ:  cpu time    0.0355: real time    0.0355
    EDDIAG:  cpu time    7.3194: real time    7.3415
  RMM-DIIS:  cpu time   26.5225: real time   26.6054
    ORTHCH:  cpu time    0.6465: real time    0.6512
       DOS:  cpu time    0.0017: real time    0.0017
    CHARGE:  cpu time    2.9700: real time    2.9786
    MIXING:  cpu time    0.0128: real time    0.0128
    --------------------------------------------
      LOOP:  cpu time   37.9201: real time   38.0395

 eigenvalue-minimisations  :  6744
 total energy-change (2. order) :-0.1839502E+01  (-0.7890934E-01)
 number of electron     642.0000103 magnetization      20.0090963
 augmentation part      197.0508023 magnetization      12.1562879

 Broyden mixing:
  rms(total) = 0.43406E+00    rms(broyden)= 0.43406E+00
  rms(prec ) = 0.48088E+00
  weight for this iteration     100.00

 eigenvalues of (default mixing * dielectric matrix)
  average eigenvalue GAMMA=   0.8199
  2.8649  2.3586  0.9069  0.9069  0.6124  0.6124  0.1157  0.3164  0.3164  0.3366
  0.2286  0.2627

 Free energy of the ion-electron system (eV)
  ---------------------------------------------------
  alpha Z        PSCENC =      2023.78361127
  Ewald energy   TEWEN  =    123725.90211740
  -Hartree energ DENC   =   -174258.95371509
  -exchange      EXHF   =         0.00000000
  -V(xc)+E(xc)   XCENC  =       223.83379999
  PAW double counting   =     60512.96125210   -58915.28861299
  entropy T*S    EENTRO =         0.02996342
  eigenvalues    EBANDS =      -370.89760191
  atomic energy  EATOM  =     46688.37031544
  Solvation  Ediel_sol  =         0.00000000
  ---------------------------------------------------
  free energy    TOTEN  =      -370.25887037 eV

  energy without entropy =     -370.28883379  energy(sigma->0) =     -370.26885818


--------------------------------------------------------------------------------------------------------




--------------------------------------- Iteration      1(  18)  ---------------------------------------


    POTLOK:  cpu time    0.3854: real time    0.3863
    SETDIJ:  cpu time    0.0325: real time    0.0326
    EDDIAG:  cpu time    7.2636: real time    7.2849
  RMM-DIIS:  cpu time   26.4924: real time   26.5748
    ORTHCH:  cpu time    0.6483: real time    0.6538
       DOS:  cpu time    0.0017: real time    0.0017
    CHARGE:  cpu time    2.9700: real time    2.9783
    MIXING:  cpu time    0.0110: real time    0.0113
    --------------------------------------------
      LOOP:  cpu time   37.8049: real time   37.9237

 eigenvalue-minimisations  :  6740
 total energy-change (2. order) :-0.1111528E+01  (-0.4441403E-01)
 number of electron     642.0000103 magnetization      17.8567512
 augmentation part      197.0993698 magnetization      10.2586903

 Broyden mixing:
  rms(total) = 0.29990E+00    rms(broyden)= 0.29990E+00
  rms(prec ) = 0.32615E+00
  weight for this iteration     100.00

 eigenvalues of (default mixing * dielectric matrix)
  average eigenvalue GAMMA=   0.8706
  3.7237  2.2004  1.0067  1.0067  0.6341  0.6341  0.5873  0.1157  0.3126  0.3126
  0.3179  0.2377  0.2279

 Free energy of the ion-electron system (eV)
  ---------------------------------------------------
  alpha Z        PSCENC =      2023.78361127
  Ewald energy   TEWEN  =    123725.90211740
  -Hartree energ DENC   =   -174249.29718245
  -exchange      EXHF   =         0.00000000
  -V(xc)+E(xc)   XCENC  =       222.84110073
  PAW double counting   =     60534.10254351   -58937.07230810
  entropy T*S    EENTRO =         0.01169981
  eigenvalues    EBANDS =      -380.01229605
  atomic energy  EATOM  =     46688.37031544
  Solvation  Ediel_sol  =         0.00000000
  ---------------------------------------------------
  free energy    TOTEN  =      -371.37039845 eV

  energy without entropy =     -371.38209826  energy(sigma->0) =     -371.37429839


--------------------------------------------------------------------------------------------------------




--------------------------------------- Iteration      1(  19)  ---------------------------------------


    POTLOK:  cpu time    0.3860: real time    0.3870
    SETDIJ:  cpu time    0.0320: real time    0.0321
    EDDIAG:  cpu time    7.2582: real time    7.2793
  RMM-DIIS:  cpu time   26.5122: real time   26.5951
    ORTHCH:  cpu time    0.6511: real time    0.6568
       DOS:  cpu time    0.0017: real time    0.0017
    CHARGE:  cpu time    2.9605: real time    2.9693
    MIXING:  cpu time    0.0124: real time    0.0124
    --------------------------------------------
      LOOP:  cpu time   37.8141: real time   37.9335

 eigenvalue-minimisations  :  6737
 total energy-change (2. order) :-0.8228255E+00  (-0.3683814E-01)
 number of electron     642.0000103 magnetization      15.2905902
 augmentation part      197.1466242 magnetization       7.9346922

 Broyden mixing:
  rms(total) = 0.28109E+00    rms(broyden)= 0.28109E+00
  rms(prec ) = 0.32472E+00
  weight for this iteration     100.00

 eigenvalues of (default mixing * dielectric matrix)
  average eigenvalue GAMMA=   0.9402
  4.8250  2.1783  1.1741  1.1741  0.7751  0.5930  0.5930  0.1157  0.3545  0.3160
  0.3160  0.2939  0.2341  0.2197

 Free energy of the ion-electron system (eV)
  ---------------------------------------------------
  alpha Z        PSCENC =      2023.78361127
  Ewald energy   TEWEN  =    123725.90211740
  -Hartree energ DENC   =   -174236.54323098
  -exchange      EXHF   =         0.00000000
  -V(xc)+E(xc)   XCENC  =       222.08085925
  PAW double counting   =     60543.30757298   -58946.67950232
  entropy T*S    EENTRO =         0.00895744
  eigenvalues    EBANDS =      -392.42392443
  atomic energy  EATOM  =     46688.37031544
  Solvation  Ediel_sol  =         0.00000000
  ---------------------------------------------------
  free energy    TOTEN  =      -372.19322396 eV

  energy without entropy =     -372.20218139  energy(sigma->0) =     -372.19620977


--------------------------------------------------------------------------------------------------------




--------------------------------------- Iteration      1(  20)  ---------------------------------------


    POTLOK:  cpu time    0.3855: real time    0.3867
    SETDIJ:  cpu time    0.0323: real time    0.0324
    EDDIAG:  cpu time    7.3704: real time    7.3918
  RMM-DIIS:  cpu time   26.7216: real time   26.8034
    ORTHCH:  cpu time    0.6641: real time    0.6697
       DOS:  cpu time    0.0016: real time    0.0016
    CHARGE:  cpu time    2.9737: real time    2.9825
    MIXING:  cpu time    0.0125: real time    0.0126
    --------------------------------------------
      LOOP:  cpu time   38.1617: real time   38.2807

 eigenvalue-minimisations  :  6740
 total energy-change (2. order) :-0.5066175E+00  (-0.3376814E-01)
 number of electron     642.0000103 magnetization      13.6810078
 augmentation part      197.1972480 magnetization       6.9907288

 Broyden mixing:
  rms(total) = 0.22337E+00    rms(broyden)= 0.22337E+00
  rms(prec ) = 0.24641E+00
  weight for this iteration     100.00

 eigenvalues of (default mixing * dielectric matrix)
  average eigenvalue GAMMA=   1.0144
  5.9359  2.1951  1.4033  1.4033  0.6309  0.6309  0.6880  0.5233  0.1157  0.3133
  0.3133  0.3345  0.2753  0.2387  0.2150

 Free energy of the ion-electron system (eV)
  ---------------------------------------------------
  alpha Z        PSCENC =      2023.78361127
  Ewald energy   TEWEN  =    123725.90211740
  -Hartree energ DENC   =   -174218.22950436
  -exchange      EXHF   =         0.00000000
  -V(xc)+E(xc)   XCENC  =       221.51187443
  PAW double counting   =     60520.89636700   -58924.24530820
  entropy T*S    EENTRO =        -0.01311902
  eigenvalues    EBANDS =      -410.67619539
  atomic energy  EATOM  =     46688.37031544
  Solvation  Ediel_sol  =         0.00000000
  ---------------------------------------------------
  free energy    TOTEN  =      -372.69984142 eV

  energy without entropy =     -372.68672240  energy(sigma->0) =     -372.69546841


--------------------------------------------------------------------------------------------------------




--------------------------------------- Iteration      1(  21)  ---------------------------------------


    POTLOK:  cpu time    0.3847: real time    0.3856
    SETDIJ:  cpu time    0.0324: real time    0.0325
    EDDIAG:  cpu time    7.2290: real time    7.2505
  RMM-DIIS:  cpu time   26.5535: real time   26.6366
    ORTHCH:  cpu time    0.6461: real time    0.6504
       DOS:  cpu time    0.0017: real time    0.0017
    CHARGE:  cpu time    2.9630: real time    2.9717
    MIXING:  cpu time    0.0131: real time    0.0131
    --------------------------------------------
      LOOP:  cpu time   37.8235: real time   37.9420

 eigenvalue-minimisations  :  6748
 total energy-change (2. order) :-0.8305103E-01  (-0.1227279E-01)
 number of electron     642.0000103 magnetization      12.9758294
 augmentation part      197.2178665 magnetization       6.7728990

 Broyden mixing:
  rms(total) = 0.14253E+00    rms(broyden)= 0.14253E+00
  rms(prec ) = 0.15489E+00
  weight for this iteration     100.00

 eigenvalues of (default mixing * dielectric matrix)
  average eigenvalue GAMMA=   1.0103
  6.3430  2.1868  1.4904  1.4904  0.6447  0.6447  0.6332  0.5253  0.1157  0.3686
  0.3686  0.3161  0.3161  0.2745  0.2342  0.2130

 Free energy of the ion-electron system (eV)
  ---------------------------------------------------
[...]
   -.687E+01 0.938E-01 0.230E+04   0.696E+01 -.327E-01 -.230E+04   -.125E-01 -.347E-01 -.102E-01   -.965E-02 -.182E-01 0.582E-02
   -.103E+01 0.996E+00 0.734E+03   0.111E+01 -.105E+01 -.733E+03   -.719E-01 0.452E-01 -.861E+00   -.627E-02 0.281E-02 0.254E-01
   0.493E-01 -.154E+02 -.807E+03   0.110E+00 0.159E+02 0.807E+03   -.110E+00 -.575E+00 0.122E+00   -.461E-01 0.166E-01 0.109E-01
   0.187E+02 0.411E+01 -.225E+04   -.184E+02 -.414E+01 0.225E+04   -.213E+00 0.430E-01 -.276E-01   0.421E-02 -.142E-01 -.443E-01
   0.523E+00 -.719E+01 0.229E+04   -.488E+00 0.727E+01 -.229E+04   -.272E-01 0.701E-02 0.404E-01   -.105E-01 -.108E-01 0.502E-02
   -.977E+01 0.405E+01 0.783E+03   0.985E+01 -.404E+01 -.783E+03   -.835E-01 0.501E-02 -.232E+00   -.314E-02 -.192E-01 0.427E-01
   0.344E+01 -.185E+01 -.749E+03   -.361E+01 0.205E+01 0.749E+03   0.165E+00 -.191E+00 0.327E+00   0.121E-01 0.104E-02 0.352E-01
   0.328E+02 0.567E+02 -.238E+04   -.327E+02 -.574E+02 0.238E+04   -.852E-01 0.739E+00 -.503E+00   -.311E-01 0.196E-01 0.193E-02
   0.154E+01 -.677E+01 0.231E+04   -.158E+01 0.675E+01 -.231E+04   0.241E-01 0.420E-01 -.120E+00   -.416E-02 -.965E-02 0.105E-02
   -.424E+01 -.631E+01 0.763E+03   0.438E+01 0.642E+01 -.762E+03   -.128E+00 -.890E-01 -.488E+00   -.219E-01 -.193E-01 0.391E-01
   0.152E+02 -.690E+01 -.855E+03   -.154E+02 0.704E+01 0.855E+03   0.277E+00 -.153E+00 0.262E+00   -.281E-01 0.162E-01 -.502E-02
   -.884E+01 0.175E+02 -.226E+04   0.860E+01 -.175E+02 0.226E+04   0.244E+00 -.329E-01 -.793E-02   -.318E-02 0.120E-01 0.820E-02
   -.665E+00 0.428E+00 0.231E+04   0.655E+00 -.412E+00 -.231E+04   0.125E-02 -.270E-01 -.165E+00   0.144E-01 -.522E-02 0.768E-03
   -.380E+01 -.780E+00 0.784E+03   0.384E+01 0.848E+00 -.784E+03   -.563E-01 -.469E-01 -.383E+00   0.107E-01 -.256E-01 0.437E-01
   0.293E+01 -.205E+01 -.747E+03   -.319E+01 0.208E+01 0.747E+03   0.250E+00 -.307E-01 0.322E+00   0.496E-02 -.131E-01 0.363E-01
   -.380E+01 0.242E+01 -.229E+04   0.375E+01 -.244E+01 0.229E+04   0.879E-02 0.339E-01 0.129E+00   0.463E-01 -.996E-02 0.202E-01
   0.702E+01 -.394E+01 0.230E+04   -.713E+01 0.400E+01 -.230E+04   0.141E-01 -.804E-02 0.409E-02   0.871E-02 -.655E-02 -.432E-02
   0.469E+00 0.173E+01 0.790E+03   -.510E+00 -.170E+01 -.789E+03   0.412E-01 -.180E-01 -.426E+00   0.775E-02 -.680E-02 0.274E-01
   0.151E+00 -.303E+00 -.758E+03   -.255E+00 0.351E+00 0.758E+03   0.648E-01 -.247E-01 0.466E+00   0.422E-01 -.240E-01 0.489E-01
   -.191E+02 0.106E+02 -.221E+04   0.199E+02 -.110E+02 0.221E+04   -.877E+00 0.449E+00 0.358E+00   -.277E-02 0.236E-02 -.125E-02
   -.707E+00 0.435E+00 0.231E+04   0.690E+00 -.436E+00 -.231E+04   0.258E-01 0.111E-01 -.170E+00   0.114E-01 -.115E-01 -.620E-05
   0.105E+02 -.516E+00 0.769E+03   -.106E+02 0.556E+00 -.769E+03   0.673E-01 -.602E-01 -.288E+00   -.681E-03 0.150E-01 0.245E-01
   -.372E+01 -.173E+01 -.753E+03   0.383E+01 0.176E+01 0.753E+03   -.992E-01 -.278E-01 0.381E+00   -.103E-01 -.731E-02 0.398E-01
   -.478E+01 0.141E+01 -.229E+04   0.473E+01 -.136E+01 0.229E+04   0.153E-01 -.135E-01 0.128E+00   0.348E-01 -.343E-01 0.176E-01
   -.528E+00 0.338E+00 0.231E+04   0.539E+00 -.346E+00 -.231E+04   -.224E-01 0.158E-01 -.132E+00   0.410E-02 -.282E-02 0.119E-01
   0.253E+01 -.140E+01 0.792E+03   -.264E+01 0.146E+01 -.792E+03   0.938E-01 -.516E-01 -.326E+00   0.238E-01 -.161E-01 0.376E-01
   -.145E+01 -.129E+01 -.751E+03   0.157E+01 0.132E+01 0.750E+03   -.134E+00 -.877E-02 0.331E+00   0.313E-01 -.375E-01 0.438E-01
   0.297E+01 -.206E+01 -.228E+04   -.284E+01 0.201E+01 0.228E+04   -.132E+00 0.541E-01 0.937E-01   0.905E-02 -.335E-02 -.104E-01
   -.337E+01 0.312E+01 0.231E+04   0.334E+01 -.309E+01 -.231E+04   0.670E-02 -.211E-01 -.213E+00   -.529E-02 -.231E-02 -.414E-02
   -.813E+01 0.630E+01 0.784E+03   0.816E+01 -.638E+01 -.784E+03   -.410E-01 0.721E-01 -.230E+00   0.140E-01 0.137E-01 0.404E-01
   -.333E+00 -.789E+00 -.743E+03   0.325E+00 0.890E+00 0.743E+03   0.154E-01 -.108E+00 0.375E+00   -.508E-03 0.769E-02 0.278E-01
   0.104E+02 -.540E+01 -.228E+04   -.104E+02 0.535E+01 0.228E+04   -.504E-01 0.735E-01 0.138E+00   0.355E-01 -.290E-01 0.469E-01
   0.208E+01 -.115E+01 0.231E+04   -.199E+01 0.110E+01 -.231E+04   -.641E-01 0.354E-01 -.198E+00   -.861E-02 0.622E-02 0.278E-02
   -.119E+01 -.137E+01 0.789E+03   0.115E+01 0.139E+01 -.789E+03   0.411E-01 -.197E-01 -.424E+00   0.926E-02 -.164E-02 0.284E-01
   -.159E+01 0.102E+01 -.747E+03   0.184E+01 -.115E+01 0.747E+03   -.255E+00 0.141E+00 0.434E+00   0.368E-01 -.217E-01 0.603E-01
   -.313E+01 0.244E+01 -.226E+04   0.304E+01 -.238E+01 0.226E+04   0.101E+00 -.644E-01 0.841E-01   -.161E-01 0.105E-01 0.478E-01
   -.434E+01 0.126E+01 0.231E+04   0.430E+01 -.126E+01 -.231E+04   0.205E-01 0.623E-02 -.215E+00   -.680E-04 0.722E-02 -.305E-02
   0.109E+01 -.773E+01 0.786E+03   -.110E+01 0.780E+01 -.786E+03   0.329E-01 -.632E-01 -.219E+00   -.260E-01 0.588E-03 0.298E-01
   -.110E+02 0.116E+02 -.821E+03   0.113E+02 -.120E+02 0.821E+03   -.296E+00 0.394E+00 0.114E+00   0.351E-02 0.882E-02 0.210E-01
   0.101E+02 -.541E+01 -.228E+04   -.100E+02 0.543E+01 0.228E+04   -.755E-01 -.813E-02 0.136E+00   0.401E-01 -.179E-01 0.438E-01
   -.982E+01 0.574E+01 0.230E+04   0.990E+01 -.579E+01 -.230E+04   0.833E-02 -.597E-02 -.478E-01   -.349E-02 0.268E-02 -.753E-04
   -.241E+01 0.132E+01 0.793E+03   0.244E+01 -.134E+01 -.793E+03   -.252E-01 0.130E-01 -.335E+00   -.751E-02 0.626E-02 0.289E-01
   0.890E+00 0.181E+01 -.751E+03   -.852E+00 -.192E+01 0.751E+03   -.632E-01 0.117E+00 0.339E+00   0.459E-01 -.523E-02 0.409E-01
   0.222E+02 -.114E+02 -.224E+04   -.233E+02 0.120E+02 0.224E+04   0.111E+01 -.637E+00 0.324E+00   0.132E-01 -.762E-02 -.413E-01
   0.656E+01 0.312E+01 0.229E+04   -.660E+01 -.319E+01 -.229E+04   -.221E-01 0.211E-01 0.429E-01   0.279E-02 0.142E-01 0.416E-02
   0.726E+01 0.279E+01 0.786E+03   -.733E+01 -.282E+01 -.786E+03   0.757E-01 0.759E-02 -.233E+00   -.120E-01 0.255E-01 0.286E-01
   -.691E+00 0.365E+01 -.754E+03   0.716E+00 -.375E+01 0.753E+03   -.243E-01 0.918E-01 0.392E+00   0.226E-02 0.155E-01 0.411E-01
   -.349E+02 -.473E+02 -.238E+04   0.354E+02 0.483E+02 0.238E+04   -.396E+00 -.106E+01 -.745E-01   -.345E-01 0.171E-01 -.346E-01
   -.357E+01 0.583E+01 0.230E+04   0.356E+01 -.593E+01 -.230E+04   0.269E-01 0.300E-01 -.916E-02   0.959E-02 0.180E-01 0.599E-02
   0.855E+00 -.518E+00 0.795E+03   -.806E+00 0.487E+00 -.795E+03   -.415E-01 0.247E-01 -.339E+00   -.107E-01 0.759E-02 0.532E-01
   0.118E+02 0.693E+01 -.807E+03   -.122E+02 -.735E+01 0.807E+03   0.434E+00 0.378E+00 0.144E+00   -.390E-01 0.311E-01 0.136E-01
   0.642E+01 -.196E+02 -.225E+04   -.632E+01 0.195E+02 0.225E+04   -.109E+00 0.112E+00 -.317E-01   0.182E-01 0.342E-02 -.458E-01
   0.582E+01 0.373E+01 0.230E+04   -.585E+01 -.377E+01 -.230E+04   0.109E-02 -.354E-03 -.115E+00   -.875E-03 0.173E-01 0.100E-01
   -.127E+01 0.359E+01 0.784E+03   0.123E+01 -.366E+01 -.784E+03   0.163E-01 0.721E-01 -.382E+00   0.251E-01 0.424E-02 0.424E-01
   0.595E+00 0.808E+00 -.742E+03   -.675E+00 -.843E+00 0.742E+03   0.861E-01 0.310E-01 0.384E+00   -.408E-02 -.143E-02 0.287E-01
   -.142E+02 -.206E+02 -.226E+04   0.139E+02 0.200E+02 0.226E+04   0.320E+00 0.587E+00 -.447E-01   -.424E-01 0.356E-01 -.224E-02
   0.660E+01 0.191E+01 0.231E+04   -.661E+01 -.186E+01 -.231E+04   -.201E-01 -.401E-01 -.125E+00   0.601E-02 0.885E-02 -.482E-03
   0.309E+01 0.656E+01 0.763E+03   -.310E+01 -.674E+01 -.762E+03   0.812E-02 0.160E+00 -.496E+00   0.335E-02 0.291E-01 0.378E-01
   0.501E+00 -.526E+00 -.737E+03   -.530E+00 0.537E+00 0.736E+03   0.699E-01 -.365E-01 0.320E+00   -.500E-01 0.303E-01 0.335E-01
   -.207E+02 -.893E+00 -.226E+04   0.205E+02 0.107E+01 0.226E+04   0.201E+00 -.171E+00 -.348E-03   -.145E-01 -.188E-02 0.130E-02
   0.158E+02 -.977E+01 -.286E+03   -.169E+02 0.104E+02 0.287E+03   0.742E+00 -.388E+00 -.147E+01   -.140E-02 -.815E-05 -.304E-02
   -.192E+02 0.735E+01 -.286E+03   0.205E+02 -.774E+01 0.287E+03   -.995E+00 0.124E+00 -.150E+01   -.231E-02 0.458E-03 -.142E-02
 -----------------------------------------------------------------------------------------------
   0.689E+00 0.603E+00 0.399E+01   0.334E-12 -.444E-13 -.210E-11   -.663E+00 -.614E+00 -.507E+01   -.146E-01 0.165E-01 0.110E+01
 
 
 POSITION                                       TOTAL-FORCE (eV/Angst)
 -----------------------------------------------------------------------------------
     10.55998      0.00001      1.11585         0.012323      0.034125     -0.001068
      2.63569      1.53085      3.57190        -0.000403      0.002484      0.010416
      0.02228      3.04554      6.03696         0.023311      0.002500      0.071457
      0.01256      0.01945      8.37113         0.014013      0.023348     -0.002440
      9.23998      2.28632      1.11585         0.067650      0.012912      0.095858
      1.32426      3.80786      3.64407         0.006359     -0.004200      0.055811
      1.32830      0.78954      6.00990         0.002762      0.011245     -0.005754
     -1.31062      2.28399      8.35739         0.015172      0.003850      0.017383
      1.31998      2.28632      1.11585        -0.000866      0.070647      0.064803
     -1.31183      3.80818      3.54718         0.002684      0.002250      0.013757
      3.95401      0.76928      5.93232        -0.005591      0.014077      0.013740
      1.31591      2.26305      8.94482         0.005349     -0.020365      0.378746
      2.63998      0.00001      1.11585        -0.028153      0.010977     -0.037624
      0.00866      1.53038      3.58776         0.003260      0.001733      0.010499
      2.62574      3.05881      6.05560        -0.003555      0.002210      0.049927
      2.63567      0.00209      8.37099        -0.011132      0.004178     -0.014190
      5.27998      0.00001      1.11585         0.002598     -0.014561     -0.027380
      7.92195      1.52452      3.55140         0.003446     -0.001122     -0.002744
      5.27179      3.05183      5.93094        -0.010720     -0.002469      0.010772
      5.28081      0.00169      8.37697        -0.001508      0.005189     -0.030251
      3.95998      2.28632      1.11585        -0.091874      0.050420      0.043862
      6.59776      3.81221      3.53762         0.002240      0.001185     -0.008269
      6.59620      0.76561      5.94398         0.003600     -0.000156     -0.021291
      3.96015      2.29119      8.34717        -0.011659      0.011191      0.057636
      6.59998      2.28632      1.11585         0.017249     -0.000447     -0.030316
      3.95221      3.81089      3.57067        -0.004261     -0.000739      0.011845
      9.24854      0.76216      5.94225         0.016028      0.005837      0.003162
      6.60094      2.29065      8.37363        -0.003753      0.004036     -0.034572
      7.91998      0.00001      1.11585        -0.002834      0.002342     -0.004060
      5.27665      1.52589      3.53458        -0.000987      0.000248      0.001776
      7.92639      3.04849      5.93578         0.007682     -0.010664     -0.005794
      7.92622      0.00163      8.35790         0.008898     -0.001556     -0.029547
      7.91998      4.57263      1.11585        -0.027256      0.008300     -0.093878
      0.00591      6.09073      3.54625         0.000897     -0.005076      0.012197
     -2.63684      7.62718      5.92266         0.007533     -0.004901     -0.028560
     -2.63584      4.57369      8.36106         0.006654     -0.005554     -0.038328
      6.59998      6.85894      1.11585         0.014151     -0.012414     -0.078787
     -1.32293      8.38412      3.53845         0.000947     -0.000566     -0.006047
     -1.30496      5.32832      5.93002         0.019788     -0.008265      0.020727
     -3.96088      6.86438      8.30040        -0.000645      0.004228     -0.036538
     -1.32002      6.85894      1.11585        -0.020986      0.017776     -0.094059
     -3.96095      8.38944      3.53584         0.000285     -0.000566     -0.014969
      1.33414      5.31892      6.03234         0.006458     -0.015692      0.063736
     -1.31563      6.86145      8.36661         0.004188     -0.002407     -0.042542
     -0.00002      4.57263      1.11585         0.092818     -0.060004      0.071026
     -2.63995      6.09672      3.52515         0.003753     -0.003322     -0.013233
      0.00473      7.61830      5.93632         0.013601     -0.001297     -0.006033
     -0.00356      4.57871      8.43090         0.001185      0.002851      0.142444
      2.63998      4.57263      1.11585        -0.060455     -0.036561      0.066361
      5.27389      6.09390      3.53710         0.000506      0.001620     -0.016113
      2.64614      7.61722      5.94319         0.004790     -0.011340      0.004805
      2.65788      4.60397      8.90562         0.017082      0.019010      0.362052
      1.31998      6.85894      1.11585         0.022946     -0.064147      0.096001
      3.95909      8.38352      3.53308         0.002838     -0.002683      0.001950
      3.94038      5.31689      6.01249        -0.008096     -0.005007     -0.001827
      1.32995      6.85943      8.35559         0.008445     -0.010190      0.016801
      3.95998      6.85894      1.11585        -0.026125     -0.027877      0.001168
      1.32042      8.38106      3.55181         0.002765     -0.002870     -0.003485
      6.59804      5.33214      5.92142         0.005411     -0.002512     -0.029544
      3.95526      6.84825      8.37833        -0.010985     -0.018924     -0.000307
      5.27998      4.57263      1.11585        -0.021481      0.021180     -0.038028
      2.63900      6.08606      3.58815        -0.000087     -0.003683      0.010103
      5.27691      7.62379      5.91193        -0.002600      0.001142      0.002271
      5.27896      4.58156      8.36827        -0.009337      0.011316     -0.016720
      1.37840      3.81861      9.94589        -0.364729      0.264943     -0.504021
      2.53613      3.01957      9.97084         0.278411     -0.267207     -0.464771
 -----------------------------------------------------------------------------------
    total drift:                                0.010645      0.005406      0.017481


--------------------------------------------------------------------------------------------------------



  FREE ENERGIE OF THE ION-ELECTRON SYSTEM (eV)
  ---------------------------------------------------
  free  energy   TOTEN  =      -412.11494855 eV

  energy  without entropy=     -412.06274056  energy(sigma->0) =     -412.09754589
 
 d Force = 0.6228800E-02[ 0.601E-02, 0.645E-02]  d Energy = 0.5543825E-02 0.685E-03
 d Force = 0.8250308E+01[ 0.835E+01, 0.815E+01]  d Ewald  = 0.8250298E+01 0.102E-04


--------------------------------------------------------------------------------------------------------


    POTLOK:  cpu time    0.4116: real time    0.4160


--------------------------------------------------------------------------------------------------------


 NEB: the previous image is higher in energy: F
 NEB: the next image is higher in energy    : T
 NEB: only next energy greater

 NEB: Tangent
 ----------------------------------------------
      0.00000      0.00000      0.00000
     -0.00033     -0.00104     -0.00480
     -0.01870     -0.00258     -0.03429
     -0.01441     -0.02439     -0.00031
      0.00000      0.00000      0.00000
     -0.00021      0.00048     -0.03485
     -0.00484     -0.00516      0.01154
     -0.01353     -0.00262      0.00905
      0.00000      0.00000      0.00000
     -0.00145     -0.00236     -0.01130
      0.00435     -0.00799     -0.01269
     -0.00012      0.01546     -0.36610
      0.00000      0.00000      0.00000
     -0.00177     -0.00173     -0.00175
      0.00017     -0.00175     -0.02706
      0.01033     -0.00806      0.01847
      0.00000      0.00000      0.00000
     -0.00056     -0.00060      0.00305
      0.00910      0.00019     -0.01029
      0.00286     -0.00500      0.01268
      0.00000      0.00000      0.00000
      0.00092     -0.00303      0.00130
     -0.00073      0.00022      0.00772
      0.01334     -0.01251     -0.04476
      0.00000      0.00000      0.00000
      0.00057      0.00086     -0.00336
     -0.01193     -0.00218      0.00357
      0.00453     -0.00517      0.01897
      0.00000      0.00000      0.00000
      0.00096     -0.00018     -0.00767
     -0.00539      0.00469      0.00055
     -0.00759     -0.00048      0.02969
      0.00000      0.00000      0.00000
      0.00167      0.00290     -0.00961
     -0.00660      0.00128     -0.00094
     -0.00520      0.00127      0.00133
      0.00000      0.00000      0.00000
      0.00359      0.00080      0.00006
     -0.01670      0.00779     -0.03084
      0.00142     -0.00548      0.00971
      0.00000      0.00000      0.00000
     -0.00025      0.00308      0.00857
     -0.00766      0.01714     -0.02995
     -0.00628     -0.00247      0.00203
      0.00000      0.00000      0.00000
     -0.00193      0.00100     -0.00753
     -0.00842      0.00052      0.00088
     -0.00342     -0.00246     -0.08920
      0.00000      0.00000      0.00000
     -0.00280     -0.00098      0.00930
     -0.00506      0.00907      0.00352
     -0.01478     -0.02536     -0.33726
      0.00000      0.00000      0.00000
     -0.00292      0.00168     -0.00550
      0.00295      0.00580      0.01163
     -0.00732      0.00648      0.00988
      0.00000      0.00000      0.00000
      0.00076      0.00087      0.00305
     -0.00630      0.00268      0.00114
      0.00869      0.01656     -0.00241
      0.00000      0.00000      0.00000
      0.00084      0.00257     -0.00140
     -0.00222      0.00113     -0.01233
      0.00944     -0.01023      0.02436
      0.34720     -0.20912      0.47925
     -0.27306      0.23924      0.44964

 NEB: forces: par spring, perp REAL, dneb     0.010118    0.132989    0.000000
 NEB: distance to prev, next image, angle between     0.746117    0.744093  127.298541
 NEB: projections on to tangent (spring, REAL)    -0.010118   -1.066479

 stress matrix after NEB project (eV)
     76.91606      0.23466     -0.02134
      0.23466     77.48703     -0.00783
     -0.02134     -0.00783     -3.60223
  FORCES: max atom, RMS     0.048274    0.016417
  FORCE total and by dimension    0.133373    0.048212
  Stress total and by dimension  109.240131   77.487027
 Quasi-Newton relaxation of ions (Broydens 2nd method)
  g(Force)  = 0.153E-02   g(Stress)= 0.000E+00

 retain information from N=  5 steps
 eigenvalues of (default step * inverse Hessian matrix)
  average eigenvalue of G=   2.8839
 eigenvalue spectrum of G is  5.7209  5.7209  1.3363  1.1043  0.5373


--------------------------------------------------------------------------------------------------------


  
 reached required accuracy - stopping structural energy minimisation
     LOOP+:  cpu time  439.7016: real time  441.1270
    4ORBIT:  cpu time    0.0000: real time    0.0000

 total amount of memory used by VASP MPI-rank0   200779. kBytes
=======================================================================

   base      :      30000. kBytes
   nonlr-proj:      31121. kBytes
   fftplans  :      17093. kBytes
   grid      :      44247. kBytes
   one-center:        528. kBytes
   wavefun   :      77790. kBytes
 
  
  
 General timing and accounting informations for this job:
 ========================================================
  
                  Total CPU time used (sec):     9006.025
                            User time (sec):     8781.163
                          System time (sec):      224.863
                         Elapsed time (sec):     9049.039
  
                   Maximum memory used (kb):      322456.
                   Average memory used (kb):           0.
  
                          Minor page faults:      2250151
                          Major page faults:            0
                 Voluntary context switches:        15614
