 vasp.5.4.4.18Apr17-6-g9f103f2a35 (build Nov 30 2020 22:55:02) complex          
  
 executed on             LinuxIFC date 2023.09.08  21:33:23
 running on   40 total cores
 distrk:  each k-point on   40 cores,    1 groups
 distr:  one band on NCORES_PER_BAND=   4 cores,   10 groups


--------------------------------------------------------------------------------------------------------


 INCAR:
 POTCAR:    PAW_PBE Pt 04Feb2005                  
 POTCAR:    PAW_PBE H 15Jun2001                   
 POTCAR:    PAW_PBE Pt 04Feb2005                  
   VRHFIN =Pt: s1d9                                                             
   LEXCH  = PE                                                                  
   EATOM  =   729.1176 eV,   53.5886 Ry                                         
                                                                                
   TITEL  = PAW_PBE Pt 04Feb2005                                                
   LULTRA =        F    use ultrasoft PP ?                                      
   IUNSCR =        1    unscreen: 0-lin 1-nonlin 2-no                           
   RPACOR =    2.330    partial core radius                                     
   POMASS =  195.080; ZVAL   =   10.000    mass and valenz                      
   RCORE  =    2.600    outmost cutoff radius                                   
   RWIGS  =    2.750; RWIGS  =    1.455    wigner-seitz radius (au A)           
   ENMAX  =  230.283; ENMIN  =  172.712 eV                                      
   ICORE  =        3    local potential                                         
   LCOR   =        T    correct aug charges                                     
   LPAW   =        T    paw PP                                                  
   EAUG   =  358.966                                                            
   DEXC   =    0.000                                                            
   RMAX   =    2.658    core radius for proj-oper                               
   RAUG   =    1.300    factor for augmentation sphere                          
   RDEP   =    2.761    radius for radial grids                                 
   RDEPT  =    2.203    core radius for aug-charge                              
                                                                                
   Atomic configuration                                                         
   16 entries                                                                   
     n  l   j            E        occ.                                          
     1  0  0.50    -78401.1885   2.0000                                         
     2  0  0.50    -13770.7750   2.0000                                         
     2  1  1.50    -11931.0468   6.0000                                         
     3  0  0.50     -3234.7234   2.0000                                         
     3  1  1.50     -2699.2216   6.0000                                         
     3  2  2.50     -2119.5714  10.0000                                         
     4  0  0.50      -695.1528   2.0000                                         
     4  1  1.50      -519.6034   6.0000                                         
     4  2  2.50      -306.6786  10.0000                                         
     4  3  3.50       -70.1041  14.0000                                         
     5  0  0.50      -101.7747   2.0000                                         
     5  1  1.50       -55.9873   6.0000                                         
     5  2  2.50        -6.1423   9.0000                                         
     6  0  0.50        -5.6573   1.0000                                         
     6  1  1.50        -6.8029   0.0000                                         
     5  3  2.50        -1.3606   0.0000                                         
   Description                                                                  
     l       E           TYP  RCUT    TYP  RCUT                                 
     2     -6.1423404     23  2.500                                             
     2     -7.5029230     23  2.500                                             
     0     -5.6573207     23  2.500                                             
     0      0.7416693     23  2.500                                             
     1     -2.7211652     23  2.600                                             
     1     20.4087390     23  2.600                                             
     3     -1.3605826     23  2.500                                             
  local pseudopotential read in
  partial core-charges read in
  partial kinetic energy density read in
  atomic valenz-charges read in
  non local Contribution for L=           2  read in
    real space projection operators read in
  non local Contribution for L=           2  read in
    real space projection operators read in
  non local Contribution for L=           0  read in
    real space projection operators read in
  non local Contribution for L=           0  read in
    real space projection operators read in
  non local Contribution for L=           1  read in
    real space projection operators read in
  non local Contribution for L=           1  read in
    real space projection operators read in
    PAW grid and wavefunctions read in
 
   number of l-projection  operators is LMAX  =           6
   number of lm-projection operators is LMMAX =          18
 
 POTCAR:    PAW_PBE H 15Jun2001                   
   VRHFIN =H: ultrasoft test                                                    
   LEXCH  = PE                                                                  
   EATOM  =    12.4884 eV,    0.9179 Ry                                         
                                                                                
   TITEL  = PAW_PBE H 15Jun2001                                                 
   LULTRA =        F    use ultrasoft PP ?                                      
   IUNSCR =        0    unscreen: 0-lin 1-nonlin 2-no                           
   RPACOR =    0.000    partial core radius                                     
   POMASS =    1.000; ZVAL   =    1.000    mass and valenz                      
   RCORE  =    1.100    outmost cutoff radius                                   
   RWIGS  =    0.700; RWIGS  =    0.370    wigner-seitz radius (au A)           
   ENMAX  =  250.000; ENMIN  =  200.000 eV                                      
   RCLOC  =    0.701    cutoff for local pot                                    
   LCOR   =        T    correct aug charges                                     
   LPAW   =        T    paw PP                                                  
   EAUG   =  400.000                                                            
   RMAX   =    1.123    core radius for proj-oper                               
   RAUG   =    1.200    factor for augmentation sphere                          
   RDEP   =    1.112    radius for radial grids                                 
   RDEPT  =    0.926    core radius for aug-charge                              
                                                                                
   Atomic configuration                                                         
    2 entries                                                                   
     n  l   j            E        occ.                                          
     1  0  0.50        -6.4927   1.0000                                         
     2  1  0.50        -3.4015   0.0000                                         
   Description                                                                  
     l       E           TYP  RCUT    TYP  RCUT                                 
     0     -6.4927494     23  1.100                                             
     0      6.8029130     23  1.100                                             
     1     -4.0817478     23  1.100                                             
  local pseudopotential read in
  atomic valenz-charges read in
  non local Contribution for L=           0  read in
    real space projection operators read in
  non local Contribution for L=           0  read in
    real space projection operators read in
  non local Contribution for L=           1  read in
    real space projection operators read in
    PAW grid and wavefunctions read in
 
   number of l-projection  operators is LMAX  =           3
   number of lm-projection operators is LMMAX =           5
 
 Optimization of the real space projectors (new method)

 maximal supplied QI-value         = 14.36
 optimisation between [QCUT,QGAM] = [ 11.92, 23.98] = [ 39.79,161.09] Ry 
 Optimized for a Real-space Cutoff    1.49 Angstroem

   l    n(q)    QCUT    max X(q) W(low)/X(q) W(high)/X(q)  e(spline) 
   2     10    11.920    66.195    0.79E-04    0.18E-03    0.24E-06
   2     10    11.920    64.643    0.81E-04    0.19E-03    0.24E-06
   0     11    11.920    95.520    0.28E-04    0.54E-04    0.18E-06
   0     11    11.920    63.403    0.27E-04    0.52E-04    0.17E-06
   1     10    11.920    19.961    0.18E-04    0.11E-03    0.23E-06
   1     10    11.920    13.289    0.25E-04    0.87E-04    0.19E-06
 Optimization of the real space projectors (new method)

 maximal supplied QI-value         = 34.20
 optimisation between [QCUT,QGAM] = [ 11.97, 23.94] = [ 40.13,160.53] Ry 
 Optimized for a Real-space Cutoff    1.18 Angstroem

   l    n(q)    QCUT    max X(q) W(low)/X(q) W(high)/X(q)  e(spline) 
   0      8    11.971    19.460    0.15E-03    0.31E-03    0.25E-06
   0      8    11.971    12.209    0.13E-03    0.29E-03    0.25E-06
   1      8    11.971     4.655    0.22E-03    0.24E-03    0.21E-06
  PAW_PBE Pt 04Feb2005                  :
 energy of atom  1       EATOM= -729.1176
 kinetic energy error for atom=    0.0021 (will be added to EATOM!!)
  PAW_PBE H 15Jun2001                   :
 energy of atom  2       EATOM=  -12.4884
 kinetic energy error for atom=    0.0008 (will be added to EATOM!!)
 
 
 POSCAR: Pt111                                   
  positions in direct lattice
  velocities in cartesian coordinates
 exchange correlation table for  LEXCH =        8
   RHO(1)=    0.500       N(1)  =     2000
   RHO(2)=  100.500       N(2)  =     4000
 


--------------------------------------------------------------------------------------------------------


 ion  position               nearest neighbor table
   1  0.785  0.869  0.328-  71 2.74  20 2.75  55 2.75  73 2.79  56 2.79   3 2.79   2 2.79  43 2.79
                            35 2.79  72 2.79  27 2.79  34 2.80
   2  0.035  0.870  0.327-  65 2.74  55 2.74  68 2.74  39 2.78  72 2.79   1 2.79  47 2.79   3 2.79
                            23 2.79  29 2.79  57 2.79  27 2.80
   3  0.035  0.619  0.328-  55 2.74  12 2.74  76 2.75  39 2.78  15 2.79   9 2.79   1 2.79  28 2.79
                             2 2.79  56 2.79  57 2.79  35 2.80
   4  0.787  0.867  0.022-   6 2.79  21 2.79   5 2.79  58 2.79  75 2.79  78 2.79  74 2.79  44 2.79
                            19 2.80
   5  0.037  0.868  0.022-  74 2.78   4 2.79  48 2.79  49 2.79  70 2.79  24 2.79  59 2.79   6 2.79
                            78 2.80
   6  0.037  0.618  0.022-  46 2.79  18 2.79   4 2.79  70 2.79  59 2.79  10 2.79  58 2.79   5 2.79
                            21 2.80
   7  0.619  0.202  0.126-  71 2.74  79 2.75  80 2.75  42 2.78  78 2.79  53 2.79  44 2.79  22 2.79
                            11 2.79  61 2.79  19 2.79  74 2.80
   8  0.369  0.952  0.126-  69 2.74  66 2.75  26 2.75  16 2.79  25 2.79  19 2.79  54 2.79  24 2.79
                            49 2.79  60 2.79  53 2.79  75 2.80
   9  0.035  0.370  0.328-  12 2.74  77 2.74  62 2.75  33 2.78  56 2.79   3 2.79  47 2.79  13 2.79
                            28 2.79  30 2.79  63 2.80  15 2.80
  10  0.037  0.368  0.022-  54 2.78  48 2.79  64 2.79  46 2.79  18 2.79   6 2.79  58 2.79  16 2.79
                            45 2.80
  11  0.869  0.202  0.125-  65 2.74  77 2.74  79 2.76  64 2.79  45 2.79  49 2.79  74 2.79   7 2.79
                            22 2.79  54 2.79  78 2.79  48 2.80
  12  0.952  0.536  0.227-   9 2.74  45 2.74  21 2.74   3 2.74  56 2.75  46 2.75  77 2.79  62 2.79
                            20 2.79  55 2.79  67 2.80  76 2.80
  13  0.285  0.120  0.328-  62 2.74  26 2.75  69 2.75  31 2.78   9 2.79  43 2.79  36 2.79  33 2.79
                            73 2.79  47 2.79  15 2.80  23 2.80
  14  0.534  0.619  0.329-  51 2.75  66 2.76  67 2.77  57 2.78  63 2.78  41 2.78  23 2.78  52 2.79
                            56 2.79  73 2.79  38 2.82  37 2.83
  15  0.285  0.370  0.328-  76 2.74  80 2.75  62 2.76  41 2.78  57 2.78  36 2.79   3 2.79  43 2.79
                            28 2.79  50 2.80  13 2.80   9 2.80
  16  0.288  0.118  0.022-   8 2.79  44 2.79  75 2.79  53 2.79  18 2.79  48 2.79  24 2.79  10 2.79
                            54 2.80
  17  0.537  0.618  0.022-  22 2.79  59 2.79  24 2.79  25 2.79  42 2.79  64 2.79  58 2.79  75 2.79
                            60 2.80
  18  0.287  0.368  0.022-  53 2.79   6 2.79  59 2.79  61 2.79  16 2.79  10 2.79  44 2.79  42 2.79
                            46 2.80
  19  0.619  0.952  0.125-  20 2.74  71 2.75  69 2.75  44 2.79   8 2.79  75 2.79  21 2.79  53 2.79
                            25 2.79  78 2.79   7 2.79   4 2.80
  20  0.702  0.785  0.226-  56 2.74  19 2.74  25 2.74  73 2.75   1 2.75  21 2.75  67 2.79  12 2.79
                            66 2.79  69 2.79  71 2.79  55 2.79
  21  0.869  0.702  0.126-  12 2.74  55 2.74  20 2.75   4 2.79  45 2.79  19 2.79  58 2.79  46 2.79
                            70 2.79  78 2.79  25 2.79   6 2.80
  22  0.619  0.452  0.126-  79 2.74  67 2.74  51 2.76  17 2.79  25 2.79  61 2.79  42 2.79  45 2.79
                             7 2.79  11 2.79  60 2.79  64 2.80
  23  0.285  0.869  0.328-  68 2.74  66 2.75  26 2.75  57 2.78  14 2.78  37 2.79   2 2.79  73 2.79
                            31 2.79  13 2.80  47 2.80  29 2.80
  24  0.287  0.868  0.022-  60 2.79  17 2.79  48 2.79   8 2.79   5 2.79  59 2.79  16 2.79  75 2.79
                            49 2.80
  25  0.619  0.702  0.125-  20 2.74  67 2.75  66 2.75   8 2.79  75 2.79  22 2.79  17 2.79  60 2.79
                            19 2.79  45 2.79  21 2.79  58 2.80
  26  0.202  0.036  0.227-  54 2.74  49 2.74  13 2.75  47 2.75   8 2.75  23 2.75  69 2.79  77 2.79
                            62 2.79  65 2.79  66 2.79  68 2.79
  27  0.868  0.953  0.431-  39 2.76  40 2.77  29 2.78  32 2.79  72 2.79  34 2.79   1 2.79  35 2.80
                             2 2.80
  28  0.117  0.453  0.431-  50 2.76  30 2.78  35 2.78  33 2.79   3 2.79   9 2.79  39 2.79  15 2.79
                            36 2.80
  29  0.116  0.955  0.431-  37 2.75  32 2.77  27 2.78  47 2.78  33 2.78   2 2.79  39 2.79  23 2.80
                            31 2.81
  30  0.868  0.453  0.431-  38 2.76  28 2.78  35 2.78  33 2.79  56 2.79  63 2.79   9 2.79  52 2.80
                            32 2.80
  31  0.368  0.955  0.431-  37 2.75  36 2.77  34 2.78  13 2.78  33 2.79  23 2.79  52 2.79  73 2.80
                            29 2.81
  32  0.868  0.203  0.431-  38 2.76  29 2.77  27 2.79  63 2.79  40 2.79  33 2.79  72 2.79  47 2.79
                            30 2.80
  33  0.117  0.203  0.431-  29 2.78   9 2.78  31 2.79  30 2.79  28 2.79  47 2.79  36 2.79  13 2.79
                            32 2.79
  34  0.617  0.954  0.431-  52 2.76  40 2.77  31 2.78  36 2.79  43 2.79  27 2.79  73 2.79  35 2.80
                             1 2.80
  35  0.868  0.703  0.431-  52 2.76  39 2.77  30 2.78  28 2.78   1 2.79  56 2.79  27 2.80  34 2.80
                             3 2.80
  36  0.368  0.203  0.431-  50 2.76  31 2.77  34 2.79  15 2.79  40 2.79  13 2.79  33 2.79  43 2.80
                            28 2.80
  37  0.364  0.710  0.434-  81 1.85  29 2.75  31 2.75  23 2.79  39 2.81  52 2.82  57 2.83  14 2.83
                            50 2.88  38 2.88
  38  0.622  0.451  0.434-  81 1.86  30 2.76  32 2.76  63 2.80  52 2.81  40 2.82  14 2.82  41 2.83
                            50 2.87  37 2.88
  39  0.115  0.705  0.431-  27 2.76  35 2.77   2 2.78   3 2.78  57 2.79  28 2.79  29 2.79  50 2.81
                            37 2.81
  40  0.619  0.201  0.431-  34 2.77  27 2.77  41 2.79  43 2.79  36 2.79  32 2.79  72 2.79  38 2.82
                            50 2.82
  41  0.535  0.370  0.329-  51 2.75  80 2.76  79 2.77  63 2.78  15 2.78  14 2.78  57 2.78  40 2.79
                            72 2.79  43 2.79  38 2.83  50 2.83
  42  0.538  0.367  0.022-   7 2.78  74 2.79  44 2.79  64 2.79  22 2.79  17 2.79  18 2.79  59 2.79
                            61 2.80
  43  0.535  0.119  0.328-  80 2.74  69 2.75  71 2.75  40 2.79  72 2.79  34 2.79  73 2.79  13 2.79
                            15 2.79   1 2.79  41 2.79  36 2.80
  44  0.537  0.118  0.022-  19 2.79  42 2.79  16 2.79  75 2.79   7 2.79  74 2.79   4 2.79  18 2.79
                            53 2.80
  45  0.869  0.452  0.126-  77 2.74  12 2.74  67 2.75  21 2.79  58 2.79  11 2.79  22 2.79  46 2.79
                            25 2.79  64 2.79  54 2.79  10 2.80
  46  0.119  0.452  0.126-  62 2.74  12 2.75  76 2.75   6 2.79  54 2.79  10 2.79  21 2.79  53 2.79
                            45 2.79  70 2.79  61 2.79  18 2.80
  47  0.035  0.120  0.328-  77 2.74  65 2.75  26 2.75  29 2.78  33 2.79   9 2.79  72 2.79   2 2.79
                            13 2.79  32 2.79  63 2.80  23 2.80
  48  0.037  0.118  0.022-  49 2.79  10 2.79   5 2.79  24 2.79  54 2.79  74 2.79  64 2.79  16 2.79
                            11 2.80
  49  0.119  0.952  0.126-  26 2.74  65 2.75  68 2.75  48 2.79  60 2.79   5 2.79  11 2.79  54 2.79
                             8 2.79  70 2.79  78 2.79  24 2.80
  50  0.365  0.452  0.434-  81 1.88  28 2.76  36 2.76  15 2.80  39 2.81  40 2.82  57 2.82  41 2.83
                            38 2.87  37 2.88
  51  0.452  0.536  0.227-  41 2.75  14 2.75  60 2.75  61 2.75  57 2.76  22 2.76  67 2.78  76 2.78
                            66 2.78  80 2.79  68 2.79  79 2.79
  52  0.619  0.705  0.431-  34 2.76  35 2.76  73 2.78  14 2.79  56 2.79  31 2.79  30 2.80  38 2.81
                            37 2.82
  53  0.369  0.202  0.126-  69 2.74  80 2.75  62 2.75  18 2.79  61 2.79  16 2.79  54 2.79   7 2.79
                            19 2.79  46 2.79   8 2.79  44 2.80
  54  0.120  0.202  0.126-  26 2.74  62 2.74  77 2.75  10 2.78  46 2.79  53 2.79   8 2.79  49 2.79
                            48 2.79  11 2.79  45 2.79  16 2.80
  55  0.952  0.786  0.227-   3 2.74   2 2.74  78 2.74  21 2.74  70 2.75   1 2.75  12 2.79  76 2.79
                            68 2.79  71 2.79  65 2.79  20 2.79
  56  0.785  0.619  0.328-  67 2.74  20 2.74  12 2.75  52 2.79  63 2.79   9 2.79   1 2.79  73 2.79
                            30 2.79  35 2.79   3 2.79  14 2.79
  57  0.285  0.619  0.329-  51 2.76  68 2.76  76 2.76  14 2.78  15 2.78  41 2.78  23 2.78  39 2.79
                             3 2.79   2 2.79  50 2.82  37 2.83
  58  0.787  0.618  0.022-  75 2.79  64 2.79  45 2.79   4 2.79  21 2.79  10 2.79   6 2.79  17 2.79
                            25 2.80
  59  0.287  0.618  0.022-  61 2.79  17 2.79  18 2.79   6 2.79  60 2.79  24 2.79   5 2.79  42 2.79
                            70 2.80
  60  0.369  0.702  0.126-  66 2.75  68 2.75  51 2.75  24 2.79  49 2.79  70 2.79  59 2.79  61 2.79
                            25 2.79   8 2.79  22 2.79  17 2.80
  61  0.369  0.452  0.126-  80 2.74  76 2.75  51 2.75  59 2.79  53 2.79  22 2.79  18 2.79  60 2.79
                             7 2.79  46 2.79  70 2.79  42 2.80
  62  0.202  0.286  0.227-  13 2.74  46 2.74  54 2.74   9 2.75  53 2.75  15 2.76  69 2.79  26 2.79
                            12 2.79  77 2.79  80 2.79  76 2.79
  63  0.784  0.370  0.328-  67 2.74  79 2.75  77 2.76  41 2.78  14 2.78  32 2.79  56 2.79  72 2.79
                            30 2.79  47 2.80  38 2.80   9 2.80
  64  0.787  0.368  0.022-  10 2.79  11 2.79  58 2.79  42 2.79  45 2.79  17 2.79  74 2.79  48 2.79
                            22 2.80
  65  0.952  0.036  0.226-   2 2.74  11 2.74  78 2.74  47 2.75  49 2.75  72 2.75  77 2.79  26 2.79
                            71 2.79  79 2.79  55 2.79  68 2.79
  66  0.452  0.785  0.227-  73 2.74  60 2.75   8 2.75  23 2.75  25 2.75  14 2.76  68 2.78  51 2.78
                            67 2.79  20 2.79  26 2.79  69 2.80
  67  0.701  0.536  0.227-  56 2.74  63 2.74  22 2.74  25 2.75  45 2.75  14 2.77  51 2.78  79 2.79
                            66 2.79  20 2.79  77 2.79  12 2.80
  68  0.202  0.785  0.227-   2 2.74  23 2.74  70 2.75  49 2.75  60 2.75  57 2.76  66 2.78  76 2.79
                            51 2.79  55 2.79  26 2.79  65 2.79
  69  0.452  0.036  0.227-  53 2.74  73 2.74   8 2.74  43 2.75  13 2.75  19 2.75  62 2.79  26 2.79
                            71 2.79  20 2.79  80 2.79  66 2.80
  70  0.119  0.702  0.126-  55 2.75  76 2.75  68 2.75   6 2.79  60 2.79  78 2.79   5 2.79  21 2.79
                            46 2.79  49 2.79  61 2.79  59 2.80
  71  0.702  0.036  0.227-   7 2.74  72 2.74   1 2.74  19 2.75  43 2.75  78 2.75  69 2.79  65 2.79
                            80 2.79  79 2.79  55 2.79  20 2.79
  72  0.785  0.119  0.328-  79 2.74  71 2.74  65 2.75  43 2.79   2 2.79  27 2.79  47 2.79  40 2.79
                            63 2.79   1 2.79  32 2.79  41 2.79
  73  0.535  0.870  0.327-  69 2.74  66 2.74  20 2.75  52 2.78   1 2.79  43 2.79  56 2.79  23 2.79
                            13 2.79  14 2.79  34 2.79  31 2.80
  74  0.787  0.118  0.022-   5 2.78  42 2.79  78 2.79  44 2.79  11 2.79  48 2.79  64 2.79   4 2.79
                             7 2.80
  75  0.537  0.868  0.022-  58 2.79  16 2.79  25 2.79  19 2.79   4 2.79  44 2.79  24 2.79  17 2.79
                             8 2.80
  76  0.202  0.536  0.227-  15 2.74   3 2.75  70 2.75  46 2.75  61 2.75  57 2.76  51 2.78  68 2.79
                            80 2.79  55 2.79  62 2.79  12 2.80
  77  0.952  0.286  0.227-  47 2.74  45 2.74  11 2.74   9 2.74  54 2.75  63 2.76  65 2.79  12 2.79
                            26 2.79  62 2.79  79 2.79  67 2.79
  78  0.869  0.952  0.126-  55 2.74  65 2.74  71 2.75  74 2.79   7 2.79  70 2.79  19 2.79  49 2.79
                            11 2.79   4 2.79  21 2.79   5 2.80
  79  0.702  0.286  0.227-  72 2.74  22 2.74  63 2.75   7 2.75  11 2.76  41 2.77  67 2.79  80 2.79
                            51 2.79  77 2.79  71 2.79  65 2.79
  80  0.452  0.286  0.227-  43 2.74  61 2.74  53 2.75  15 2.75   7 2.75  41 2.76  76 2.79  51 2.79
                            79 2.79  71 2.79  62 2.79  69 2.79
  81  0.451  0.539  0.472-  37 1.85  38 1.86  50 1.88
 
  LATTYP: Found a hexagonal cell.
 ALAT       =    11.1599998850
 C/A-ratio  =     1.9713261852
  
  Lattice vectors:
  
 A1 = (   5.5799999991,  -9.6648433740,   0.0000000000)
 A2 = ( -11.1599999990,   0.0000000000,   0.0000000000)
 A3 = (   0.0000000000,   0.0000000000, -22.0000000000)


Analysis of symmetry for initial positions (statically):
=====================================================================
 Subroutine PRICEL returns:
 Original cell was already a primitive cell.
 

 Routine SETGRP: Setting up the symmetry group for a 
 hexagonal supercell.


 Subroutine GETGRP returns: Found  1 space group operations
 (whereof  1 operations were pure point group operations)
 out of a pool of 24 trial point group operations.


The static configuration has the point symmetry C_1 .


Analysis of symmetry for dynamics (positions and initial velocities):
=====================================================================
 Subroutine PRICEL returns:
 Original cell was already a primitive cell.
 

 Routine SETGRP: Setting up the symmetry group for a 
 hexagonal supercell.


 Subroutine GETGRP returns: Found  1 space group operations
 (whereof  1 operations were pure point group operations)
 out of a pool of 24 trial point group operations.


The dynamic configuration has the point symmetry C_1 .


Analysis of constrained symmetry for selective dynamics:
=====================================================================
 Subroutine PRICEL returns:
 Original cell was already a primitive cell.
 

 Routine SETGRP: Setting up the symmetry group for a 
 hexagonal supercell.


 Subroutine GETGRP returns: Found  1 space group operations
 (whereof  1 operations were pure point group operations)
 out of a pool of 24 trial point group operations.


The constrained configuration has the point symmetry C_1 .


 Subroutine INISYM returns: Found  1 space group operations
 (whereof  1 operations are pure point group operations),
 and found     1 'primitive' translations

 
 
 KPOINTS: mesh auto                               

Automatic generation of k-mesh.
Space group operators:
 irot       det(A)        alpha          n_x          n_y          n_z        tau_x        tau_y        tau_z
    1     1.000000     0.000000     1.000000     0.000000     0.000000     0.000000     0.000000     0.000000
 
 Subroutine IBZKPT returns following result:
 ===========================================
 
 Found      4 irreducible k-points:
 
 Following reciprocal coordinates:
            Coordinates               Weight
  0.000000  0.000000  0.000000      1.000000
  0.500000  0.000000  0.000000      1.000000
  0.000000  0.500000  0.000000      1.000000
  0.500000  0.500000  0.000000      1.000000
 
 Following cartesian coordinates:
            Coordinates               Weight
  0.000000  0.000000  0.000000      1.000000
  0.044803 -0.025867  0.000000      1.000000
  0.000000  0.051734  0.000000      1.000000
  0.044803  0.025867  0.000000      1.000000
 


--------------------------------------------------------------------------------------------------------




 Dimension of arrays:
   k-points           NKPTS =      4   k-points in BZ     NKDIM =      4   number of bands    NBANDS=    480
   number of dos      NEDOS =    301   number of ions     NIONS =     81
   non local maximal  LDIM  =      6   non local SUM 2l+1 LMDIM =     18
   total plane-waves  NPLWV = ******
   max r-space proj   IRMAX =   8018   max aug-charges    IRDMAX=  34929
   dimension x,y,z NGX =    90 NGY =   90 NGZ =  168
   dimension x,y,z NGXF=   180 NGYF=  180 NGZF=  336
   support grid    NGXF=   180 NGYF=  180 NGZF=  336
   ions per type =              80   1
   NGX,Y,Z   is equivalent  to a cutoff of  13.41, 13.41, 12.70 a.u.
   NGXF,Y,Z  is equivalent  to a cutoff of  26.81, 26.81, 25.39 a.u.

 SYSTEM =  Pt111                                   
 POSCAR =  Pt111                                   

 Startparameter for this run:
   NWRITE =      2    write-flag & timer
   PREC   = accura    normal or accurate (medium, high low for compatibility)
   ISTART =      0    job   : 0-new  1-cont  2-samecut
   ICHARG =      2    charge: 1-file 2-atom 10-const
   ISPIN  =      1    spin polarized calculation?
   LNONCOLLINEAR =      F non collinear calculations
   LSORBIT =      F    spin-orbit coupling
   INIWAV =      1    electr: 0-lowe 1-rand  2-diag
   LASPH  =      F    aspherical Exc in radial PAW
   METAGGA=      F    non-selfconsistent MetaGGA calc.

 Electronic Relaxation 1
   ENCUT  =  550.0 eV  40.42 Ry    6.36 a.u.  21.34 21.34 42.07*2*pi/ulx,y,z
   ENINI  =  550.0     initial cutoff
   ENAUG  =  400.0 eV  augmentation charge cutoff
   NELM   =    200;   NELMIN=  2; NELMDL= -5     # of ELM steps 
   EDIFF  = 0.1E-04   stopping-criterion for ELM
   LREAL  =      T    real-space projection
   NLSPLINE    = F    spline interpolate recip. space projectors
   LCOMPAT=      F    compatible to vasp.4.4
   GGA_COMPAT  = T    GGA compatible to vasp.4.4-vasp.4.6
   LMAXPAW     = -100 max onsite density
   LMAXMIX     =    2 max onsite mixed and CHGCAR
   VOSKOWN=      0    Vosko Wilk Nusair interpolation
   ROPT   =   -0.00025  -0.00025
 Ionic relaxation
   EDIFFG = -.5E-01   stopping-criterion for IOM
   NSW    =    300    number of steps for IOM
   NBLOCK =      1;   KBLOCK =    300    inner block; outer block 
   IBRION =      2    ionic relax: 0-MD 1-quasi-New 2-CG
   NFREE  =      1    steps in history (QN), initial steepest desc. (CG)
   ISIF   =      2    stress and relaxation
   IWAVPR =     11    prediction:  0-non 1-charg 2-wave 3-comb
   ISYM   =      2    0-nonsym 1-usesym 2-fastsym
   LCORR  =      T    Harris-Foulkes like correction to forces

   POTIM  = 0.5000    time-step for ionic-motion
   TEIN   =    0.0    initial temperature
   TEBEG  =    0.0;   TEEND  =   0.0 temperature during run
   SMASS  =  -3.00    Nose mass-parameter (am)
   estimated Nose-frequenzy (Omega)   =  0.10E-29 period in steps =****** mass=  -0.285E-26a.u.
   SCALEE = 1.0000    scale energy and forces
   NPACO  =    256;   APACO  = 16.0  distance and # of slots for P.C.
   PSTRESS=    0.0 pullay stress

  Mass of Ions in am
   POMASS = 195.08  1.00
  Ionic Valenz
   ZVAL   =  10.00  1.00
  Atomic Wigner-Seitz radii
   RWIGS  =  -1.00 -1.00
  virtual crystal weights 
   VCA    =   1.00  1.00
   NELECT =     801.0000    total number of electrons
   NUPDOWN=      -1.0000    fix difference up-down

 DOS related values:
   EMIN   =  10.00;   EMAX   =-10.00  energy-range for DOS
   EFERMI =   0.00
   ISMEAR =     1;   SIGMA  =   0.10  broadening in eV -4-tet -1-fermi 0-gaus

 Electronic relaxation 2 (details)
   IALGO  =     68    algorithm
   LDIAG  =      T    sub-space diagonalisation (order eigenvalues)
   LSUBROT=      F    optimize rotation matrix (better conditioning)
   TURBO    =      0    0=normal 1=particle mesh
   IRESTART =      0    0=no restart 2=restart with 2 vectors
   NREBOOT  =      0    no. of reboots
   NMIN     =      0    reboot dimension
   EREF     =   0.00    reference energy to select bands
   IMIX   =      4    mixing-type and parameters
     AMIX     =   0.40;   BMIX     =  1.00
     AMIX_MAG =   1.60;   BMIX_MAG =  1.00
     AMIN     =   0.10
     WC   =   100.;   INIMIX=   1;  MIXPRE=   1;  MAXMIX= -45

 Intra band minimization:
   WEIMIN = 0.0010     energy-eigenvalue tresh-hold
   EBREAK =  0.52E-08  absolut break condition
   DEPER  =   0.30     relativ break condition  

   TIME   =   0.40     timestep for ELM

  volume/ion in A,a.u.               =      29.30       197.69
  Fermi-wavevector in a.u.,A,eV,Ry     =   1.139878  2.154057 17.678352  1.299322
  Thomas-Fermi vector in A             =   2.276581
 
 Write flags
   LWAVE        =      F    write WAVECAR
   LDOWNSAMPLE  =      F    k-point downsampling of WAVECAR
   LCHARG       =      F    write CHGCAR
   LVTOT        =      F    write LOCPOT, total local potential
   LVHAR        =      F    write LOCPOT, Hartree potential only
   LELF         =      F    write electronic localiz. function (ELF)
   LORBIT       =      0    0 simple, 1 ext, 2 COOP (PROOUT), +10 PAW based schemes


 Dipole corrections
   LMONO  =      F    monopole corrections only (constant potential shift)
   LDIPOL =      F    correct potential (dipole corrections)
   IDIPOL =      0    1-x, 2-y, 3-z, 4-all directions 
   EPSILON=  1.0000000 bulk dielectric constant

 Exchange correlation treatment:
   GGA     =    --    GGA type
   LEXCH   =     8    internal setting for exchange type
   VOSKOWN=      0    Vosko Wilk Nusair interpolation
   LHFCALC =     F    Hartree Fock is set to
   LHFONE  =     F    Hartree Fock one center treatment
   AEXX    =    0.0000 exact exchange contribution

 Linear response parameters
   LEPSILON=     F    determine dielectric tensor
   LRPA    =     F    only Hartree local field effects (RPA)
   LNABLA  =     F    use nabla operator in PAW spheres
   LVEL    =     F    velocity operator in full k-point grid
   LINTERFAST=   F  fast interpolation
   KINTER  =     0    interpolate to denser k-point grid
   CSHIFT  =0.1000    complex shift for real part using Kramers Kronig
   OMEGAMAX=  -1.0    maximum frequency
   DEG_THRESHOLD= 0.2000000E-02 threshold for treating states as degnerate
   RTIME   =   -0.100 relaxation time in fs
  (WPLASMAI=    0.000 imaginary part of plasma frequency in eV, 0.658/RTIME)
   DFIELD  = 0.0000000 0.0000000 0.0000000 field for delta impulse in time
 
 Orbital magnetization related:
   ORBITALMAG=     F  switch on orbital magnetization
   LCHIMAG   =     F  perturbation theory with respect to B field
   DQ        =  0.001000  dq finite difference perturbation B field
   LLRAUG    =     F  two centre corrections for induced B field



--------------------------------------------------------------------------------------------------------


 conjugate gradient relaxation of ions
   using selective dynamics as specified on POSCAR
 charge density and potential will be updated during run
 non-spin polarized calculation
 RMM-DIIS sequential band-by-band and
  variant of blocked Davidson during initial phase
 perform sub-space diagonalisation
    before iterative eigenvector-optimisation
 modified Broyden-mixing scheme, WC =      100.0
 initial mixing is a Kerker type mixing with AMIX =  0.4000 and BMIX =      1.0000
 Hartree-type preconditioning will be used
 using additional bands           79
 real space projection scheme for non local part
 use partial core corrections
 calculate Harris-corrections to forces 
   (improved forces if not selfconsistent)
 use gradient corrections 
 use of overlap-Matrix (Vanderbilt PP)
 Methfessel and Paxton  Order N= 1 SIGMA  =   0.10


--------------------------------------------------------------------------------------------------------


  energy-cutoff  :      550.00
  volume of cell :     2372.91
      direct lattice vectors                 reciprocal lattice vectors
    11.159999999  0.000000000  0.000000000     0.089605735 -0.051733896  0.000000000
     5.580000000  9.664843374  0.000000000     0.000000000  0.103467792  0.000000000
     0.000000000  0.000000000 22.000000000     0.000000000  0.000000000  0.045454545

  length of vectors
    11.159999999 11.159999885 22.000000000     0.103467791  0.103467792  0.045454545


 
 k-points in units of 2pi/SCALE and weight: mesh auto                               
   0.00000000  0.00000000  0.00000000       0.250
   0.04480287 -0.02586695  0.00000000       0.250
   0.00000000  0.05173390  0.00000000       0.250
   0.04480287  0.02586695  0.00000000       0.250
 
 k-points in reciprocal lattice and weights: mesh auto                               
   0.00000000  0.00000000  0.00000000       0.250
   0.50000000  0.00000000  0.00000000       0.250
   0.00000000  0.50000000  0.00000000       0.250
   0.50000000  0.50000000  0.00000000       0.250
 
 position of ions in fractional coordinates (direct lattice) 
   0.78486335  0.86918010  0.32753360
   0.03459804  0.86958147  0.32747211
   0.03489333  0.61935195  0.32755190
   0.78746358  0.86738893  0.02178175
   0.03690392  0.86812094  0.02193806
   0.03720893  0.61762341  0.02204379
   0.61948508  0.20173812  0.12551080
   0.36949462  0.95174463  0.12553035
   0.03471749  0.36952434  0.32761169
   0.03702877  0.36760129  0.02207390
   0.86945337  0.20190614  0.12544818
   0.95199535  0.53554034  0.22661099
   0.28476123  0.11970751  0.32763868
   0.53443165  0.61943029  0.32888810
   0.28528456  0.36998858  0.32805062
   0.28760234  0.11760726  0.02199112
   0.53679606  0.61768686  0.02189700
   0.28694763  0.36790968  0.02205190
   0.61930627  0.95174085  0.12544435
   0.70181499  0.78543209  0.22647623
   0.86924259  0.70176365  0.12552085
   0.61927542  0.45187626  0.12552888
   0.28499041  0.86903689  0.32794590
   0.28718183  0.86764020  0.02189363
   0.61902838  0.70183898  0.12543380
   0.20198618  0.03571236  0.22659984
   0.86754452  0.95341373  0.43124382
   0.11700575  0.45348255  0.43133409
   0.11624707  0.95459742  0.43120190
   0.86805807  0.45339078  0.43136365
   0.36765597  0.95453821  0.43121188
   0.86765807  0.20291827  0.43128956
   0.11749703  0.20348024  0.43107165
   0.61745325  0.95351716  0.43123292
   0.86774056  0.70283309  0.43124953
   0.36779326  0.20302221  0.43129663
   0.36421032  0.70968889  0.43362020
   0.62225440  0.45135046  0.43359575
   0.11454223  0.70504130  0.43121528
   0.61879029  0.20082095  0.43134753
   0.53457943  0.36993336  0.32884429
   0.53757566  0.36726642  0.02190423
   0.53488386  0.11940882  0.32755674
   0.53728833  0.11770181  0.02186281
   0.86924913  0.45191913  0.12558803
   0.11931973  0.45183186  0.12566723
   0.03452626  0.11969071  0.32760366
   0.03738296  0.11769372  0.02190132
   0.11936148  0.95191781  0.12555182
   0.36479740  0.45163500  0.43354361
   0.45196341  0.53569508  0.22724884
   0.61885618  0.70512880  0.43121950
   0.36945654  0.20192806  0.12563008
   0.11958360  0.20181156  0.12559832
   0.95215081  0.78551192  0.22654200
   0.78471389  0.61933880  0.32754899
   0.28515895  0.61944254  0.32883605
   0.78694236  0.61778603  0.02187955
   0.28706621  0.61761750  0.02196795
   0.36904601  0.70189939  0.12556586
   0.36943780  0.45180821  0.12561018
   0.20206402  0.28562460  0.22666210
   0.78373968  0.36993027  0.32804602
   0.78717484  0.36783173  0.02181551
   0.95193559  0.03582669  0.22649683
   0.45183605  0.78529316  0.22677749
   0.70144514  0.53566749  0.22675807
   0.20233897  0.78536096  0.22681934
   0.45182473  0.03575172  0.22652870
   0.11916120  0.70195931  0.12559869
   0.70192296  0.03568951  0.22654639
   0.78468297  0.11940032  0.32754362
   0.53488268  0.86952258  0.32743726
   0.78732785  0.11762776  0.02181509
   0.53737712  0.86774890  0.02176591
   0.20248430  0.53569460  0.22679449
   0.95198754  0.28561566  0.22658356
   0.86930589  0.95187157  0.12550997
   0.70170013  0.28598398  0.22676584
   0.45204240  0.28602829  0.22682384
   0.45117336  0.53897665  0.47214964
 
 position of ions in cartesian coordinates  (Angst):
  13.60909989  8.40048952  7.20573930
   5.23837874  8.40436867  7.20438637
   3.84539342  5.98593963  7.20614178
  13.62812377  8.38317819  0.47919859
   5.25596256  8.39025288  0.48263742
   3.86159027  5.96923349  0.48496328
   8.03915219  1.94976731  2.76123762
   9.43429495  9.19846273  2.76166777
   2.44939305  3.57139487  7.20745716
   2.46445632  3.55280894  0.48562570
  10.82973591  1.95139125  2.75985989
  13.61258324  5.17591350  4.98544182
   3.84590327  1.15695433  7.20805100
   9.42067821  5.98669670  7.23553814
   5.24831201  3.57588170  7.21711353
   3.86589065  1.13665573  0.48380465
   9.43733669  5.96984680  0.48173390
   5.25527159  3.55578944  0.48514189
  12.22217194  9.19842625  2.75977575
  12.21496633  7.59107815  4.98247710
  13.61658841  6.78243576  2.76145871
   9.43258321  4.36731326  2.76163536
   8.02971880  8.39910547  7.21480990
   8.04638157  8.38560661  0.48165984
  10.82461822  6.78316383  2.75954362
   2.45344075  0.34515439  4.98519638
  15.00184544  9.21459440  9.48736405
   3.83621678  4.38283780  9.48935004
   6.62397093  9.22603454  9.48644190
  12.21744859  4.38195091  9.49000034
   9.42936385  9.22546230  9.48666142
  10.81534796  1.96117331  9.48837021
   2.44668659  1.96660464  9.48357638
  12.21140404  9.21559403  9.48712432
  13.60579329  6.79277174  9.48748966
   5.23743671  1.96217790  9.48852585
   8.02465114  6.85903194  9.53964434
   9.46289466  4.36223154  9.53910640
   5.21242175  6.81411374  9.48673622
   8.02628056  1.94090303  9.48964564
   8.03013461  3.57534802  7.23457434
   8.04869094  3.54957243  0.48189296
   6.63560503  1.15406753  7.20624832
   6.65291383  1.13756958  0.48098189
  12.22252901  4.36772760  2.76293665
   3.85282993  4.36688419  2.76467895
   1.05318724  1.15679200  7.20728047
   1.07392473  1.13749137  0.48182908
   6.64377553  9.20013651  2.76213995
   6.59126226  4.36498154  9.53795951
   8.03309016  5.17740901  4.99947457
  10.84105363  6.81495939  9.48682889
   5.24989356  1.95160312  2.76386167
   2.46066145  1.95047712  2.76316298
  15.00915956  7.59184972  4.98392402
  12.21331756  5.98581251  7.20607777
   6.63886330  5.98681514  7.23439317
  12.22952279  5.97080522  0.48135011
   6.64996454  5.96917639  0.48329501
   8.03515208  6.78374767  2.76244901
   6.64401571  4.36665559  2.76342397
   3.84881976  2.76051706  4.98656626
  10.81074575  3.57531813  7.21701235
  10.83737225  3.55503609  0.47994118
  10.82351410  0.34625931  4.98293022
   9.42442614  7.58973535  4.98910486
  10.81715238  5.17714234  4.98867744
   6.64041711  7.59039070  4.99002552
   5.24185866  0.34553481  4.98363150
   5.24677188  6.78432674  2.76317115
   8.03260769  0.34493353  4.98402065
   9.42331578  1.15398543  7.20595959
  10.82122669  8.40379951  7.20361968
   9.44294172  1.13685390  0.47993201
  10.83916758  8.38665722  0.47885009
   5.24890065  5.17740445  4.98947879
  12.21791631  2.76043065  4.98483823
  15.01289704  9.19968960  2.76121924
   9.42676409  2.76399040  4.98884839
   6.64083102  2.76441862  4.99012458
   8.04258440  5.20912489 10.38729202
 


--------------------------------------------------------------------------------------------------------


 k-point  1 :   0.0000 0.0000 0.0000  plane waves:   69505
 k-point  2 :   0.5000 0.0000 0.0000  plane waves:   69454
 k-point  3 :   0.0000 0.5000 0.0000  plane waves:   69454
 k-point  4 :   0.5000 0.5000 0.0000  plane waves:   69454

 maximum and minimum number of plane-waves per node :     17422    17318

 maximum number of plane-waves:     69505
 maximum index in each direction: 
   IXMAX=   21   IYMAX=   21   IZMAX=   42
   IXMIN=  -21   IYMIN=  -21   IZMIN=  -42


 real space projection operators:
  total allocation   :      87121.88 KBytes
  max/ min on nodes  :      22265.94      21290.98


 parallel 3D FFT for wavefunctions:
    minimum data exchange during FFTs selected (reduces bandwidth)
 parallel 3D FFT for charge:
    minimum data exchange during FFTs selected (reduces bandwidth)


 total amount of memory used by VASP MPI-rank0   174512. kBytes
=======================================================================

   base      :      30000. kBytes
   nonlr-proj:      38395. kBytes
   fftplans  :      20284. kBytes
   grid      :      30949. kBytes
   one-center:        326. kBytes
   wavefun   :      54558. kBytes
 
     INWAV:  cpu time    0.0000: real time    0.0000
 Broyden mixing: mesh for mixing (old mesh)
   NGX = 43   NGY = 43   NGZ = 85
  (NGX  =180   NGY  =180   NGZ  =336)
  gives a total of 157165 points

 initial charge density was supplied:
 charge density of overlapping atoms calculated
 number of electron     801.0000000 magnetization 
 keeping initial charge density in first step


--------------------------------------------------------------------------------------------------------


 Maximum index for non-local projection operator         2127
 Maximum index for augmentation-charges         1793 (set IRDMAX)


--------------------------------------------------------------------------------------------------------


 First call to EWALD:  gamma=   0.133
 Maximum number of real-space cells 4x 4x 2
 Maximum number of reciprocal cells 2x 2x 4

    FEWALD:  cpu time    0.0035: real time    0.0036


--------------------------------------- Iteration      1(   1)  ---------------------------------------


    POTLOK:  cpu time    0.2152: real time    0.2179
    SETDIJ:  cpu time    0.0210: real time    0.0215
     EDDAV:  cpu time   30.6328: real time   30.7372
       DOS:  cpu time    0.0010: real time    0.0012
    --------------------------------------------
      LOOP:  cpu time   30.8701: real time   30.9778

 eigenvalue-minimisations  :  3840
 total energy-change (2. order) : 0.5630498E+04  (-0.3916111E+05)
 number of electron     801.0000000 magnetization 
 augmentation part      801.0000000 magnetization 

 Free energy of the ion-electron system (eV)
  ---------------------------------------------------
  alpha Z        PSCENC =      2567.85090795
  Ewald energy   TEWEN  =    178115.04833187
  -Hartree energ DENC   =   -242277.31444478
  -exchange      EXHF   =         0.00000000
  -V(xc)+E(xc)   XCENC  =       284.42009299
  PAW double counting   =     55692.01686169   -53429.36650374
  entropy T*S    EENTRO =        -0.01168978
  eigenvalues    EBANDS =      6336.12333759
  atomic energy  EATOM  =     58341.73154849
  Solvation  Ediel_sol  =         0.00000000
  ---------------------------------------------------
  free energy    TOTEN  =      5630.49844228 eV

  energy without entropy =     5630.51013206  energy(sigma->0) =     5630.50233887


--------------------------------------------------------------------------------------------------------




--------------------------------------- Iteration      1(   2)  ---------------------------------------


     EDDAV:  cpu time   32.8631: real time   32.9534
       DOS:  cpu time    0.0011: real time    0.0010
    --------------------------------------------
      LOOP:  cpu time   32.8641: real time   32.9544

 eigenvalue-minimisations  :  4270
 total energy-change (2. order) :-0.5767774E+04  (-0.5361055E+04)
 number of electron     801.0000000 magnetization 
 augmentation part      801.0000000 magnetization 

 Free energy of the ion-electron system (eV)
  ---------------------------------------------------
  alpha Z        PSCENC =      2567.85090795
  Ewald energy   TEWEN  =    178115.04833187
  -Hartree energ DENC   =   -242277.31444478
  -exchange      EXHF   =         0.00000000
  -V(xc)+E(xc)   XCENC  =       284.42009299
  PAW double counting   =     55692.01686169   -53429.36650374
  entropy T*S    EENTRO =         0.00753136
  eigenvalues    EBANDS =       568.33030142
  atomic energy  EATOM  =     58341.73154849
  Solvation  Ediel_sol  =         0.00000000
  ---------------------------------------------------
  free energy    TOTEN  =      -137.27537275 eV

  energy without entropy =     -137.28290411  energy(sigma->0) =     -137.27788320


--------------------------------------------------------------------------------------------------------




--------------------------------------- Iteration      1(   3)  ---------------------------------------


     EDDAV:  cpu time   35.2912: real time   35.3886
       DOS:  cpu time    0.0011: real time    0.0011
    --------------------------------------------
      LOOP:  cpu time   35.2922: real time   35.3897

 eigenvalue-minimisations  :  4640
 total energy-change (2. order) :-0.3472383E+03  (-0.3110692E+03)
 number of electron     801.0000000 magnetization 
 augmentation part      801.0000000 magnetization 

 Free energy of the ion-electron system (eV)
  ---------------------------------------------------
  alpha Z        PSCENC =      2567.85090795
  Ewald energy   TEWEN  =    178115.04833187
  -Hartree energ DENC   =   -242277.31444478
  -exchange      EXHF   =         0.00000000
  -V(xc)+E(xc)   XCENC  =       284.42009299
  PAW double counting   =     55692.01686169   -53429.36650374
  entropy T*S    EENTRO =        -0.10601952
  eigenvalues    EBANDS =       221.20552148
  atomic energy  EATOM  =     58341.73154849
  Solvation  Ediel_sol  =         0.00000000
  ---------------------------------------------------
  free energy    TOTEN  =      -484.51370357 eV

  energy without entropy =     -484.40768405  energy(sigma->0) =     -484.47836373


--------------------------------------------------------------------------------------------------------




--------------------------------------- Iteration      1(   4)  ---------------------------------------


     EDDAV:  cpu time   36.4124: real time   36.5120
       DOS:  cpu time    0.0011: real time    0.0011
    --------------------------------------------
      LOOP:  cpu time   36.4135: real time   36.5131

 eigenvalue-minimisations  :  4840
 total energy-change (2. order) :-0.1644142E+02  (-0.1560345E+02)
 number of electron     801.0000000 magnetization 
 augmentation part      801.0000000 magnetization 

 Free energy of the ion-electron system (eV)
  ---------------------------------------------------
  alpha Z        PSCENC =      2567.85090795
  Ewald energy   TEWEN  =    178115.04833187
  -Hartree energ DENC   =   -242277.31444478
  -exchange      EXHF   =         0.00000000
  -V(xc)+E(xc)   XCENC  =       284.42009299
  PAW double counting   =     55692.01686169   -53429.36650374
  entropy T*S    EENTRO =        -0.13283709
  eigenvalues    EBANDS =       204.79092348
  atomic energy  EATOM  =     58341.73154849
  Solvation  Ediel_sol  =         0.00000000
  ---------------------------------------------------
  free energy    TOTEN  =      -500.95511914 eV

  energy without entropy =     -500.82228205  energy(sigma->0) =     -500.91084011


--------------------------------------------------------------------------------------------------------




--------------------------------------- Iteration      1(   5)  ---------------------------------------


     EDDAV:  cpu time   36.2802: real time   36.3797
       DOS:  cpu time    0.0011: real time    0.0011
    CHARGE:  cpu time    2.4972: real time    2.5038
    MIXING:  cpu time    0.0073: real time    0.0077
    --------------------------------------------
      LOOP:  cpu time   38.7858: real time   38.8924

 eigenvalue-minimisations  :  4830
 total energy-change (2. order) :-0.4540428E+00  (-0.4518394E+00)
 number of electron     801.0000015 magnetization 
 augmentation part      232.2295397 magnetization 

 Broyden mixing:
  rms(total) = 0.10077E+02    rms(broyden)= 0.10077E+02
  rms(prec ) = 0.10252E+02
  weight for this iteration     100.00

 Free energy of the ion-electron system (eV)
  ---------------------------------------------------
  alpha Z        PSCENC =      2567.85090795
  Ewald energy   TEWEN  =    178115.04833187
  -Hartree energ DENC   =   -242277.31444478
  -exchange      EXHF   =         0.00000000
  -V(xc)+E(xc)   XCENC  =       284.42009299
  PAW double counting   =     55692.01686169   -53429.36650374
  entropy T*S    EENTRO =        -0.13330637
  eigenvalues    EBANDS =       204.33734994
  atomic energy  EATOM  =     58341.73154849
  Solvation  Ediel_sol  =         0.00000000
  ---------------------------------------------------
  free energy    TOTEN  =      -501.40916196 eV

  energy without entropy =     -501.27585558  energy(sigma->0) =     -501.36472650


--------------------------------------------------------------------------------------------------------




--------------------------------------- Iteration      1(   6)  ---------------------------------------


    POTLOK:  cpu time    0.2006: real time    0.2011
    SETDIJ:  cpu time    0.0163: real time    0.0163
    EDDIAG:  cpu time    5.3270: real time    5.3421
  RMM-DIIS:  cpu time   19.3107: real time   19.3639
    ORTHCH:  cpu time    0.4805: real time    0.4820
       DOS:  cpu time    0.0011: real time    0.0011
    CHARGE:  cpu time    2.4850: real time    2.4917
    MIXING:  cpu time    0.0072: real time    0.0075
    --------------------------------------------
      LOOP:  cpu time   27.8283: real time   27.9056

 eigenvalue-minimisations  :  3869
 total energy-change (2. order) :-0.1470104E+02  (-0.1016156E+02)
 number of electron     801.0000020 magnetization 
 augmentation part      245.4802194 magnetization 

 Broyden mixing:
  rms(total) = 0.90954E+01    rms(broyden)= 0.90954E+01
  rms(prec ) = 0.10316E+02
  weight for this iteration     100.00

 eigenvalues of (default mixing * dielectric matrix)
  average eigenvalue GAMMA=   0.7505
  0.7505

 Free energy of the ion-electron system (eV)
  ---------------------------------------------------
  alpha Z        PSCENC =      2567.85090795
  Ewald energy   TEWEN  =    178115.04833187
  -Hartree energ DENC   =   -241147.05086620
  -exchange      EXHF   =         0.00000000
  -V(xc)+E(xc)   XCENC  =       263.75003418
  PAW double counting   =     62088.91208690   -59950.12211322
  entropy T*S    EENTRO =        -0.00260584
  eigenvalues    EBANDS =      -796.22752755
  atomic energy  EATOM  =     58341.73154849
  Solvation  Ediel_sol  =         0.00000000
  ---------------------------------------------------
  free energy    TOTEN  =      -516.11020341 eV

  energy without entropy =     -516.10759758  energy(sigma->0) =     -516.10933480


--------------------------------------------------------------------------------------------------------




--------------------------------------- Iteration      1(   7)  ---------------------------------------


    POTLOK:  cpu time    0.1940: real time    0.1945
    SETDIJ:  cpu time    0.0162: real time    0.0163
    EDDIAG:  cpu time    5.3307: real time    5.3458
  RMM-DIIS:  cpu time   18.9529: real time   19.0051
    ORTHCH:  cpu time    0.4832: real time    0.4844
       DOS:  cpu time    0.0011: real time    0.0011
    CHARGE:  cpu time    2.4790: real time    2.4859
    MIXING:  cpu time    0.0067: real time    0.0067
    --------------------------------------------
      LOOP:  cpu time   27.4639: real time   27.5398

 eigenvalue-minimisations  :  3848
 total energy-change (2. order) :-0.2079514E+02  (-0.1256259E+02)
 number of electron     801.0000015 magnetization 
 augmentation part      241.8071209 magnetization 

 Broyden mixing:
  rms(total) = 0.74888E+01    rms(broyden)= 0.74888E+01
  rms(prec ) = 0.93872E+01
  weight for this iteration     100.00

 eigenvalues of (default mixing * dielectric matrix)
  average eigenvalue GAMMA=   1.1997
  2.1773  0.2221

 Free energy of the ion-electron system (eV)
  ---------------------------------------------------
  alpha Z        PSCENC =      2567.85090795
  Ewald energy   TEWEN  =    178115.04833187
  -Hartree energ DENC   =   -242001.92724698
  -exchange      EXHF   =         0.00000000
  -V(xc)+E(xc)   XCENC  =       260.30530433
  PAW double counting   =     64424.92374679   -62312.00841650
  entropy T*S    EENTRO =        -0.23803280
  eigenvalues    EBANDS =        67.40851413
  atomic energy  EATOM  =     58341.73154849
  Solvation  Ediel_sol  =         0.00000000
  ---------------------------------------------------
  free energy    TOTEN  =      -536.90534272 eV

  energy without entropy =     -536.66730992  energy(sigma->0) =     -536.82599845


--------------------------------------------------------------------------------------------------------




--------------------------------------- Iteration      1(   8)  ---------------------------------------


    POTLOK:  cpu time    0.1955: real time    0.1960
    SETDIJ:  cpu time    0.0161: real time    0.0161
    EDDIAG:  cpu time    5.3326: real time    5.3470
  RMM-DIIS:  cpu time   19.1159: real time   19.1683
    ORTHCH:  cpu time    0.5437: real time    0.5453
       DOS:  cpu time    0.0010: real time    0.0010
    CHARGE:  cpu time    2.5178: real time    2.5246
    MIXING:  cpu time    0.0075: real time    0.0075
    --------------------------------------------
      LOOP:  cpu time   27.7299: real time   27.8057

 eigenvalue-minimisations  :  3857
 total energy-change (2. order) : 0.3394283E+02  (-0.4294995E+01)
 number of electron     801.0000017 magnetization 
 augmentation part      249.9349390 magnetization 

 Broyden mixing:
  rms(total) = 0.49509E+01    rms(broyden)= 0.49509E+01
  rms(prec ) = 0.70940E+01
  weight for this iteration     100.00

 eigenvalues of (default mixing * dielectric matrix)
  average eigenvalue GAMMA=   0.9257
  2.1931  0.3497  0.2344

 Free energy of the ion-electron system (eV)
  ---------------------------------------------------
  alpha Z        PSCENC =      2567.85090795
  Ewald energy   TEWEN  =    178115.04833187
  -Hartree energ DENC   =   -241361.55698955
  -exchange      EXHF   =         0.00000000
  -V(xc)+E(xc)   XCENC  =       251.56933338
  PAW double counting   =     71738.39296684   -69719.38777666
  entropy T*S    EENTRO =        -0.06175621
  eigenvalues    EBANDS =      -436.54908018
  atomic energy  EATOM  =     58341.73154849
  Solvation  Ediel_sol  =         0.00000000
  ---------------------------------------------------
  free energy    TOTEN  =      -502.96251407 eV

  energy without entropy =     -502.90075786  energy(sigma->0) =     -502.94192867


--------------------------------------------------------------------------------------------------------




--------------------------------------- Iteration      1(   9)  ---------------------------------------


    POTLOK:  cpu time    0.1989: real time    0.1996
    SETDIJ:  cpu time    0.0164: real time    0.0165
    EDDIAG:  cpu time    5.3600: real time    5.3746
  RMM-DIIS:  cpu time   18.9633: real time   19.0156
    ORTHCH:  cpu time    0.4817: real time    0.4829
       DOS:  cpu time    0.0011: real time    0.0011
    CHARGE:  cpu time    2.5149: real time    2.5220
    MIXING:  cpu time    0.0071: real time    0.0072
    --------------------------------------------
      LOOP:  cpu time   27.5435: real time   27.6195

 eigenvalue-minimisations  :  3853
 total energy-change (2. order) :-0.1197235E+02  (-0.2848705E+01)
 number of electron     801.0000020 magnetization 
 augmentation part      249.2784095 magnetization 

 Broyden mixing:
  rms(total) = 0.53955E+01    rms(broyden)= 0.53955E+01
  rms(prec ) = 0.89301E+01
  weight for this iteration     100.00

 eigenvalues of (default mixing * dielectric matrix)
  average eigenvalue GAMMA=   0.8103
  2.2001  0.7045  0.2227  0.1139

 Free energy of the ion-electron system (eV)
  ---------------------------------------------------
  alpha Z        PSCENC =      2567.85090795
  Ewald energy   TEWEN  =    178115.04833187
  -Hartree energ DENC   =   -241311.51257567
  -exchange      EXHF   =         0.00000000
  -V(xc)+E(xc)   XCENC  =       252.24978643
  PAW double counting   =     72022.08602896   -70003.65860106
  entropy T*S    EENTRO =        -0.06055697
  eigenvalues    EBANDS =      -498.66973698
  atomic energy  EATOM  =     58341.73154849
  Solvation  Ediel_sol  =         0.00000000
  ---------------------------------------------------
  free energy    TOTEN  =      -514.93486696 eV

  energy without entropy =     -514.87430999  energy(sigma->0) =     -514.91468131


--------------------------------------------------------------------------------------------------------




--------------------------------------- Iteration      1(  10)  ---------------------------------------


    POTLOK:  cpu time    0.1988: real time    0.1992
    SETDIJ:  cpu time    0.0162: real time    0.0162
    EDDIAG:  cpu time    5.3284: real time    5.3434
  RMM-DIIS:  cpu time   19.0494: real time   19.1018
    ORTHCH:  cpu time    0.4785: real time    0.4797
       DOS:  cpu time    0.0011: real time    0.0011
    CHARGE:  cpu time    2.5248: real time    2.5319
    MIXING:  cpu time    0.0078: real time    0.0078
    --------------------------------------------
      LOOP:  cpu time   27.6048: real time   27.6810

 eigenvalue-minimisations  :  3860
 total energy-change (2. order) : 0.3034738E+02  (-0.2964811E+01)
 number of electron     801.0000018 magnetization 
 augmentation part      249.4668481 magnetization 

 Broyden mixing:
  rms(total) = 0.38866E+01    rms(broyden)= 0.38866E+01
  rms(prec ) = 0.51984E+01
  weight for this iteration     100.00

 eigenvalues of (default mixing * dielectric matrix)
  average eigenvalue GAMMA=   0.7720
  2.2209  1.0845  0.2300  0.2300  0.0946

 Free energy of the ion-electron system (eV)
  ---------------------------------------------------
  alpha Z        PSCENC =      2567.85090795
  Ewald energy   TEWEN  =    178115.04833187
  -Hartree energ DENC   =   -241303.70964134
  -exchange      EXHF   =         0.00000000
  -V(xc)+E(xc)   XCENC  =       253.44190895
  PAW double counting   =     72300.87622371   -70281.58683707
  entropy T*S    EENTRO =        -0.01421269
  eigenvalues    EBANDS =      -478.22571846
  atomic energy  EATOM  =     58341.73154849
  Solvation  Ediel_sol  =         0.00000000
  ---------------------------------------------------
  free energy    TOTEN  =      -484.58748859 eV

  energy without entropy =     -484.57327590  energy(sigma->0) =     -484.58275103


--------------------------------------------------------------------------------------------------------




--------------------------------------- Iteration      1(  11)  ---------------------------------------


    POTLOK:  cpu time    0.2102: real time    0.2107
    SETDIJ:  cpu time    0.0195: real time    0.0195
    EDDIAG:  cpu time    5.4862: real time    5.5013
  RMM-DIIS:  cpu time   19.0402: real time   19.0928
    ORTHCH:  cpu time    0.4819: real time    0.4834
       DOS:  cpu time    0.0013: real time    0.0013
    CHARGE:  cpu time    2.5247: real time    2.5315
    MIXING:  cpu time    0.0099: real time    0.0099
    --------------------------------------------
      LOOP:  cpu time   27.7737: real time   27.8503

 eigenvalue-minimisations  :  3853
 total energy-change (2. order) : 0.7750705E+01  (-0.6521215E+00)
 number of electron     801.0000018 magnetization 
 augmentation part      248.6336727 magnetization 

 Broyden mixing:
  rms(total) = 0.28712E+01    rms(broyden)= 0.28712E+01
  rms(prec ) = 0.41511E+01
  weight for this iteration     100.00

 eigenvalues of (default mixing * dielectric matrix)
  average eigenvalue GAMMA=   0.6806
  2.2130  1.0591  0.2497  0.2497  0.2229  0.0896

 Free energy of the ion-electron system (eV)
  ---------------------------------------------------
  alpha Z        PSCENC =      2567.85090795
  Ewald energy   TEWEN  =    178115.04833187
  -Hartree energ DENC   =   -241340.09112693
  -exchange      EXHF   =         0.00000000
  -V(xc)+E(xc)   XCENC  =       254.91369761
  PAW double counting   =     72609.56953830   -70587.61521703
  entropy T*S    EENTRO =         0.04814771
  eigenvalues    EBANDS =      -438.29261173
  atomic energy  EATOM  =     58341.73154849
  Solvation  Ediel_sol  =         0.00000000
  ---------------------------------------------------
  free energy    TOTEN  =      -476.83678375 eV

  energy without entropy =     -476.88493146  energy(sigma->0) =     -476.85283299


--------------------------------------------------------------------------------------------------------




--------------------------------------- Iteration      1(  12)  ---------------------------------------


    POTLOK:  cpu time    0.1999: real time    0.2008
    SETDIJ:  cpu time    0.0162: real time    0.0162
    EDDIAG:  cpu time    5.3601: real time    5.3750
  RMM-DIIS:  cpu time   19.1020: real time   19.1544
    ORTHCH:  cpu time    0.4800: real time    0.4816
       DOS:  cpu time    0.0013: real time    0.0013
    CHARGE:  cpu time    2.5109: real time    2.5177
    MIXING:  cpu time    0.0081: real time    0.0081
    --------------------------------------------
      LOOP:  cpu time   27.6785: real time   27.7550

 eigenvalue-minimisations  :  3860
 total energy-change (2. order) : 0.5507730E+01  (-0.2662281E+00)
 number of electron     801.0000018 magnetization 
 augmentation part      248.4678317 magnetization 

 Broyden mixing:
  rms(total) = 0.15856E+01    rms(broyden)= 0.15856E+01
  rms(prec ) = 0.18562E+01
  weight for this iteration     100.00

 eigenvalues of (default mixing * dielectric matrix)
  average eigenvalue GAMMA=   0.6807
  2.0853  0.9240  0.9240  0.3259  0.2080  0.2080  0.0897

 Free energy of the ion-electron system (eV)
  ---------------------------------------------------
  alpha Z        PSCENC =      2567.85090795
  Ewald energy   TEWEN  =    178115.04833187
  -Hartree energ DENC   =   -241358.92025126
  -exchange      EXHF   =         0.00000000
  -V(xc)+E(xc)   XCENC  =       255.01359263
  PAW double counting   =     72596.10336918   -70573.29848641
  entropy T*S    EENTRO =        -0.20524969
  eigenvalues    EBANDS =      -414.65281664
  atomic energy  EATOM  =     58341.73154849
  Solvation  Ediel_sol  =         0.00000000
  ---------------------------------------------------
  free energy    TOTEN  =      -471.32905388 eV

  energy without entropy =     -471.12380419  energy(sigma->0) =     -471.26063732


--------------------------------------------------------------------------------------------------------




--------------------------------------- Iteration      1(  13)  ---------------------------------------


    POTLOK:  cpu time    0.1981: real time    0.1986
    SETDIJ:  cpu time    0.0164: real time    0.0164
    EDDIAG:  cpu time    5.3831: real time    5.3981
  RMM-DIIS:  cpu time   19.1252: real time   19.1807
    ORTHCH:  cpu time    0.4812: real time    0.4827
       DOS:  cpu time    0.0012: real time    0.0012
    CHARGE:  cpu time    2.5152: real time    2.5225
    MIXING:  cpu time    0.0082: real time    0.0082
    --------------------------------------------
      LOOP:  cpu time   27.7285: real time   27.8082

 eigenvalue-minimisations  :  3860
 total energy-change (2. order) : 0.7847533E+00  (-0.1909735E+00)
 number of electron     801.0000018 magnetization 
 augmentation part      248.3238408 magnetization 

 Broyden mixing:
  rms(total) = 0.10934E+01    rms(broyden)= 0.10934E+01
  rms(prec ) = 0.13191E+01
  weight for this iteration     100.00

 eigenvalues of (default mixing * dielectric matrix)
  average eigenvalue GAMMA=   0.6610
  1.9738  1.1277  1.1277  0.2908  0.2305  0.2237  0.2237  0.0898

 Free energy of the ion-electron system (eV)
  ---------------------------------------------------
  alpha Z        PSCENC =      2567.85090795
  Ewald energy   TEWEN  =    178115.04833187
  -Hartree energ DENC   =   -241386.07706741
  -exchange      EXHF   =         0.00000000
  -V(xc)+E(xc)   XCENC  =       255.21160459
  PAW double counting   =     72340.27342303   -70314.19797553
  entropy T*S    EENTRO =        -0.25851229
  eigenvalues    EBANDS =      -390.12656128
  atomic energy  EATOM  =     58341.73154849
  Solvation  Ediel_sol  =         0.00000000
  ---------------------------------------------------
  free energy    TOTEN  =      -470.54430057 eV

  energy without entropy =     -470.28578829  energy(sigma->0) =     -470.45812981


--------------------------------------------------------------------------------------------------------




--------------------------------------- Iteration      1(  14)  ---------------------------------------


    POTLOK:  cpu time    0.1979: real time    0.1984
    SETDIJ:  cpu time    0.0161: real time    0.0161
    EDDIAG:  cpu time    5.3276: real time    5.3430
  RMM-DIIS:  cpu time   19.2613: real time   19.3167
    ORTHCH:  cpu time    0.4834: real time    0.4848
       DOS:  cpu time    0.0011: real time    0.0011
    CHARGE:  cpu time    2.5054: real time    2.5127
    MIXING:  cpu time    0.0093: real time    0.0094
    --------------------------------------------
      LOOP:  cpu time   27.8019: real time   27.8821

 eigenvalue-minimisations  :  3868
 total energy-change (2. order) : 0.1667188E+00  (-0.9263717E-01)
 number of electron     801.0000017 magnetization 
 augmentation part      248.1979650 magnetization 

 Broyden mixing:
  rms(total) = 0.10723E+01    rms(broyden)= 0.10723E+01
  rms(prec ) = 0.14904E+01
  weight for this iteration     100.00

 eigenvalues of (default mixing * dielectric matrix)
  average eigenvalue GAMMA=   0.6376
  1.9257  1.1706  1.1706  0.4749  0.3328  0.0897  0.2120  0.2095  0.1526

 Free energy of the ion-electron system (eV)
  ---------------------------------------------------
  alpha Z        PSCENC =      2567.85090795
  Ewald energy   TEWEN  =    178115.04833187
  -Hartree energ DENC   =   -241398.56647584
  -exchange      EXHF   =         0.00000000
  -V(xc)+E(xc)   XCENC  =       255.45108922
  PAW double counting   =     72214.80069801   -70186.71565619
  entropy T*S    EENTRO =        -0.23021595
  eigenvalues    EBANDS =      -379.74780932
  atomic energy  EATOM  =     58341.73154849
  Solvation  Ediel_sol  =         0.00000000
  ---------------------------------------------------
  free energy    TOTEN  =      -470.37758177 eV

  energy without entropy =     -470.14736581  energy(sigma->0) =     -470.30084311


--------------------------------------------------------------------------------------------------------




--------------------------------------- Iteration      1(  15)  ---------------------------------------


    POTLOK:  cpu time    0.1975: real time    0.1981
    SETDIJ:  cpu time    0.0157: real time    0.0157
    EDDIAG:  cpu time    5.3298: real time    5.3451
  RMM-DIIS:  cpu time   19.1925: real time   19.2516
    ORTHCH:  cpu time    0.4808: real time    0.4820
       DOS:  cpu time    0.0013: real time    0.0013
    CHARGE:  cpu time    2.5084: real time    2.5155
    MIXING:  cpu time    0.0088: real time    0.0088
    --------------------------------------------
      LOOP:  cpu time   27.7348: real time   27.8180

 eigenvalue-minimisations  :  3860
 total energy-change (2. order) : 0.4349462E+00  (-0.3994759E-01)
 number of electron     801.0000018 magnetization 
 augmentation part      248.1194058 magnetization 

 Broyden mixing:
  rms(total) = 0.65857E+00    rms(broyden)= 0.65857E+00
  rms(prec ) = 0.85948E+00
  weight for this iteration     100.00

 eigenvalues of (default mixing * dielectric matrix)
  average eigenvalue GAMMA=   0.6150
  1.9237  1.1562  1.1562  0.7199  0.3086  0.2297  0.2106  0.2106  0.0897  0.1449

 Free energy of the ion-electron system (eV)
  ---------------------------------------------------
  alpha Z        PSCENC =      2567.85090795
  Ewald energy   TEWEN  =    178115.04833187
  -Hartree energ DENC   =   -241407.12163907
  -exchange      EXHF   =         0.00000000
  -V(xc)+E(xc)   XCENC  =       255.58880613
  PAW double counting   =     72205.07658078   -70176.44706470
  entropy T*S    EENTRO =        -0.30063098
  eigenvalues    EBANDS =      -371.36947605
  atomic energy  EATOM  =     58341.73154849
  Solvation  Ediel_sol  =         0.00000000
  ---------------------------------------------------
  free energy    TOTEN  =      -469.94263558 eV

  energy without entropy =     -469.64200460  energy(sigma->0) =     -469.84242526


--------------------------------------------------------------------------------------------------------




--------------------------------------- Iteration      1(  16)  ---------------------------------------


    POTLOK:  cpu time    0.1981: real time    0.1986
    SETDIJ:  cpu time    0.0163: real time    0.0163
    EDDIAG:  cpu time    5.3281: real time    5.3425
  RMM-DIIS:  cpu time   19.1283: real time   19.1809
    ORTHCH:  cpu time    0.4783: real time    0.4797
       DOS:  cpu time    0.0012: real time    0.0012
    CHARGE:  cpu time    2.5034: real time    2.5101
    MIXING:  cpu time    0.0082: real time    0.0082
    --------------------------------------------
      LOOP:  cpu time   27.6619: real time   27.7376

 eigenvalue-minimisations  :  3860
 total energy-change (2. order) : 0.1869518E+00  (-0.1402264E-01)
 number of electron     801.0000018 magnetization 
 augmentation part      248.0975975 magnetization 

 Broyden mixing:
  rms(total) = 0.43215E+00    rms(broyden)= 0.43215E+00
  rms(prec ) = 0.50364E+00
  weight for this iteration     100.00

 eigenvalues of (default mixing * dielectric matrix)
  average eigenvalue GAMMA=   0.6074
  1.9104  1.2506  1.2506  0.6045  0.3739  0.3739  0.0897  0.2564  0.2300  0.1938
  0.1478

 Free energy of the ion-electron system (eV)
  ---------------------------------------------------
  alpha Z        PSCENC =      2567.85090795
  Ewald energy   TEWEN  =    178115.04833187
  -Hartree energ DENC   =   -241409.58586438
  -exchange      EXHF   =         0.00000000
  -V(xc)+E(xc)   XCENC  =       255.66217648
  PAW double counting   =     72219.86604512   -70191.12751478
  entropy T*S    EENTRO =        -0.30523286
  eigenvalues    EBANDS =      -368.89608165
  atomic energy  EATOM  =     58341.73154849
  Solvation  Ediel_sol  =         0.00000000
  ---------------------------------------------------
  free energy    TOTEN  =      -469.75568376 eV

  energy without entropy =     -469.45045090  energy(sigma->0) =     -469.65393947


--------------------------------------------------------------------------------------------------------




--------------------------------------- Iteration      1(  17)  ---------------------------------------


    POTLOK:  cpu time    0.1987: real time    0.1996
    SETDIJ:  cpu time    0.0161: real time    0.0161
    EDDIAG:  cpu time    5.3345: real time    5.3490
  RMM-DIIS:  cpu time   19.1758: real time   19.2284
    ORTHCH:  cpu time    0.4805: real time    0.4820
       DOS:  cpu time    0.0013: real time    0.0013
    CHARGE:  cpu time    2.5086: real time    2.5153
    MIXING:  cpu time    0.0094: real time    0.0094
    --------------------------------------------
      LOOP:  cpu time   27.7248: real time   27.8012

 eigenvalue-minimisations  :  3864
 total energy-change (2. order) :-0.2997173E-02  (-0.5028755E-02)
 number of electron     801.0000018 magnetization 
 augmentation part      248.1000828 magnetization 

 Broyden mixing:
  rms(total) = 0.40894E+00    rms(broyden)= 0.40894E+00
  rms(prec ) = 0.46987E+00
  weight for this iteration     100.00

 eigenvalues of (default mixing * dielectric matrix)
  average eigenvalue GAMMA=   0.6480
  1.8570  1.5457  1.5457  0.6899  0.6899  0.3185  0.2760  0.0897  0.2324  0.1951
  0.1951  0.1414

 Free energy of the ion-electron system (eV)
  ---------------------------------------------------
  alpha Z        PSCENC =      2567.85090795
  Ewald energy   TEWEN  =    178115.04833187
  -Hartree energ DENC   =   -241410.98321065
  -exchange      EXHF   =         0.00000000
  -V(xc)+E(xc)   XCENC  =       255.70016304
  PAW double counting   =     72218.74021380   -70189.84241687
  entropy T*S    EENTRO =        -0.30261731
  eigenvalues    EBANDS =      -367.70160124
  atomic energy  EATOM  =     58341.73154849
  Solvation  Ediel_sol  =         0.00000000
  ---------------------------------------------------
  free energy    TOTEN  =      -469.75868093 eV

  energy without entropy =     -469.45606362  energy(sigma->0) =     -469.65780849


--------------------------------------------------------------------------------------------------------




--------------------------------------- Iteration      1(  18)  ---------------------------------------


    POTLOK:  cpu time    0.2008: real time    0.2013
    SETDIJ:  cpu time    0.0163: real time    0.0166
    EDDIAG:  cpu time    5.3370: real time    5.3515
  RMM-DIIS:  cpu time   19.1429: real time   19.1955
    ORTHCH:  cpu time    0.4810: real time    0.4825
       DOS:  cpu time    0.0011: real time    0.0011
    CHARGE:  cpu time    2.4928: real time    2.4995
    MIXING:  cpu time    0.0087: real time    0.0088
    --------------------------------------------
      LOOP:  cpu time   27.6807: real time   27.7568

 eigenvalue-minimisations  :  3861
 total energy-change (2. order) :-0.8310592E-02  (-0.5899413E-02)
 number of electron     801.0000018 magnetization 
 augmentation part      248.1007904 magnetization 

 Broyden mixing:
  rms(total) = 0.34706E+00    rms(broyden)= 0.34706E+00
  rms(prec ) = 0.43568E+00
  weight for this iteration     100.00

 eigenvalues of (default mixing * dielectric matrix)
  average eigenvalue GAMMA=   0.6682
  1.7926  1.7275  1.7275  0.8016  0.8016  0.4491  0.3333  0.2409  0.2158  0.2158
  0.0897  0.1458  0.1458

 Free energy of the ion-electron system (eV)
  ---------------------------------------------------
  alpha Z        PSCENC =      2567.85090795
  Ewald energy   TEWEN  =    178115.04833187
  -Hartree energ DENC   =   -241416.36391751
  -exchange      EXHF   =         0.00000000
  -V(xc)+E(xc)   XCENC  =       255.78259819
  PAW double counting   =     72220.42656131   -70191.21347902
  entropy T*S    EENTRO =        -0.31329451
  eigenvalues    EBANDS =      -362.71624829
  atomic energy  EATOM  =     58341.73154849
  Solvation  Ediel_sol  =         0.00000000
  ---------------------------------------------------
  free energy    TOTEN  =      -469.76699152 eV

  energy without entropy =     -469.45369702  energy(sigma->0) =     -469.66256002


--------------------------------------------------------------------------------------------------------




--------------------------------------- Iteration      1(  19)  ---------------------------------------


    POTLOK:  cpu time    0.2017: real time    0.2023
    SETDIJ:  cpu time    0.0162: real time    0.0162
    EDDIAG:  cpu time    5.3303: real time    5.3449
  RMM-DIIS:  cpu time   19.0876: real time   19.1403
    ORTHCH:  cpu time    0.4840: real time    0.4852
       DOS:  cpu time    0.0012: real time    0.0012
    CHARGE:  cpu time    2.5066: real time    2.5136
    MIXING:  cpu time    0.0115: real time    0.0116
    --------------------------------------------
      LOOP:  cpu time   27.6392: real time   27.7152

 eigenvalue-minimisations  :  3860
 total energy-change (2. order) : 0.1769814E-01  (-0.6964289E-02)
 number of electron     801.0000018 magnetization 
 augmentation part      248.0717309 magnetization 

 Broyden mixing:
  rms(total) = 0.31177E+00    rms(broyden)= 0.31177E+00
  rms(prec ) = 0.37545E+00
  weight for this iteration     100.00

 eigenvalues of (default mixing * dielectric matrix)
  average eigenvalue GAMMA=   0.6709
  1.9233  1.9233  1.5753  0.8980  0.8980  0.5943  0.3316  0.0897  0.2531  0.2158
  0.2158  0.1840  0.1519  0.1391

 Free energy of the ion-electron system (eV)
  ---------------------------------------------------
  alpha Z        PSCENC =      2567.85090795
  Ewald energy   TEWEN  =    178115.04833187
  -Hartree energ DENC   =   -241422.20908761
  -exchange      EXHF   =         0.00000000
  -V(xc)+E(xc)   XCENC  =       255.86723035
  PAW double counting   =     72239.09037562   -70209.68626826
  entropy T*S    EENTRO =        -0.31190466
  eigenvalues    EBANDS =      -357.13042713
  atomic energy  EATOM  =     58341.73154849
  Solvation  Ediel_sol  =         0.00000000
  ---------------------------------------------------
  free energy    TOTEN  =      -469.74929338 eV

  energy without entropy =     -469.43738872  energy(sigma->0) =     -469.64532516


--------------------------------------------------------------------------------------------------------




--------------------------------------- Iteration      1(  20)  ---------------------------------------


    POTLOK:  cpu time    0.2065: real time    0.2070
    SETDIJ:  cpu time    0.0165: real time    0.0165
    EDDIAG:  cpu time    5.3356: real time    5.3502
  RMM-DIIS:  cpu time   19.1290: real time   19.1819
    ORTHCH:  cpu time    0.4795: real time    0.4806
       DOS:  cpu time    0.0012: real time    0.0012
    CHARGE:  cpu time    2.4833: real time    2.4899
    MIXING:  cpu time    0.0093: real time    0.0096
    --------------------------------------------
      LOOP:  cpu time   27.6609: real time   27.7369

 eigenvalue-minimisations  :  3862
 total energy-change (2. order) : 0.5186827E-01  (-0.3894652E-02)
 number of electron     801.0000018 magnetization 
 augmentation part      248.0299018 magnetization 

 Broyden mixing:
  rms(total) = 0.15844E+00    rms(broyden)= 0.15844E+00
  rms(prec ) = 0.21710E+00
  weight for this iteration     100.00

 eigenvalues of (default mixing * dielectric matrix)
  average eigenvalue GAMMA=   0.6512
  1.9110  1.9110  1.5858  0.9404  0.9404  0.4685  0.4685  0.3124  0.0897  0.2273
  0.2168  0.2168  0.1952  0.1459  0.1383

 Free energy of the ion-electron system (eV)
  ---------------------------------------------------
  alpha Z        PSCENC =      2567.85090795
  Ewald energy   TEWEN  =    178115.04833187
  -Hartree energ DENC   =   -241429.63355447
  -exchange      EXHF   =         0.00000000
  -V(xc)+E(xc)   XCENC  =       255.95862312
  PAW double counting   =     72276.71681509   -70247.25694180
  entropy T*S    EENTRO =        -0.31718864
  eigenvalues    EBANDS =      -349.79596673
  atomic energy  EATOM  =     58341.73154849
  Solvation  Ediel_sol  =         0.00000000
[...]
   -.690E-01 0.135E+00 -.132E+04   0.615E-01 -.121E+00 0.132E+04   0.667E-03 0.472E-02 0.690E+00   0.443E-02 -.164E-01 0.121E+00
   -.601E-01 0.117E+01 -.131E+04   0.107E+00 -.119E+01 0.131E+04   -.320E-01 0.175E-01 0.696E+00   -.215E-01 -.935E-02 0.142E+00
   -.949E+00 -.687E+00 -.131E+04   0.101E+01 0.666E+00 0.131E+04   -.410E-01 0.300E-01 0.694E+00   -.876E-02 0.112E-01 0.144E+00
   0.576E-01 -.465E+00 0.261E+04   -.392E-01 0.421E+00 -.261E+04   -.348E-01 0.565E-01 -.141E+01   0.727E-02 -.558E-02 0.103E+00
   -.743E+00 0.156E+01 0.261E+04   0.759E+00 -.151E+01 -.261E+04   0.172E-01 -.543E-01 -.131E+01   -.133E-01 -.493E-02 0.995E-01
   -.159E+00 0.285E+00 0.261E+04   0.199E+00 -.316E+00 -.261E+04   -.204E-01 0.125E-01 -.131E+01   -.392E-02 0.614E-02 0.103E+00
   -.459E-01 -.108E+01 0.133E+04   0.534E-01 0.109E+01 -.133E+04   -.343E-02 0.293E-01 -.719E+00   -.243E-02 -.201E-01 0.436E+00
   0.223E+00 0.553E+00 0.133E+04   -.224E+00 -.535E+00 -.133E+04   -.129E-01 -.300E-01 -.692E+00   0.857E-02 0.736E-02 0.452E+00
   -.913E-01 0.144E+01 -.132E+04   0.712E-01 -.144E+01 0.132E+04   0.120E-01 -.187E-01 0.688E+00   0.117E-01 0.292E-02 0.153E+00
   -.858E+00 -.281E+00 0.261E+04   0.831E+00 0.238E+00 -.261E+04   0.202E-01 0.461E-01 -.124E+01   0.408E-02 0.125E-01 0.947E-01
   0.618E+00 -.373E+00 0.133E+04   -.580E+00 0.373E+00 -.133E+04   -.327E-01 0.194E-01 -.682E+00   0.215E-02 -.169E-01 0.444E+00
   -.242E+00 0.209E+00 0.448E+01   0.222E+00 -.197E+00 -.482E+01   0.666E-02 -.556E-02 -.634E-01   0.162E-01 0.270E-02 0.394E+00
   0.106E+01 -.722E+00 -.132E+04   -.107E+01 0.722E+00 0.132E+04   -.784E-02 0.392E-02 0.703E+00   0.469E-03 0.577E-02 0.166E+00
   0.223E+01 0.113E+01 -.134E+04   -.233E+01 -.119E+01 0.133E+04   0.898E-01 0.414E-01 0.613E+00   0.221E-01 0.198E-01 0.152E+00
   0.117E+00 0.336E+00 -.132E+04   0.943E-01 -.216E+00 0.132E+04   -.196E+00 -.120E+00 0.493E+00   -.229E-01 -.377E-02 0.142E+00
   0.930E+00 -.771E+00 0.261E+04   -.879E+00 0.730E+00 -.261E+04   -.524E-01 0.305E-01 -.124E+01   0.384E-02 0.466E-02 0.909E-01
   0.153E+00 0.329E-01 0.261E+04   -.168E+00 -.444E-01 -.261E+04   0.252E-01 0.225E-01 -.132E+01   0.262E-02 -.947E-03 0.876E-01
   -.161E+00 0.164E+00 0.261E+04   0.165E+00 -.156E+00 -.261E+04   -.627E-02 -.195E-01 -.129E+01   -.359E-02 0.807E-02 0.941E-01
   0.203E+00 -.404E+00 0.133E+04   -.241E+00 0.416E+00 -.133E+04   0.244E-01 0.172E-02 -.722E+00   0.124E-01 -.699E-02 0.451E+00
   0.593E+00 -.763E-02 0.672E+01   -.630E+00 -.162E-02 -.715E+01   0.168E-01 0.157E-01 0.359E-01   0.177E-01 0.993E-03 0.422E+00
   0.419E-01 0.434E+00 0.133E+04   -.538E-01 -.464E+00 -.133E+04   0.710E-02 0.187E-01 -.728E+00   0.124E-01 0.978E-03 0.453E+00
   0.953E+00 -.396E+00 0.133E+04   -.952E+00 0.394E+00 -.133E+04   -.167E-01 0.464E-02 -.663E+00   0.479E-02 -.211E-02 0.427E+00
   -.237E+00 -.109E+00 -.132E+04   0.234E+00 -.122E+00 0.132E+04   0.265E-02 0.225E+00 0.477E+00   -.234E-02 0.174E-01 0.139E+00
   0.466E-01 -.141E+00 0.261E+04   -.283E-01 0.110E+00 -.261E+04   -.138E-01 0.397E-01 -.128E+01   -.744E-02 -.170E-02 0.904E-01
   0.722E+00 0.698E+00 0.133E+04   -.755E+00 -.705E+00 -.133E+04   -.485E-02 -.165E-01 -.710E+00   0.235E-01 0.704E-02 0.442E+00
   0.196E+00 0.175E+01 0.459E+01   -.201E+00 -.174E+01 -.503E+01   0.597E-02 -.242E-01 0.125E-01   -.291E-02 0.773E-02 0.422E+00
   0.214E+01 0.127E+01 -.261E+04   -.210E+01 -.122E+01 0.261E+04   -.242E-01 -.224E-01 0.124E+01   -.515E-02 -.135E-01 -.843E-01
   0.471E+01 0.196E+01 -.261E+04   -.467E+01 -.195E+01 0.260E+04   -.540E-01 -.551E-02 0.125E+01   -.239E-02 0.135E-02 -.688E-01
   0.476E+00 -.535E+01 -.260E+04   -.470E+00 0.533E+01 0.260E+04   -.487E-02 0.362E-01 0.125E+01   -.326E-03 0.393E-02 -.709E-01
   -.481E+01 0.154E+01 -.261E+04   0.474E+01 -.155E+01 0.260E+04   0.700E-01 0.387E-03 0.125E+01   0.105E-01 0.530E-02 -.608E-01
   -.655E+00 -.532E+01 -.260E+04   0.629E+00 0.528E+01 0.260E+04   0.207E-01 0.405E-01 0.126E+01   0.349E-02 0.115E-01 -.696E-01
   -.447E+01 0.380E+01 -.260E+04   0.442E+01 -.372E+01 0.260E+04   0.633E-01 -.785E-01 0.125E+01   0.514E-02 -.952E-02 -.664E-01
   -.213E+00 0.545E+00 -.261E+04   0.199E+00 -.532E+00 0.261E+04   0.967E-02 -.134E-01 0.132E+01   0.719E-02 -.348E-02 -.917E-01
   -.207E+01 0.145E+01 -.261E+04   0.202E+01 -.139E+01 0.261E+04   0.321E-01 -.343E-01 0.124E+01   0.383E-02 -.805E-02 -.827E-01
   -.373E-01 -.284E+01 -.261E+04   0.258E-01 0.277E+01 0.261E+04   0.784E-02 0.594E-01 0.124E+01   0.296E-02 -.153E-03 -.885E-01
   0.440E+01 0.354E+01 -.261E+04   -.436E+01 -.347E+01 0.260E+04   -.465E-01 -.760E-01 0.125E+01   -.737E-02 -.557E-02 -.727E-01
   -.466E+00 -.488E+01 -.260E+04   0.448E+00 0.566E+01 0.260E+04   0.255E-01 -.842E+00 0.766E+00   -.511E-02 -.844E-02 -.453E-01
   -.474E+01 0.246E+01 -.260E+04   0.539E+01 -.285E+01 0.260E+04   -.673E+00 0.386E+00 0.778E+00   -.175E-01 0.216E-01 -.436E-01
   -.384E+01 0.247E+01 -.260E+04   0.343E+01 -.222E+01 0.260E+04   0.358E+00 -.216E+00 0.143E+01   0.199E-01 -.181E-01 -.709E-01
   0.945E-03 -.456E+01 -.260E+04   -.107E-01 0.412E+01 0.260E+04   0.115E-01 0.382E+00 0.143E+01   -.535E-02 0.208E-01 -.551E-01
   0.348E-01 -.258E+01 -.134E+04   -.278E-01 0.269E+01 0.133E+04   0.138E-02 -.946E-01 0.606E+00   -.993E-02 -.237E-01 0.148E+00
   0.122E+01 -.153E+01 0.261E+04   -.117E+01 0.146E+01 -.261E+04   -.550E-01 0.650E-01 -.132E+01   -.395E-02 -.401E-02 0.880E-01
   -.623E+00 -.786E+00 -.131E+04   0.643E+00 0.862E+00 0.131E+04   -.677E-02 -.499E-01 0.697E+00   -.374E-02 -.217E-01 0.154E+00
   0.393E+00 -.724E+00 0.261E+04   -.391E+00 0.727E+00 -.261E+04   -.239E-01 0.270E-01 -.130E+01   0.616E-02 -.521E-02 0.938E-01
   0.668E+00 -.208E+00 0.133E+04   -.668E+00 0.176E+00 -.133E+04   -.265E-01 0.552E-02 -.700E+00   0.230E-01 0.111E-01 0.448E+00
   -.714E+00 -.397E+00 0.133E+04   0.697E+00 0.356E+00 -.133E+04   0.326E-01 0.203E-01 -.696E+00   -.834E-02 0.170E-01 0.454E+00
   -.125E+01 -.752E+00 -.132E+04   0.124E+01 0.763E+00 0.131E+04   0.234E-01 0.192E-02 0.698E+00   0.864E-02 -.411E-02 0.164E+00
   -.545E+00 -.333E+00 0.261E+04   0.575E+00 0.306E+00 -.261E+04   -.301E-01 0.222E-01 -.124E+01   -.729E-02 -.198E-02 0.912E-01
   -.884E-01 0.597E+00 0.133E+04   0.115E+00 -.563E+00 -.133E+04   -.126E-02 -.339E-01 -.691E+00   -.184E-01 -.686E-03 0.451E+00
   0.422E+01 0.280E+01 -.260E+04   -.496E+01 -.321E+01 0.260E+04   0.766E+00 0.406E+00 0.868E+00   0.822E-02 0.212E-01 -.491E-01
   -.212E+00 -.168E-01 -.452E+01   0.226E+00 0.626E-02 0.418E+01   0.159E-02 0.431E-02 -.525E-01   -.153E-01 0.947E-02 0.413E+00
   0.416E+01 0.268E+01 -.260E+04   -.375E+01 -.242E+01 0.260E+04   -.353E+00 -.231E+00 0.144E+01   -.180E-01 -.944E-02 -.639E-01
   -.663E+00 -.109E+00 0.133E+04   0.640E+00 0.959E-01 -.133E+04   0.307E-01 0.988E-02 -.702E+00   -.171E-02 -.260E-02 0.451E+00
   0.211E+00 0.962E-01 0.133E+04   -.202E+00 -.113E+00 -.133E+04   -.155E-01 0.601E-02 -.644E+00   0.205E-02 0.733E-02 0.456E+00
   -.645E+00 0.181E+00 0.585E+01   0.654E+00 -.177E+00 -.627E+01   -.672E-02 0.800E-02 0.261E-01   -.126E-02 -.889E-02 0.420E+00
   0.958E+00 -.727E+00 -.131E+04   -.104E+01 0.695E+00 0.131E+04   0.535E-01 0.350E-01 0.697E+00   0.242E-01 0.177E-01 0.152E+00
   -.228E+01 0.128E+01 -.133E+04   0.239E+01 -.132E+01 0.133E+04   -.897E-01 0.414E-01 0.609E+00   -.370E-01 0.143E-01 0.144E+00
   -.387E-01 0.674E+00 0.261E+04   0.225E-01 -.679E+00 -.261E+04   -.133E-01 -.147E-01 -.130E+01   0.151E-01 0.424E-02 0.966E-01
   0.202E+00 0.180E-01 0.261E+04   -.174E+00 -.416E-01 -.261E+04   -.261E-01 0.318E-01 -.132E+01   -.138E-01 0.109E-02 0.933E-01
   -.184E+00 0.129E+01 0.133E+04   0.187E+00 -.130E+01 -.133E+04   0.270E-01 -.237E-01 -.656E+00   -.121E-01 0.603E-02 0.434E+00
   -.105E+01 -.652E+00 0.133E+04   0.108E+01 0.643E+00 -.133E+04   0.176E-01 0.692E-02 -.669E+00   -.193E-01 0.329E-02 0.433E+00
   -.124E+01 -.924E+00 0.347E+01   0.124E+01 0.922E+00 -.389E+01   0.185E-01 0.852E-02 -.285E-02   -.123E-01 0.541E-03 0.417E+00
   -.233E+00 0.995E-01 -.132E+04   0.569E-02 0.232E-01 0.132E+04   0.211E+00 -.120E+00 0.479E+00   0.214E-01 -.623E-02 0.150E+00
   0.302E+00 -.250E+00 0.261E+04   -.277E+00 0.255E+00 -.261E+04   -.281E-01 0.907E-03 -.128E+01   0.348E-02 -.340E-03 0.881E-01
   -.247E+00 0.111E+00 0.557E+01   0.225E+00 -.101E+00 -.591E+01   0.110E-01 -.113E-02 -.607E-01   0.395E-02 -.137E-01 0.388E+00
   0.151E+00 0.165E+01 0.172E+01   -.216E+00 -.165E+01 -.217E+01   0.540E-01 -.287E-01 0.378E-01   0.109E-01 0.216E-01 0.423E+00
   0.176E+01 -.723E+00 0.184E+01   -.180E+01 0.655E+00 -.227E+01   0.275E-03 0.654E-01 0.320E-01   0.298E-01 0.125E-01 0.414E+00
   -.204E+00 0.142E+01 0.144E+01   0.275E+00 -.141E+01 -.188E+01   -.448E-01 -.303E-01 0.326E-01   -.264E-01 0.140E-01 0.422E+00
   -.112E+00 0.122E+00 0.499E+01   0.125E+00 -.135E+00 -.532E+01   -.596E-03 0.432E-02 -.680E-01   -.333E-02 0.384E-02 0.392E+00
   -.114E+01 0.737E+00 0.133E+04   0.116E+01 -.743E+00 -.133E+04   0.286E-01 -.171E-01 -.731E+00   -.238E-01 0.437E-02 0.446E+00
   0.957E-01 -.533E+00 0.636E+01   -.100E+00 0.570E+00 -.680E+01   0.451E-02 -.143E-01 0.348E-01   0.121E-03 -.223E-01 0.423E+00
   0.773E+00 -.607E+00 -.131E+04   -.790E+00 0.692E+00 0.131E+04   0.116E-01 -.475E-01 0.693E+00   -.502E-02 -.308E-01 0.152E+00
   0.317E+00 0.121E+01 -.131E+04   -.376E+00 -.124E+01 0.131E+04   0.393E-01 0.220E-01 0.700E+00   0.232E-01 0.355E-02 0.147E+00
   0.107E+00 -.457E+00 0.261E+04   -.937E-01 0.456E+00 -.261E+04   -.156E-01 0.361E-01 -.130E+01   -.274E-02 -.117E-01 0.940E-01
   0.123E+01 0.223E+00 0.261E+04   -.120E+01 -.222E+00 -.261E+04   -.723E-01 -.346E-02 -.131E+01   0.135E-01 -.436E-03 0.929E-01
   -.148E+01 -.701E+00 0.122E+01   0.152E+01 0.634E+00 -.165E+01   0.664E-02 0.624E-01 0.269E-01   -.332E-01 0.133E-01 0.412E+00
   0.117E+01 -.699E+00 0.464E+01   -.119E+01 0.702E+00 -.507E+01   -.202E-02 0.110E-01 0.480E-03   0.260E-01 -.973E-02 0.414E+00
   -.370E+00 -.295E+00 0.133E+04   0.391E+00 0.322E+00 -.133E+04   -.884E-02 -.135E-01 -.730E+00   -.243E-02 -.154E-01 0.450E+00
   0.135E+01 -.105E+01 0.223E+01   -.132E+01 0.111E+01 -.267E+01   -.496E-01 -.287E-01 0.312E-01   0.856E-02 -.264E-01 0.414E+00
   -.138E+01 -.942E+00 0.121E+01   0.137E+01 0.991E+00 -.165E+01   0.494E-01 -.272E-01 0.321E-01   -.254E-01 -.178E-01 0.417E+00
   0.310E+00 0.200E+00 -.305E+03   -.358E+00 -.246E+00 0.307E+03   0.348E-01 0.256E-01 -.134E+01   -.593E-03 0.522E-03 -.167E-01
 -----------------------------------------------------------------------------------------------
   -.113E+00 -.725E-01 -.128E+02   -.437E-12 0.110E-12 -.114E-11   0.104E+00 0.951E-01 -.370E+01   -.231E-02 -.257E-01 0.165E+02
 
 
 POSITION                                       TOTAL-FORCE (eV/Angst)
 -----------------------------------------------------------------------------------
     13.60898      8.40159      7.20860        -0.001983      0.002972     -0.013157
      5.24112      8.40441      7.20474        -0.005739     -0.014437     -0.027273
      3.84652      5.98451      7.20562         0.008175      0.019044     -0.026405
     13.62812      8.38318      0.47920        -0.009135      0.005996      0.012690
      5.25596      8.39025      0.48264         0.018095     -0.009174      0.031494
      3.86159      5.96923      0.48496         0.015508     -0.012607      0.023581
      8.03915      1.94977      2.76124         0.001601      0.023901     -0.011467
      9.43429      9.19846      2.76167        -0.005521     -0.004440     -0.003450
      2.44934      3.57173      7.20598         0.003771     -0.016654     -0.016445
      2.46446      3.55281      0.48563        -0.002905      0.015388      0.037023
     10.82974      1.95139      2.75986         0.007815      0.002395      0.007706
     13.61239      5.17755      4.98780         0.002193      0.007825     -0.002424
      3.84547      1.15656      7.20484        -0.014213      0.009538      0.000013
      9.41853      5.98606      7.23777         0.003988      0.002012     -0.018672
      5.24855      3.57667      7.21854        -0.003816     -0.001909     -0.032216
      3.86589      1.13666      0.48380         0.003579     -0.006032      0.039059
      9.43734      5.96985      0.48173         0.011873      0.010370      0.049645
      5.25527      3.55579      0.48514        -0.006247     -0.001971      0.015596
     12.22217      9.19843      2.75978        -0.000995      0.006785     -0.021706
     12.21592      7.59133      4.98002        -0.003762      0.006256      0.025884
     13.61659      6.78244      2.76146         0.008125     -0.010611     -0.026887
      9.43258      4.36731      2.76164        -0.009791      0.000285      0.020736
      8.02938      8.39840      7.21750        -0.001945      0.006258     -0.044719
      8.04638      8.38561      0.48166        -0.003683      0.007319      0.026454
     10.82462      6.78316      2.75954        -0.014604     -0.016378     -0.005834
      2.45372      0.34523      4.98437        -0.000752     -0.005218     -0.007502
     15.00349      9.21619      9.48688         0.015664      0.014675      0.001156
      3.83648      4.38393      9.48610        -0.009327     -0.000856     -0.008503
      6.62417      9.22401      9.48391         0.000561      0.013361     -0.004420
     12.21739      4.38260      9.48637         0.012450     -0.001237     -0.008046
      9.42903      9.22325      9.48412        -0.001845      0.014452     -0.001541
     10.81490      1.96207      9.48581         0.018959     -0.009212     -0.009475
      2.44662      1.96748      9.48313         0.002761     -0.003286     -0.024705
     12.20949      9.21735      9.48650        -0.017580      0.013820      0.000793
     13.60593      6.79110      9.48708        -0.000523     -0.012798     -0.003452
      5.23816      1.96288      9.48621        -0.019075     -0.008564     -0.011182
      8.02489      6.86191      9.53367         0.002477     -0.041210      0.001088
      9.46695      4.35885      9.53369        -0.013555      0.005069     -0.002832
      5.20775      6.81711      9.48403        -0.040258      0.020101     -0.010571
      8.02613      1.93548      9.48594        -0.003483     -0.045934     -0.014465
      8.03000      3.57775      7.23735        -0.001296     -0.000345     -0.020822
      8.04869      3.54957      0.48189        -0.004300     -0.004838      0.052685
      6.63491      1.15640      7.20554         0.009793      0.004674     -0.026878
      6.65291      1.13757      0.48098        -0.016061      0.025495      0.036776
     12.22253      4.36773      2.76294        -0.003248     -0.015931     -0.007684
      3.85283      4.36688      2.76468         0.006079     -0.003543     -0.004382
      1.05334      1.15653      7.20416         0.014755      0.008615     -0.004544
      1.07392      1.13749      0.48183        -0.007187     -0.007173      0.039511
      6.64378      9.20014      2.76214         0.007601      0.000315     -0.000099
      6.58771      4.36175      9.53287         0.014075      0.003967      0.000286
      8.03330      5.17710      4.99817         0.000159      0.003445      0.007971
     10.84541      6.81745      9.48400         0.038236      0.017894     -0.013673
      5.24989      1.95160      2.76386         0.005890     -0.005810     -0.009519
      2.46066      1.95048      2.76316        -0.005068     -0.003203     -0.088229
     15.00797      7.59237      4.98128         0.002729      0.001805      0.023601
     12.21213      5.98393      7.20529        -0.007458      0.019893     -0.023965
      6.64100      5.98660      7.23702        -0.007770      0.003804     -0.019939
     12.22952      5.97081      0.48135        -0.014528     -0.014349      0.035983
      6.64996      5.96918      0.48330        -0.013027      0.009543      0.050538
      8.03515      6.78375      2.76245         0.017890     -0.026037      0.022021
      6.64402      4.36666      2.76342         0.021655      0.000395      0.014322
      3.84980      2.76176      4.98609         0.004353      0.006367     -0.005375
     10.81062      3.57591      7.21798         0.001708     -0.001931     -0.034509
     10.83737      3.55504      0.47994         0.000585      0.005468      0.028569
     10.82220      0.34553      4.98637        -0.005914     -0.004295     -0.002331
      9.42444      7.58965      4.98787        -0.000953     -0.007168      0.015287
     10.81775      5.17664      4.98804        -0.010370      0.007646      0.009668
      6.64045      7.59037      4.98840         0.001594     -0.007164      0.013311
      5.24327      0.34469      4.98741         0.008578     -0.004350     -0.002998
      5.24677      6.78433      2.76317         0.029931     -0.017605     -0.019926
      8.03265      0.34444      4.98067         0.000986      0.002399      0.020271
      9.42421      1.15637      7.20548        -0.010361      0.007234     -0.026773
     10.81821      8.40390      7.20434         0.003638     -0.013705     -0.023928
      9.44294      1.13685      0.47993        -0.005282      0.023786      0.038105
     10.83917      8.38666      0.47885        -0.030749     -0.002390      0.032817
      5.24875      5.17689      4.98912         0.009667      0.007476      0.012439
     12.21698      2.76181      4.98450        -0.001187      0.004191     -0.008325
     15.01290      9.19969      2.76122         0.010502     -0.001182     -0.027987
      9.42670      2.76439      4.98758        -0.007519      0.005189      0.009006
      6.64144      2.76476      4.98889         0.007779      0.006009      0.012666
      8.04101      5.20695     10.38791        -0.012767     -0.019888     -0.039515
 -----------------------------------------------------------------------------------
    total drift:                               -0.011983     -0.003161     -0.038728


--------------------------------------------------------------------------------------------------------



  FREE ENERGIE OF THE ION-ELECTRON SYSTEM (eV)
  ---------------------------------------------------
  free  energy   TOTEN  =      -517.47663094 eV

  energy  without entropy=     -517.16401015  energy(sigma->0) =     -517.37242401
 
 d Force = 0.6269427E-04[-0.187E-04, 0.144E-03]  d Energy = 0.1124993E-03-0.498E-04
 d Force = 0.1672961E+02[ 0.167E+02, 0.167E+02]  d Ewald  = 0.1672961E+02 0.198E-05


--------------------------------------------------------------------------------------------------------


    POTLOK:  cpu time    0.2224: real time    0.2229


--------------------------------------------------------------------------------------------------------




--------------------------------------------------------------------------------------------------------


  
 reached required accuracy - stopping structural energy minimisation
     LOOP+:  cpu time  145.9852: real time  146.4669
    4ORBIT:  cpu time    0.0000: real time    0.0000

 total amount of memory used by VASP MPI-rank0   174512. kBytes
=======================================================================

   base      :      30000. kBytes
   nonlr-proj:      38395. kBytes
   fftplans  :      20284. kBytes
   grid      :      30949. kBytes
   one-center:        326. kBytes
   wavefun   :      54558. kBytes
 
  
  
 General timing and accounting informations for this job:
 ========================================================
  
                  Total CPU time used (sec):     1859.091
                            User time (sec):     1841.720
                          System time (sec):       17.371
                         Elapsed time (sec):     1865.179
  
                   Maximum memory used (kb):      585552.
                   Average memory used (kb):           0.
  
                          Minor page faults:       714117
                          Major page faults:            0
                 Voluntary context switches:         3927
