 vasp.5.4.4.18Apr17-6-g9f103f2a35 (build Nov 30 2020 22:55:02) complex          
  
 executed on             LinuxIFC date 2023.09.10  22:36:50
 running on   40 total cores
 distrk:  each k-point on   40 cores,    1 groups
 distr:  one band on NCORES_PER_BAND=   1 cores,   40 groups


--------------------------------------------------------------------------------------------------------


 INCAR:
 POTCAR:    PAW_PBE Cu 22Jun2005                  
 POTCAR:    PAW_PBE Pt 04Feb2005                  
 POTCAR:    PAW_PBE H 15Jun2001                   

 ----------------------------------------------------------------------------- 
|                                                                             |
|           W    W    AA    RRRRR   N    N  II  N    N   GGGG   !!!           |
|           W    W   A  A   R    R  NN   N  II  NN   N  G    G  !!!           |
|           W    W  A    A  R    R  N N  N  II  N N  N  G       !!!           |
|           W WW W  AAAAAA  RRRRR   N  N N  II  N  N N  G  GGG   !            |
|           WW  WW  A    A  R   R   N   NN  II  N   NN  G    G                |
|           W    W  A    A  R    R  N    N  II  N    N   GGGG   !!!           |
|                                                                             |
|      For optimal performance we recommend to set                            |
|        NCORE= 4 - approx SQRT( number of cores)                             |
|      NCORE specifies how many cores store one orbital (NPAR=cpu/NCORE).     |
|      This setting can  greatly improve the performance of VASP for DFT.     |
|      The default,   NCORE=1            might be grossly inefficient         |
|      on modern multi-core architectures or massively parallel machines.     |
|      Do your own testing !!!!                                               |
|      Unfortunately you need to use the default for GW and RPA calculations. |
|      (for HF NCORE is supported but not extensively tested yet)             |
|                                                                             |
 ----------------------------------------------------------------------------- 

 POTCAR:    PAW_PBE Cu 22Jun2005                  
   VRHFIN =Cu: d10 p1                                                           
   LEXCH  = PE                                                                  
   EATOM  =  1390.9808 eV,  102.2342 Ry                                         
                                                                                
   TITEL  = PAW_PBE Cu 22Jun2005                                                
   LULTRA =        F    use ultrasoft PP ?                                      
   IUNSCR =        1    unscreen: 0-lin 1-nonlin 2-no                           
   RPACOR =    2.000    partial core radius                                     
   POMASS =   63.546; ZVAL   =   11.000    mass and valenz                      
   RCORE  =    2.300    outmost cutoff radius                                   
   RWIGS  =    2.200; RWIGS  =    1.164    wigner-seitz radius (au A)           
   ENMAX  =  295.446; ENMIN  =  221.585 eV                                      
   ICORE  =        3    local potential                                         
   LCOR   =        T    correct aug charges                                     
   LPAW   =        T    paw PP                                                  
   EAUG   =  586.980                                                            
   DEXC   =    0.000                                                            
   RMAX   =    2.344    core radius for proj-oper                               
   RAUG   =    1.300    factor for augmentation sphere                          
   RDEP   =    2.302    radius for radial grids                                 
   RDEPT  =    1.771    core radius for aug-charge                              
                                                                                
   Atomic configuration                                                         
    9 entries                                                                   
     n  l   j            E        occ.                                          
     1  0  0.50     -8850.2468   2.0000                                         
     2  0  0.50     -1062.3498   2.0000                                         
     2  1  1.50      -916.8226   6.0000                                         
     3  0  0.50      -114.6929   2.0000                                         
     3  1  1.50       -72.1325   6.0000                                         
     3  2  2.50        -5.0394  10.0000                                         
     4  0  0.50        -4.6097   1.0000                                         
     4  1  0.50        -4.0817   0.0000                                         
     4  3  2.50        -1.3606   0.0000                                         
   Description                                                                  
     l       E           TYP  RCUT    TYP  RCUT                                 
     2     -5.0393973     23  2.200                                             
     2     10.8846608     23  2.200                                             
     0     -4.6097109     23  2.200                                             
     0      8.2520465     23  2.200                                             
     1     -2.7211652     23  2.200                                             
     1     21.7055443     23  2.200                                             
     3      2.7211652     23  2.300                                             
  local pseudopotential read in
  partial core-charges read in
  partial kinetic energy density read in
  atomic valenz-charges read in
  non local Contribution for L=           2  read in
    real space projection operators read in
  non local Contribution for L=           2  read in
    real space projection operators read in
  non local Contribution for L=           0  read in
    real space projection operators read in
  non local Contribution for L=           0  read in
    real space projection operators read in
  non local Contribution for L=           1  read in
    real space projection operators read in
  non local Contribution for L=           1  read in
    real space projection operators read in
    PAW grid and wavefunctions read in
 
   number of l-projection  operators is LMAX  =           6
   number of lm-projection operators is LMMAX =          18
 
 POTCAR:    PAW_PBE Pt 04Feb2005                  
   VRHFIN =Pt: s1d9                                                             
   LEXCH  = PE                                                                  
   EATOM  =   729.1176 eV,   53.5886 Ry                                         
                                                                                
   TITEL  = PAW_PBE Pt 04Feb2005                                                
   LULTRA =        F    use ultrasoft PP ?                                      
   IUNSCR =        1    unscreen: 0-lin 1-nonlin 2-no                           
   RPACOR =    2.330    partial core radius                                     
   POMASS =  195.080; ZVAL   =   10.000    mass and valenz                      
   RCORE  =    2.600    outmost cutoff radius                                   
   RWIGS  =    2.750; RWIGS  =    1.455    wigner-seitz radius (au A)           
   ENMAX  =  230.283; ENMIN  =  172.712 eV                                      
   ICORE  =        3    local potential                                         
   LCOR   =        T    correct aug charges                                     
   LPAW   =        T    paw PP                                                  
   EAUG   =  358.966                                                            
   DEXC   =    0.000                                                            
   RMAX   =    2.658    core radius for proj-oper                               
   RAUG   =    1.300    factor for augmentation sphere                          
   RDEP   =    2.761    radius for radial grids                                 
   RDEPT  =    2.203    core radius for aug-charge                              
                                                                                
   Atomic configuration                                                         
   16 entries                                                                   
     n  l   j            E        occ.                                          
     1  0  0.50    -78401.1885   2.0000                                         
     2  0  0.50    -13770.7750   2.0000                                         
     2  1  1.50    -11931.0468   6.0000                                         
     3  0  0.50     -3234.7234   2.0000                                         
     3  1  1.50     -2699.2216   6.0000                                         
     3  2  2.50     -2119.5714  10.0000                                         
     4  0  0.50      -695.1528   2.0000                                         
     4  1  1.50      -519.6034   6.0000                                         
     4  2  2.50      -306.6786  10.0000                                         
     4  3  3.50       -70.1041  14.0000                                         
     5  0  0.50      -101.7747   2.0000                                         
     5  1  1.50       -55.9873   6.0000                                         
     5  2  2.50        -6.1423   9.0000                                         
     6  0  0.50        -5.6573   1.0000                                         
     6  1  1.50        -6.8029   0.0000                                         
     5  3  2.50        -1.3606   0.0000                                         
   Description                                                                  
     l       E           TYP  RCUT    TYP  RCUT                                 
     2     -6.1423404     23  2.500                                             
     2     -7.5029230     23  2.500                                             
     0     -5.6573207     23  2.500                                             
     0      0.7416693     23  2.500                                             
     1     -2.7211652     23  2.600                                             
     1     20.4087390     23  2.600                                             
     3     -1.3605826     23  2.500                                             
  local pseudopotential read in
  partial core-charges read in
  partial kinetic energy density read in
  atomic valenz-charges read in
  non local Contribution for L=           2  read in
    real space projection operators read in
  non local Contribution for L=           2  read in
    real space projection operators read in
  non local Contribution for L=           0  read in
    real space projection operators read in
  non local Contribution for L=           0  read in
    real space projection operators read in
  non local Contribution for L=           1  read in
    real space projection operators read in
  non local Contribution for L=           1  read in
    real space projection operators read in
    PAW grid and wavefunctions read in
 
   number of l-projection  operators is LMAX  =           6
   number of lm-projection operators is LMMAX =          18
 
 POTCAR:    PAW_PBE H 15Jun2001                   
   VRHFIN =H: ultrasoft test                                                    
   LEXCH  = PE                                                                  
   EATOM  =    12.4884 eV,    0.9179 Ry                                         
                                                                                
   TITEL  = PAW_PBE H 15Jun2001                                                 
   LULTRA =        F    use ultrasoft PP ?                                      
   IUNSCR =        0    unscreen: 0-lin 1-nonlin 2-no                           
   RPACOR =    0.000    partial core radius                                     
   POMASS =    1.000; ZVAL   =    1.000    mass and valenz                      
   RCORE  =    1.100    outmost cutoff radius                                   
   RWIGS  =    0.700; RWIGS  =    0.370    wigner-seitz radius (au A)           
   ENMAX  =  250.000; ENMIN  =  200.000 eV                                      
   RCLOC  =    0.701    cutoff for local pot                                    
   LCOR   =        T    correct aug charges                                     
   LPAW   =        T    paw PP                                                  
   EAUG   =  400.000                                                            
   RMAX   =    1.123    core radius for proj-oper                               
   RAUG   =    1.200    factor for augmentation sphere                          
   RDEP   =    1.112    radius for radial grids                                 
   RDEPT  =    0.926    core radius for aug-charge                              
                                                                                
   Atomic configuration                                                         
    2 entries                                                                   
     n  l   j            E        occ.                                          
     1  0  0.50        -6.4927   1.0000                                         
     2  1  0.50        -3.4015   0.0000                                         
   Description                                                                  
     l       E           TYP  RCUT    TYP  RCUT                                 
     0     -6.4927494     23  1.100                                             
     0      6.8029130     23  1.100                                             
     1     -4.0817478     23  1.100                                             
  local pseudopotential read in
  atomic valenz-charges read in
  non local Contribution for L=           0  read in
    real space projection operators read in
  non local Contribution for L=           0  read in
    real space projection operators read in
  non local Contribution for L=           1  read in
    real space projection operators read in
    PAW grid and wavefunctions read in
 
   number of l-projection  operators is LMAX  =           3
   number of lm-projection operators is LMMAX =           5
 
 Optimization of the real space projectors (new method)

 maximal supplied QI-value         = 16.25
 optimisation between [QCUT,QGAM] = [ 11.86, 23.89] = [ 39.41,159.82] Ry 
 Optimized for a Real-space Cutoff    1.49 Angstroem

   l    n(q)    QCUT    max X(q) W(low)/X(q) W(high)/X(q)  e(spline) 
   2     10    11.864     4.610    0.10E-03    0.20E-03    0.29E-06
   2     10    11.864     8.522    0.17E-03    0.33E-03    0.50E-06
   0     11    11.864    51.609    0.52E-04    0.55E-04    0.33E-06
   0     11    11.864    27.747    0.46E-04    0.52E-04    0.31E-06
   1     10    11.864    20.408    0.54E-04    0.25E-04    0.21E-06
   1     10    11.864    13.425    0.48E-04    0.22E-04    0.18E-06
 Optimization of the real space projectors (new method)

 maximal supplied QI-value         = 14.36
 optimisation between [QCUT,QGAM] = [ 11.92, 23.98] = [ 39.79,161.09] Ry 
 Optimized for a Real-space Cutoff    1.49 Angstroem

   l    n(q)    QCUT    max X(q) W(low)/X(q) W(high)/X(q)  e(spline) 
   2     10    11.920    66.195    0.79E-04    0.18E-03    0.24E-06
   2     10    11.920    64.643    0.81E-04    0.19E-03    0.24E-06
   0     11    11.920    95.520    0.28E-04    0.54E-04    0.18E-06
   0     11    11.920    63.403    0.27E-04    0.52E-04    0.17E-06
   1     10    11.920    19.961    0.18E-04    0.11E-03    0.23E-06
   1     10    11.920    13.289    0.25E-04    0.87E-04    0.19E-06
 Optimization of the real space projectors (new method)

 maximal supplied QI-value         = 34.20
 optimisation between [QCUT,QGAM] = [ 11.97, 23.94] = [ 40.13,160.53] Ry 
 Optimized for a Real-space Cutoff    1.18 Angstroem

   l    n(q)    QCUT    max X(q) W(low)/X(q) W(high)/X(q)  e(spline) 
   0      8    11.971    19.460    0.15E-03    0.31E-03    0.25E-06
   0      8    11.971    12.209    0.13E-03    0.29E-03    0.25E-06
   1      8    11.971     4.655    0.22E-03    0.24E-03    0.21E-06
  PAW_PBE Cu 22Jun2005                  :
 energy of atom  1       EATOM=-1390.9808
 kinetic energy error for atom=    0.0036 (will be added to EATOM!!)
  PAW_PBE Pt 04Feb2005                  :
 energy of atom  2       EATOM= -729.1176
 kinetic energy error for atom=    0.0021 (will be added to EATOM!!)
  PAW_PBE H 15Jun2001                   :
 energy of atom  3       EATOM=  -12.4884
 kinetic energy error for atom=    0.0008 (will be added to EATOM!!)
 
 
 POSCAR: PtM\(2)                                 
  positions in cartesian coordinates
  No initial velocities read in
 exchange correlation table for  LEXCH =        8
   RHO(1)=    0.500       N(1)  =     2000
   RHO(2)=  100.500       N(2)  =     4000
 


--------------------------------------------------------------------------------------------------------


 ion  position               nearest neighbor table
   1  0.785  0.869  0.314-  55 2.49  20 2.49  39 2.49  57 2.64  40 2.64  56 2.64  29 2.64   2 2.64
                             3 2.64  73 2.65  72 2.66  65 2.66
   2  0.035  0.870  0.314-  52 2.48  49 2.48  39 2.49  33 2.63  56 2.63  23 2.64   1 2.64   3 2.64
                            77 2.64  41 2.65  65 2.66  67 2.67
   3  0.035  0.619  0.314-  60 2.48  39 2.48  12 2.49  40 2.64  15 2.64   1 2.64   2 2.64   9 2.64
                            77 2.65  41 2.65  73 2.65  66 2.66
   4  0.786  0.868  0.045-  21 2.50  62 2.50  19 2.51  30 2.64  59 2.64  58 2.64  42 2.64   6 2.64
                             5 2.64
   5  0.036  0.868  0.045-  54 2.50  35 2.50  62 2.51  43 2.64   6 2.64  34 2.64  24 2.64  58 2.64
                             4 2.64
   6  0.036  0.618  0.045-  32 2.50  54 2.50  21 2.51   5 2.64  10 2.64  43 2.64   4 2.64  42 2.64
                            18 2.64
   7  0.619  0.202  0.135-  55 2.48  64 2.50  63 2.50  28 2.50  30 2.50  58 2.51  45 2.64  22 2.64
                            37 2.64  11 2.64  19 2.64  62 2.64
   8  0.369  0.952  0.135-  53 2.48  26 2.49  16 2.50  24 2.50  50 2.51  59 2.51  19 2.64  35 2.64
                            44 2.64  37 2.64  25 2.64  38 2.64
   9  0.035  0.369  0.314-  61 2.48  12 2.49  46 2.49  15 2.63  40 2.64  13 2.64  68 2.64  33 2.64
                             3 2.64  47 2.65  66 2.65  71 2.66
  10  0.036  0.368  0.045-  38 2.50  32 2.50  31 2.51  16 2.64   6 2.64  34 2.64  18 2.64  42 2.64
                            48 2.64
  11  0.869  0.202  0.135-  49 2.48  61 2.49  63 2.50  48 2.50  58 2.50  34 2.51  31 2.64  38 2.64
                            22 2.64  62 2.64   7 2.64  35 2.64
  12  0.952  0.535  0.225-  21 2.48  31 2.48   9 2.49  32 2.49   3 2.49  40 2.49  46 2.64  61 2.64
                            20 2.64  39 2.64  51 2.65  60 2.65
  13  0.285  0.119  0.314-  26 2.48  46 2.49  53 2.49  15 2.63  57 2.64  69 2.64   9 2.64  33 2.64
                            29 2.65  23 2.65  74 2.65  71 2.66
  14  0.535  0.619  0.317-  36 2.52  50 2.52  51 2.53  41 2.62  27 2.62  47 2.63  23 2.63  40 2.65
                            57 2.65  80 2.68  76 2.72  75 2.73
  15  0.284  0.369  0.314-  60 2.48  46 2.48  64 2.49  13 2.63   9 2.63   3 2.64  29 2.64  27 2.66
                            74 2.66  41 2.66  66 2.66  79 2.66
  16  0.286  0.118  0.045-   8 2.50  37 2.50  38 2.51  24 2.64  10 2.64  34 2.64  59 2.64  18 2.64
                            30 2.64
  17  0.536  0.618  0.045-  22 2.50  25 2.50  44 2.51  42 2.64  48 2.64  59 2.64  28 2.64  24 2.64
                            43 2.64
  18  0.286  0.368  0.045-  37 2.50  45 2.50  32 2.51  28 2.64  30 2.64  43 2.64  10 2.64  16 2.64
                             6 2.64
  19  0.619  0.952  0.135-  55 2.49  20 2.49  53 2.49  30 2.50  59 2.50   4 2.51  25 2.64   8 2.64
                            37 2.64  21 2.64   7 2.64  62 2.64
  20  0.702  0.786  0.225-  25 2.49  40 2.49  19 2.49   1 2.49  57 2.49  21 2.49  50 2.64  51 2.64
                            12 2.64  53 2.64  39 2.64  55 2.64
  21  0.869  0.702  0.135-  12 2.48  39 2.49  20 2.49   4 2.50  42 2.50   6 2.51  32 2.64  31 2.64
                            25 2.64  62 2.64  54 2.64  19 2.64
  22  0.619  0.452  0.135-  63 2.49  51 2.50  17 2.50  28 2.50  48 2.51  36 2.51  44 2.64  45 2.64
                             7 2.64  25 2.64  11 2.64  31 2.64
  23  0.286  0.868  0.315-  52 2.49  50 2.49  26 2.51  41 2.62  14 2.63   2 2.64  57 2.64  69 2.64
                            13 2.65  33 2.65  67 2.65  75 2.71
  24  0.286  0.868  0.045-  44 2.50   8 2.50  35 2.51  59 2.64  16 2.64  17 2.64  43 2.64   5 2.64
                            34 2.64
  25  0.619  0.702  0.135-  20 2.49  51 2.50  50 2.50  59 2.50  17 2.50  42 2.51  19 2.64  44 2.64
                             8 2.64  22 2.64  21 2.64  31 2.64
  26  0.202  0.035  0.225-  13 2.48  35 2.49  33 2.49   8 2.49  38 2.50  23 2.51  52 2.63  49 2.64
                            53 2.64  50 2.64  46 2.64  61 2.65
  27  0.535  0.371  0.316-  36 2.49  63 2.51  64 2.51  47 2.62  14 2.62  41 2.63  78 2.64  29 2.65
                            56 2.65  15 2.66  79 2.69  76 2.73
  28  0.536  0.368  0.045-   7 2.50  22 2.50  45 2.51  48 2.64  18 2.64  43 2.64  17 2.64  58 2.64
                            30 2.64
  29  0.535  0.120  0.314-  64 2.48  55 2.49  53 2.49  57 2.64  15 2.64   1 2.64  56 2.64  13 2.65
                            78 2.65  72 2.65  27 2.65  74 2.66
  30  0.536  0.118  0.045-  19 2.50   7 2.50  37 2.51   4 2.64  18 2.64  58 2.64  59 2.64  16 2.64
                            28 2.64
  31  0.869  0.452  0.135-  12 2.48  61 2.49  42 2.50  48 2.50  10 2.51  51 2.51  38 2.64  11 2.64
                            21 2.64  32 2.64  22 2.64  25 2.64
  32  0.119  0.452  0.135-  46 2.48  12 2.49  60 2.50   6 2.50  10 2.50  18 2.51  54 2.64  45 2.64
                            21 2.64  37 2.64  38 2.64  31 2.64
  33  0.035  0.119  0.314-  49 2.49  61 2.49  26 2.49   2 2.63  56 2.63  13 2.64   9 2.64  71 2.65
                            23 2.65  47 2.65  67 2.66  70 2.66
  34  0.036  0.118  0.045-  35 2.50  38 2.50  11 2.51  58 2.64  16 2.64   5 2.64  10 2.64  24 2.64
                            48 2.64
  35  0.119  0.952  0.135-  49 2.49  26 2.49  52 2.50  34 2.50   5 2.50  24 2.51   8 2.64  44 2.64
                            62 2.64  54 2.64  11 2.64  38 2.64
  36  0.452  0.536  0.226-  27 2.49  41 2.49  44 2.50  22 2.51  45 2.51  14 2.52  50 2.62  51 2.62
                            63 2.63  52 2.63  60 2.64  64 2.64
  37  0.369  0.202  0.135-  53 2.48  46 2.49  64 2.50  18 2.50  16 2.50  30 2.51  38 2.64  32 2.64
                             7 2.64   8 2.64  19 2.64  45 2.64
  38  0.119  0.202  0.135-  46 2.48  26 2.50  61 2.50  10 2.50  34 2.50  16 2.51  31 2.64  37 2.64
                            32 2.64  11 2.64   8 2.64  35 2.64
  39  0.952  0.786  0.225-   3 2.48  62 2.48  21 2.49   2 2.49  54 2.49   1 2.49  55 2.64  12 2.64
                            49 2.64  20 2.64  52 2.64  60 2.64
  40  0.786  0.619  0.314-  51 2.48  20 2.49  12 2.49   9 2.64   3 2.64   1 2.64  47 2.64  57 2.65
                            14 2.65  68 2.65  73 2.66  80 2.67
  41  0.286  0.619  0.316-  36 2.49  52 2.51  60 2.51  23 2.62  14 2.62  27 2.63  77 2.64   3 2.65
                             2 2.65  15 2.66  79 2.68  75 2.73
  42  0.786  0.618  0.045-  31 2.50  21 2.50  25 2.51  17 2.64  59 2.64  48 2.64   4 2.64   6 2.64
                            10 2.64
  43  0.286  0.618  0.045-  45 2.50  44 2.50  54 2.51  28 2.64   5 2.64  18 2.64  17 2.64  24 2.64
                             6 2.64
  44  0.369  0.702  0.135-  52 2.50  50 2.50  24 2.50  43 2.50  36 2.50  17 2.51  22 2.64  25 2.64
                            35 2.64   8 2.64  54 2.64  45 2.64
  45  0.369  0.452  0.135-  64 2.49  60 2.49  43 2.50  18 2.50  28 2.51  36 2.51  54 2.64  32 2.64
                             7 2.64  22 2.64  37 2.64  44 2.64
  46  0.202  0.286  0.224-  38 2.48  32 2.48  15 2.48  13 2.49  37 2.49   9 2.49  12 2.64  53 2.64
                            61 2.64  26 2.64  60 2.65  64 2.65
  47  0.783  0.370  0.315-  51 2.49  63 2.49  61 2.51  27 2.62  14 2.63  56 2.64  40 2.64  68 2.64
                            70 2.65   9 2.65  33 2.65  76 2.71
  48  0.786  0.368  0.045-  11 2.50  31 2.50  22 2.51  28 2.64  17 2.64  42 2.64  58 2.64  34 2.64
                            10 2.64
  49  0.952  0.036  0.225-  11 2.48   2 2.48  33 2.49  35 2.49  56 2.49  62 2.49  26 2.64  61 2.64
                            55 2.64  39 2.64  63 2.65  52 2.65
  50  0.452  0.785  0.225-  57 2.48  23 2.49  44 2.50  25 2.50   8 2.51  14 2.52  36 2.62  51 2.63
                            52 2.63  20 2.64  26 2.64  53 2.65
  51  0.701  0.536  0.225-  40 2.48  47 2.49  22 2.50  25 2.50  31 2.51  14 2.53  36 2.62  50 2.63
                            63 2.63  20 2.64  61 2.64  12 2.65
  52  0.203  0.785  0.225-   2 2.48  23 2.49  44 2.50  35 2.50  54 2.50  41 2.51  60 2.63  50 2.63
                            36 2.63  26 2.63  39 2.64  49 2.65
  53  0.452  0.036  0.224-  37 2.48   8 2.48  57 2.49  29 2.49  19 2.49  13 2.49  46 2.64  26 2.64
                            20 2.64  55 2.64  64 2.65  50 2.65
  54  0.119  0.702  0.135-  39 2.49  60 2.49  52 2.50   5 2.50   6 2.50  43 2.51  45 2.64  32 2.64
                            44 2.64  35 2.64  62 2.64  21 2.64
  55  0.702  0.036  0.225-   7 2.48  29 2.49  19 2.49   1 2.49  56 2.49  62 2.49  39 2.64  53 2.64
                            49 2.64  20 2.64  63 2.64  64 2.64
  56  0.785  0.119  0.314-  63 2.48  49 2.49  55 2.49  33 2.63   2 2.63  47 2.64   1 2.64  29 2.64
                            78 2.65  27 2.65  65 2.65  70 2.67
  57  0.535  0.870  0.314-  50 2.48  53 2.49  20 2.49  13 2.64  29 2.64   1 2.64  23 2.64  40 2.65
                            14 2.65  72 2.66  69 2.66  80 2.67
  58  0.786  0.118  0.045-  62 2.50  11 2.50   7 2.51  34 2.64  30 2.64   4 2.64  48 2.64  28 2.64
                             5 2.64
  59  0.536  0.868  0.045-  25 2.50  19 2.50   8 2.51  24 2.64  17 2.64  42 2.64   4 2.64  16 2.64
                            30 2.64
  60  0.203  0.536  0.225-   3 2.48  15 2.48  45 2.49  54 2.49  32 2.50  41 2.51  64 2.63  52 2.63
                            36 2.64  39 2.64  46 2.65  12 2.65
  61  0.951  0.286  0.225-   9 2.48  33 2.49  31 2.49  11 2.49  38 2.50  47 2.51  63 2.63  49 2.64
                            12 2.64  51 2.64  46 2.64  26 2.65
  62  0.869  0.952  0.135-  39 2.48  49 2.49  55 2.49  58 2.50   4 2.50   5 2.51  35 2.64  54 2.64
                            11 2.64  21 2.64  19 2.64   7 2.64
  63  0.701  0.286  0.225-  56 2.48  22 2.49  47 2.49   7 2.50  11 2.50  27 2.51  64 2.63  51 2.63
                            36 2.63  61 2.63  55 2.64  49 2.65
  64  0.452  0.287  0.225-  29 2.48  15 2.49  45 2.49   7 2.50  37 2.50  27 2.51  60 2.63  63 2.63
                            36 2.64  55 2.64  46 2.65  53 2.65
  65  0.869  0.954  0.413-  77 2.62  78 2.62  67 2.63  70 2.63  73 2.65  72 2.65  56 2.65   2 2.66
                             1 2.66
  66  0.116  0.454  0.413-  79 2.59  68 2.60  73 2.62  77 2.64  71 2.65   9 2.65   3 2.66  74 2.66
                            15 2.66
  67  0.117  0.954  0.413-  75 2.60  65 2.63  71 2.63  70 2.63  69 2.64  77 2.64  23 2.65  33 2.66
                             2 2.67
  68  0.871  0.452  0.413-  66 2.60  71 2.62  76 2.64   9 2.64  73 2.64  70 2.64  47 2.64  40 2.65
                            80 2.66
  69  0.367  0.956  0.413-  74 2.61  71 2.62  13 2.64  75 2.64  72 2.64  67 2.64  23 2.64  57 2.66
                            80 2.66
  70  0.868  0.203  0.413-  76 2.60  71 2.63  65 2.63  67 2.63  68 2.64  78 2.64  47 2.65  33 2.66
                            56 2.67
  71  0.117  0.203  0.413-  68 2.62  69 2.62  67 2.63  70 2.63  74 2.65  66 2.65  33 2.65   9 2.66
                            13 2.66
  72  0.617  0.955  0.413-  80 2.59  78 2.60  74 2.62  69 2.64  29 2.65  65 2.65  57 2.66   1 2.66
                            73 2.67
  73  0.870  0.702  0.413-  80 2.59  77 2.60  66 2.62  68 2.64  65 2.65   3 2.65   1 2.65  40 2.66
                            72 2.67
  74  0.368  0.202  0.413-  79 2.59  69 2.61  72 2.62  78 2.64  71 2.65  13 2.65  15 2.66  66 2.66
                            29 2.66
  75  0.363  0.708  0.419-  81 1.93  82 1.94  67 2.60  69 2.64  77 2.64  23 2.71  14 2.73  41 2.73
                            80 2.73  79 2.73  76 2.74
  76  0.623  0.449  0.419-  82 1.94  81 1.95  70 2.60  68 2.64  78 2.64  47 2.71  14 2.72  27 2.73
                            79 2.73  80 2.73  75 2.74
  77  0.115  0.705  0.413-  73 2.60  65 2.62   2 2.64  67 2.64  75 2.64  41 2.64  66 2.64   3 2.65
                            79 2.67
  78  0.619  0.200  0.413-  72 2.60  65 2.62  27 2.64  70 2.64  76 2.64  74 2.64  29 2.65  56 2.65
                            79 2.66
  79  0.364  0.449  0.415-  81 1.71  74 2.59  66 2.59  15 2.66  78 2.66  77 2.67  41 2.68  27 2.69
                            76 2.73  75 2.73
  80  0.622  0.708  0.415-  82 1.71  72 2.59  73 2.59  68 2.66  69 2.66  57 2.67  40 2.67  14 2.68
                            76 2.73  75 2.73
  81  0.438  0.525  0.462-  79 1.71  75 1.93  76 1.95
  82  0.547  0.633  0.462-  80 1.71  75 1.94  76 1.94
 
  LATTYP: Found a hexagonal cell.
 ALAT       =    10.5600004196
 C/A-ratio  =     2.0833332505
  
  Lattice vectors:
  
 A1 = (   5.2800002098,  -9.1452286274,   0.0000000000)
 A2 = ( -10.5600004196,   0.0000000000,   0.0000000000)
 A3 = (   0.0000000000,   0.0000000000, -22.0000000000)


Analysis of symmetry for initial positions (statically):
=====================================================================
 Subroutine PRICEL returns:
 Original cell was already a primitive cell.
 

 Routine SETGRP: Setting up the symmetry group for a 
 hexagonal supercell.


 Subroutine GETGRP returns: Found  1 space group operations
 (whereof  1 operations were pure point group operations)
 out of a pool of 24 trial point group operations.


The static configuration has the point symmetry C_1 .


Analysis of symmetry for dynamics (positions and initial velocities):
=====================================================================
 Subroutine PRICEL returns:
 Original cell was already a primitive cell.
 

 Routine SETGRP: Setting up the symmetry group for a 
 hexagonal supercell.


 Subroutine GETGRP returns: Found  1 space group operations
 (whereof  1 operations were pure point group operations)
 out of a pool of 24 trial point group operations.


The dynamic configuration has the point symmetry C_1 .


Analysis of constrained symmetry for selective dynamics:
=====================================================================
 Subroutine PRICEL returns:
 Original cell was already a primitive cell.
 

 Routine SETGRP: Setting up the symmetry group for a 
 hexagonal supercell.


 Subroutine GETGRP returns: Found  1 space group operations
 (whereof  1 operations were pure point group operations)
 out of a pool of 24 trial point group operations.


The constrained configuration has the point symmetry C_1 .


Analysis of structural, dynamic, and magnetic symmetry:
=====================================================================
 Subroutine PRICEL returns:
 Original cell was already a primitive cell.
 

 Routine SETGRP: Setting up the symmetry group for a 
 hexagonal supercell.


 Subroutine GETGRP returns: Found  1 space group operations
 (whereof  1 operations were pure point group operations)
 out of a pool of 24 trial point group operations.


The magnetic configuration has the point symmetry C_1 .


 Subroutine INISYM returns: Found  1 space group operations
 (whereof  1 operations are pure point group operations),
 and found     1 'primitive' translations

 
 
 KPOINTS: mesh auto                               

Automatic generation of k-mesh.
Space group operators:
 irot       det(A)        alpha          n_x          n_y          n_z        tau_x        tau_y        tau_z
    1     1.000000     0.000001     1.000000     0.000000     0.000000     0.000000     0.000000     0.000000
 
 Subroutine IBZKPT returns following result:
 ===========================================
 
 Found      4 irreducible k-points:
 
 Following reciprocal coordinates:
            Coordinates               Weight
  0.000000  0.000000  0.000000      1.000000
  0.500000  0.000000  0.000000      1.000000
  0.000000  0.500000  0.000000      1.000000
  0.500000  0.500000  0.000000      1.000000
 
 Following cartesian coordinates:
            Coordinates               Weight
  0.000000  0.000000  0.000000      1.000000
  0.047348 -0.027337  0.000000      1.000000
  0.000000  0.054673  0.000000      1.000000
  0.047348  0.027337  0.000000      1.000000
 
 TETIRR: Found     12 inequivalent tetrahedra from       24
 
 Subroutine IBZKPT_HF returns following result:
 ==============================================
 
 Found      4 k-points in 1st BZ
 the following      4 k-points will be used (e.g. in the exchange kernel)
 Following reciprocal coordinates:   # in IRBZ
  0.000000  0.000000  0.000000    0.25000000   1 t-inv F
  0.500000  0.000000  0.000000    0.25000000   2 t-inv F
  0.000000  0.500000  0.000000    0.25000000   3 t-inv F
  0.500000  0.500000  0.000000    0.25000000   4 t-inv F


--------------------------------------------------------------------------------------------------------




 Dimension of arrays:
   k-points           NKPTS =      4   k-points in BZ     NKDIM =      4   number of bands    NBANDS=    560
   number of dos      NEDOS =    301   number of ions     NIONS =     82
   non local maximal  LDIM  =      6   non local SUM 2l+1 LMDIM =     18
   total plane-waves  NPLWV = ******
   max r-space proj   IRMAX =   7802   max aug-charges    IRDMAX=  33988
   dimension x,y,z NGX =    84 NGY =   84 NGZ =  168
   dimension x,y,z NGXF=   168 NGYF=  168 NGZF=  336
   support grid    NGXF=   168 NGYF=  168 NGZF=  336
   ions per type =              64  16   2
   NGX,Y,Z   is equivalent  to a cutoff of  13.22, 13.22, 12.70 a.u.
   NGXF,Y,Z  is equivalent  to a cutoff of  26.45, 26.45, 25.39 a.u.

 SYSTEM =  Pt111                                   
 POSCAR =  PtM\(2)                                 

 Startparameter for this run:
   NWRITE =      2    write-flag & timer
   PREC   = accura    normal or accurate (medium, high low for compatibility)
   ISTART =      0    job   : 0-new  1-cont  2-samecut
   ICHARG =      2    charge: 1-file 2-atom 10-const
   ISPIN  =      2    spin polarized calculation?
   LNONCOLLINEAR =      F non collinear calculations
   LSORBIT =      F    spin-orbit coupling
   INIWAV =      1    electr: 0-lowe 1-rand  2-diag
   LASPH  =      F    aspherical Exc in radial PAW
   METAGGA=      F    non-selfconsistent MetaGGA calc.

 Electronic Relaxation 1
   ENCUT  =  550.0 eV  40.42 Ry    6.36 a.u.  20.19 20.19 42.07*2*pi/ulx,y,z
   ENINI  =  550.0     initial cutoff
   ENAUG  =  587.0 eV  augmentation charge cutoff
   NELM   =    200;   NELMIN=  2; NELMDL= -5     # of ELM steps 
   EDIFF  = 0.1E-04   stopping-criterion for ELM
   LREAL  =      T    real-space projection
   NLSPLINE    = F    spline interpolate recip. space projectors
   LCOMPAT=      F    compatible to vasp.4.4
   GGA_COMPAT  = T    GGA compatible to vasp.4.4-vasp.4.6
   LMAXPAW     = -100 max onsite density
   LMAXMIX     =    2 max onsite mixed and CHGCAR
   VOSKOWN=      0    Vosko Wilk Nusair interpolation
   ROPT   =   -0.00025  -0.00025  -0.00025
 Ionic relaxation
   EDIFFG = -.5E-01   stopping-criterion for IOM
   NSW    =   1021    number of steps for IOM
   NBLOCK =      1;   KBLOCK =   1021    inner block; outer block 
   IBRION =      5    ionic relax: 0-MD 1-quasi-New 2-CG
   NFREE  =      2    steps in history (QN), initial steepest desc. (CG)
   ISIF   =      2    stress and relaxation
   IWAVPR =     11    prediction:  0-non 1-charg 2-wave 3-comb
   ISYM   =      2    0-nonsym 1-usesym 2-fastsym
   LCORR  =      T    Harris-Foulkes like correction to forces

   POTIM  = 0.0100    time-step for ionic-motion
   TEIN   =    0.0    initial temperature
   TEBEG  =    0.0;   TEEND  =   0.0 temperature during run
   SMASS  =  -3.00    Nose mass-parameter (am)
   estimated Nose-frequenzy (Omega)   =  0.10E-29 period in steps =****** mass=  -0.255E-26a.u.
   SCALEE = 1.0000    scale energy and forces
   NPACO  =    256;   APACO  = 16.0  distance and # of slots for P.C.
   PSTRESS=    0.0 pullay stress

  Mass of Ions in am
   POMASS =  63.55195.08  1.00
  Ionic Valenz
   ZVAL   =  11.00 10.00  1.00
  Atomic Wigner-Seitz radii
   RWIGS  =  -1.00 -1.00 -1.00
  virtual crystal weights 
   VCA    =   1.00  1.00  1.00
   NELECT =     866.0000    total number of electrons
   NUPDOWN=      -1.0000    fix difference up-down

 DOS related values:
   EMIN   =  10.00;   EMAX   =-10.00  energy-range for DOS
   EFERMI =   0.00
   ISMEAR =    -5;   SIGMA  =   0.10  broadening in eV -4-tet -1-fermi 0-gaus

 Electronic relaxation 2 (details)
   IALGO  =     68    algorithm
   LDIAG  =      T    sub-space diagonalisation (order eigenvalues)
   LSUBROT=      F    optimize rotation matrix (better conditioning)
   TURBO    =      0    0=normal 1=particle mesh
   IRESTART =      0    0=no restart 2=restart with 2 vectors
   NREBOOT  =      0    no. of reboots
   NMIN     =      0    reboot dimension
   EREF     =   0.00    reference energy to select bands
   IMIX   =      4    mixing-type and parameters
     AMIX     =   0.40;   BMIX     =  1.00
     AMIX_MAG =   1.60;   BMIX_MAG =  1.00
     AMIN     =   0.10
     WC   =   100.;   INIMIX=   1;  MIXPRE=   1;  MAXMIX= -45

 Intra band minimization:
   WEIMIN = 0.0010     energy-eigenvalue tresh-hold
   EBREAK =  0.45E-08  absolut break condition
   DEPER  =   0.30     relativ break condition  

   TIME   =   0.40     timestep for ELM

  volume/ion in A,a.u.               =      25.91       174.85
  Fermi-wavevector in a.u.,A,eV,Ry     =   1.213818  2.293784 20.046215  1.473355
  Thomas-Fermi vector in A             =   2.349258
 
 Write flags
   LWAVE        =      F    write WAVECAR
   LDOWNSAMPLE  =      F    k-point downsampling of WAVECAR
   LCHARG       =      F    write CHGCAR
   LVTOT        =      F    write LOCPOT, total local potential
   LVHAR        =      F    write LOCPOT, Hartree potential only
   LELF         =      F    write electronic localiz. function (ELF)
   LORBIT       =      0    0 simple, 1 ext, 2 COOP (PROOUT), +10 PAW based schemes


 Dipole corrections
   LMONO  =      F    monopole corrections only (constant potential shift)
   LDIPOL =      F    correct potential (dipole corrections)
   IDIPOL =      0    1-x, 2-y, 3-z, 4-all directions 
   EPSILON=  1.0000000 bulk dielectric constant

 Exchange correlation treatment:
   GGA     =    --    GGA type
   LEXCH   =     8    internal setting for exchange type
   VOSKOWN=      0    Vosko Wilk Nusair interpolation
   LHFCALC =     F    Hartree Fock is set to
   LHFONE  =     F    Hartree Fock one center treatment
   AEXX    =    0.0000 exact exchange contribution

 Linear response parameters
   LEPSILON=     F    determine dielectric tensor
   LRPA    =     F    only Hartree local field effects (RPA)
   LNABLA  =     F    use nabla operator in PAW spheres
   LVEL    =     F    velocity operator in full k-point grid
   LINTERFAST=   F  fast interpolation
   KINTER  =     0    interpolate to denser k-point grid
   CSHIFT  =0.1000    complex shift for real part using Kramers Kronig
   OMEGAMAX=  -1.0    maximum frequency
   DEG_THRESHOLD= 0.2000000E-02 threshold for treating states as degnerate
   RTIME   =   -0.100 relaxation time in fs
  (WPLASMAI=    0.000 imaginary part of plasma frequency in eV, 0.658/RTIME)
   DFIELD  = 0.0000000 0.0000000 0.0000000 field for delta impulse in time
 
 Orbital magnetization related:
   ORBITALMAG=     F  switch on orbital magnetization
   LCHIMAG   =     F  perturbation theory with respect to B field
   DQ        =  0.001000  dq finite difference perturbation B field
   LLRAUG    =     F  two centre corrections for induced B field



--------------------------------------------------------------------------------------------------------


 finite differences
   using selective dynamics as specified on POSCAR
   WARNING: If single coordinates had been selected the selection of coordinates
            is made according to the corresponding   d i r e c t   coordinates!
            Don't support selection of single cartesian coordinates -- sorry ...
  !
 charge density and potential will be updated during run
 spin polarized calculation
 RMM-DIIS sequential band-by-band and
  variant of blocked Davidson during initial phase
 perform sub-space diagonalisation
    before iterative eigenvector-optimisation
 modified Broyden-mixing scheme, WC =      100.0
 initial mixing is a Kerker type mixing with AMIX =  0.4000 and BMIX =      1.0000
 Hartree-type preconditioning will be used
 using additional bands          127
 real space projection scheme for non local part
 use partial core corrections
 calculate Harris-corrections to forces 
   (improved forces if not selfconsistent)
 use gradient corrections 
 use of overlap-Matrix (Vanderbilt PP)
 Fermi weights with tetrahedron method with Bloechl corrections


--------------------------------------------------------------------------------------------------------


  energy-cutoff  :      550.00
  volume of cell :     2124.62
      direct lattice vectors                 reciprocal lattice vectors
    10.560000420  0.000000000  0.000000000     0.094696966 -0.054673319  0.000000000
     5.280000210  9.145228627  0.000000000     0.000000000  0.109346638  0.000000000
     0.000000000  0.000000000 22.000000000     0.000000000  0.000000000  0.045454545

  length of vectors
    10.560000420 10.560000420 22.000000000     0.109346638  0.109346638  0.045454545


 
 k-points in units of 2pi/SCALE and weight: mesh auto                               
   0.00000000  0.00000000  0.00000000       0.250
   0.04734848 -0.02733666  0.00000000       0.250
   0.00000000  0.05467332  0.00000000       0.250
   0.04734848  0.02733666  0.00000000       0.250
 
 k-points in reciprocal lattice and weights: mesh auto                               
   0.00000000  0.00000000  0.00000000       0.250
   0.50000000  0.00000000  0.00000000       0.250
   0.00000000  0.50000000  0.00000000       0.250
   0.50000000  0.50000000  0.00000000       0.250
 
 position of ions in fractional coordinates (direct lattice) 
   0.78497804  0.86935243  0.31409378
   0.03485036  0.86979338  0.31397242
   0.03526724  0.61942058  0.31374126
   0.78624900  0.86835803  0.04490293
   0.03632593  0.86831096  0.04490378
   0.03629270  0.61834538  0.04490407
   0.61900594  0.20203528  0.13527817
   0.36902872  0.95201797  0.13527936
   0.03486223  0.36916372  0.31393661
   0.03632232  0.36834008  0.04490425
   0.86903544  0.20201704  0.13528693
   0.95210483  0.53549645  0.22451854
   0.28477205  0.11925161  0.31391068
   0.53473843  0.61912960  0.31733066
   0.28430895  0.36866229  0.31399199
   0.28627437  0.11834063  0.04490500
   0.53631616  0.61834530  0.04488591
   0.28635483  0.36832902  0.04489700
   0.61901160  0.95199349  0.13527291
   0.70178841  0.78553588  0.22471312
   0.86905623  0.70197733  0.13528016
   0.61901543  0.45202163  0.13527904
   0.28568802  0.86772774  0.31518389
   0.28633138  0.86834683  0.04488814
   0.61902971  0.70201856  0.13527944
   0.20232809  0.03491603  0.22494317
   0.53480695  0.37055601  0.31571362
   0.53629100  0.36836874  0.04488825
   0.53509268  0.11961381  0.31374444
   0.53631492  0.11831875  0.04489277
   0.86908216  0.45197647  0.13527762
   0.11905660  0.45201537  0.13528985
   0.03464986  0.11899104  0.31417940
   0.03628167  0.11834476  0.04490753
   0.11906013  0.95198965  0.13527885
   0.45241348  0.53615823  0.22588357
   0.36902445  0.20201498  0.13528569
   0.11903031  0.20204112  0.13529147
   0.95203680  0.78574171  0.22461305
   0.78558727  0.61911701  0.31410483
   0.28621384  0.61919800  0.31574583
   0.78625855  0.61835147  0.04489831
   0.28631485  0.61834448  0.04489351
   0.36906041  0.70200853  0.13527467
   0.36902898  0.45201831  0.13528487
   0.20172222  0.28550047  0.22449402
   0.78332499  0.37007392  0.31516455
   0.78624559  0.36836494  0.04489780
   0.95215739  0.03592008  0.22459585
   0.45225857  0.78457146  0.22548013
   0.70085915  0.53597025  0.22546831
   0.20265813  0.78525154  0.22515773
   0.45174696  0.03587840  0.22449091
   0.11907534  0.70197617  0.13528836
   0.70200145  0.03578559  0.22460132
   0.78538258  0.11921968  0.31398366
   0.53471820  0.87003288  0.31409760
   0.78630020  0.11833290  0.04491016
   0.53626603  0.86832649  0.04487574
   0.20294060  0.53586996  0.22505714
   0.95116171  0.28609072  0.22495753
   0.86907018  0.95198510  0.13528489
   0.70149657  0.28639947  0.22514677
   0.45211939  0.28668268  0.22504242
   0.86855413  0.95386710  0.41297173
   0.11644552  0.45355031  0.41281073
   0.11737405  0.95379550  0.41342086
   0.87057730  0.45193469  0.41268874
   0.36656599  0.95589679  0.41264687
   0.86835366  0.20283610  0.41343783
   0.11728765  0.20265263  0.41284204
   0.61714382  0.95512877  0.41274286
   0.86980967  0.70247536  0.41275144
   0.36819596  0.20178296  0.41279109
   0.36320166  0.70813780  0.41875345
   0.62280656  0.44856023  0.41865839
   0.11498920  0.70474630  0.41252036
   0.61936534  0.20037534  0.41256432
   0.36388457  0.44909150  0.41511759
   0.62219756  0.70751233  0.41482486
   0.43768754  0.52503938  0.46194493
   0.54742323  0.63304287  0.46166665
 
 position of ions in cartesian coordinates  (Angst):
  12.87954947  7.95042673  6.91006305
   4.96052906  7.95445934  6.90739334
   3.64296280  5.66474280  6.90230775
  12.88772033  7.94133272  0.98786446
   4.96828393  7.94090224  0.98788306
   3.64811462  5.65490987  0.98788947
   7.60344927  1.84765881  2.97611975
   8.92359848  8.70642196  2.97614598
   2.31732968  3.37608665  6.90660536
   2.32839939  3.36855426  0.98789358
  10.24366464  1.84749206  2.97631248
  12.88164878  4.89723744  4.93940783
   3.63684154  1.09058324  6.90603493
   8.91584249  5.66208170  6.98127460
   4.94883963  3.37150091  6.90782378
   3.64789606  1.08225215  0.98791005
   8.92836215  5.65490912  0.98748999
   4.96868441  3.36845313  0.98773405
  11.56328854  8.70619814  2.97600392
  11.55851552  7.18390518  4.94368871
  12.88367467  6.41974322  2.97616357
   8.92347749  4.13384112  2.97613890
   7.59846823  7.93556855  6.93404548
   7.60853096  7.94123032  0.98753917
  10.24361217  6.42012028  2.97614778
   2.32094143  0.31931512  4.94874984
   7.60409746  3.38881945  6.94569974
   7.60822020  3.36881638  0.98754146
   6.28213990  1.09389567  6.90237773
   6.28820881  1.08205200  0.98764103
  11.56394379  4.13342813  2.97610764
   3.64387901  4.13378388  2.97637661
   0.99417527  1.08820031  6.91194676
   1.00799478  1.08228986  0.98796576
   6.28378054  8.70616301  2.97613461
   7.60840208  4.90328959  4.96943852
   4.96353744  1.84747315  2.97628524
   2.32373725  1.84771228  2.97641232
  14.20222543  7.18578761  4.94148719
  11.56473979  5.66196658  6.91030617
   6.29178381  5.66270731  6.94640820
  11.56778653  5.65496554  0.98776285
   6.28834392  5.65490162  0.98765720
   7.60388330  6.42002854  2.97604272
   6.28360299  4.13381078  2.97626705
   3.63762932  2.61096709  4.93886835
  10.22590265  3.38441065  6.93362011
  10.24772068  3.36878157  0.98775169
  10.24444053  0.32849737  4.94110869
   8.91838817  7.17508539  4.96056286
  10.23099594  4.90157051  4.96030283
   6.28619819  7.18130487  4.95347002
   4.95988601  0.32811618  4.93880006
   4.96386992  6.41973253  2.97634381
   7.60208353  0.32726742  4.94122907
   8.92312026  1.09029122  6.90764049
  10.24039821  7.95664958  6.91014715
   8.92812813  1.08218139  0.98802358
  10.24773354  7.94104423  0.98726635
   4.97244628  4.90065326  4.95125700
  11.55482708  2.61636505  4.94906576
  14.20386302  8.70612141  2.97626755
   8.91999327  2.61918861  4.95322886
   6.28806559  2.62177865  4.95093316
  14.20835051  8.72333273  9.08537806
   3.62441041  4.14782123  9.08183611
   6.27551051  8.72267795  9.09525900
  11.57951192  4.13304603  9.07915221
   8.91807221  8.74189468  9.07823114
  10.24078970  1.85498253  9.09563230
   2.30856360  1.85330466  9.08252498
  11.56011906  8.73487097  9.08034294
  12.89426052  6.42429774  9.08053169
   4.95356356  1.84535129  9.08140401
   7.57437741  6.47608211  9.21257583
   8.94523569  4.10218589  9.21048462
   4.93534665  6.44506601  9.07544781
   7.59848009  1.83247834  9.07641508
   6.21382447  4.10704444  9.13258707
  10.30607172  6.47036204  9.12614685
   7.39418865  4.80160514 10.16278857
   9.12325606  5.78932181 10.15666629
 


--------------------------------------------------------------------------------------------------------


 k-point  1 :   0.0000 0.0000 0.0000  plane waves:   62167
 k-point  2 :   0.5000 0.0000 0.0000  plane waves:   62242
 k-point  3 :   0.0000 0.5000 0.0000  plane waves:   62242
 k-point  4 :   0.5000 0.5000 0.0000  plane waves:   62242

 maximum and minimum number of plane-waves per node :     62242    62167

 maximum number of plane-waves:     62242
 maximum index in each direction: 
   IXMAX=   20   IYMAX=   20   IZMAX=   42
   IXMIN=  -20   IYMIN=  -20   IZMIN=  -42


 serial   3D FFT for wavefunctions
 parallel 3D FFT for charge:
    minimum data exchange during FFTs selected (reduces bandwidth)


 total amount of memory used by VASP MPI-rank0   387446. kBytes
=======================================================================

   base      :      30000. kBytes
   nonlr-proj:     106628. kBytes
   fftplans  :      13995. kBytes
   grid      :     120016. kBytes
   one-center:       2550. kBytes
   wavefun   :     114257. kBytes
 
     INWAV:  cpu time    0.0000: real time    0.0000
 Broyden mixing: mesh for mixing (old mesh)
   NGX = 41   NGY = 41   NGZ = 85
  (NGX  =168   NGY  =168   NGZ  =336)
  gives a total of 142885 points

 initial charge density was supplied:
 charge density of overlapping atoms calculated
 number of electron     866.0000000 magnetization      82.0000000
 keeping initial charge density in first step


--------------------------------------------------------------------------------------------------------


 Maximum index for non-local projection operator         7570
 Maximum index for augmentation-charges         1208 (set IRDMAX)


--------------------------------------------------------------------------------------------------------


 First call to EWALD:  gamma=   0.138
 Maximum number of real-space cells 4x 4x 2
 Maximum number of reciprocal cells 2x 2x 4

    FEWALD:  cpu time    0.0040: real time    0.0040


--------------------------------------- Iteration      1(   1)  ---------------------------------------


    POTLOK:  cpu time    0.4953: real time    0.4992
    SETDIJ:  cpu time    0.0320: real time    0.0324
     EDDAV:  cpu time   55.5377: real time   55.7215
 BZINTS: Fermi energy: 21.118640;866.000000 electrons
         Band energy:9120.465347;  BLOECHL correction: -0.025811
       DOS:  cpu time    0.0169: real time    0.0171
    --------------------------------------------
      LOOP:  cpu time   56.0820: real time   56.2702

 eigenvalue-minimisations  :  8960
 total energy-change (2. order) : 0.9239738E+04  (-0.3764032E+05)
 number of electron     866.0000000 magnetization      82.0000000
 augmentation part      866.0000000 magnetization      82.0000000

 Free energy of the ion-electron system (eV)
  ---------------------------------------------------
  alpha Z        PSCENC =      2356.26949328
  Ewald energy   TEWEN  =    311126.39463617
  -Hartree energ DENC   =   -410747.23269318
  -exchange      EXHF   =         0.00000000
  -V(xc)+E(xc)   XCENC  =      2990.72786963
  PAW double counting   =     89738.56882376   -96058.82040362
  entropy T*S    EENTRO =         0.00000000
  eigenvalues    EBANDS =      9120.46534687
  atomic energy  EATOM  =    100713.36531073
  Solvation  Ediel_sol  =         0.00000000
  ---------------------------------------------------
  free energy    TOTEN  =      9239.73838364 eV

  energy without entropy =     9239.73838364  energy(sigma->0) =     9239.73838364


--------------------------------------------------------------------------------------------------------




--------------------------------------- Iteration      1(   2)  ---------------------------------------


     EDDAV:  cpu time   55.2831: real time   55.4355
 BZINTS: Fermi energy:  7.984027;866.000000 electrons
         Band energy:1366.045959;  BLOECHL correction: -0.007262
       DOS:  cpu time    0.0184: real time    0.0185
    --------------------------------------------
      LOOP:  cpu time   55.3015: real time   55.4540

 eigenvalue-minimisations  :  8960
 total energy-change (2. order) :-0.7754419E+04  (-0.7261438E+04)
 number of electron     866.0000000 magnetization      82.0000000
 augmentation part      866.0000000 magnetization      82.0000000

 Free energy of the ion-electron system (eV)
  ---------------------------------------------------
  alpha Z        PSCENC =      2356.26949328
  Ewald energy   TEWEN  =    311126.39463617
  -Hartree energ DENC   =   -410747.23269318
  -exchange      EXHF   =         0.00000000
  -V(xc)+E(xc)   XCENC  =      2990.72786963
  PAW double counting   =     89738.56882376   -96058.82040362
  entropy T*S    EENTRO =         0.00000000
  eigenvalues    EBANDS =      1366.04595917
  atomic energy  EATOM  =    100713.36531073
  Solvation  Ediel_sol  =         0.00000000
  ---------------------------------------------------
  free energy    TOTEN  =      1485.31899594 eV

  energy without entropy =     1485.31899594  energy(sigma->0) =     1485.31899594


--------------------------------------------------------------------------------------------------------




--------------------------------------- Iteration      1(   3)  ---------------------------------------


     EDDAV:  cpu time   56.8470: real time   57.0026
 BZINTS: Fermi energy:  2.909780;866.000000 electrons
         Band energy:-296.645724;  BLOECHL correction: -0.037205
       DOS:  cpu time    0.0158: real time    0.0159
    --------------------------------------------
      LOOP:  cpu time   56.8628: real time   57.0185

 eigenvalue-minimisations  :  9280
 total energy-change (2. order) :-0.1662692E+04  (-0.1491515E+04)
 number of electron     866.0000000 magnetization      82.0000000
 augmentation part      866.0000000 magnetization      82.0000000

 Free energy of the ion-electron system (eV)
  ---------------------------------------------------
  alpha Z        PSCENC =      2356.26949328
  Ewald energy   TEWEN  =    311126.39463617
  -Hartree energ DENC   =   -410747.23269318
  -exchange      EXHF   =         0.00000000
  -V(xc)+E(xc)   XCENC  =      2990.72786963
  PAW double counting   =     89738.56882376   -96058.82040362
  entropy T*S    EENTRO =         0.00000000
  eigenvalues    EBANDS =      -296.64572440
  atomic energy  EATOM  =    100713.36531073
  Solvation  Ediel_sol  =         0.00000000
  ---------------------------------------------------
  free energy    TOTEN  =      -177.37268763 eV

  energy without entropy =     -177.37268763  energy(sigma->0) =     -177.37268763


--------------------------------------------------------------------------------------------------------




--------------------------------------- Iteration      1(   4)  ---------------------------------------


     EDDAV:  cpu time   78.3149: real time   78.5292
 BZINTS: Fermi energy:  2.306110;866.000000 electrons
         Band energy:-489.615500;  BLOECHL correction: -0.109514
       DOS:  cpu time    0.0168: real time    0.0169
    --------------------------------------------
      LOOP:  cpu time   78.3317: real time   78.5460

 eigenvalue-minimisations  : 13800
 total energy-change (2. order) :-0.1929698E+03  (-0.1757950E+03)
 number of electron     866.0000000 magnetization      82.0000000
 augmentation part      866.0000000 magnetization      82.0000000

 Free energy of the ion-electron system (eV)
  ---------------------------------------------------
  alpha Z        PSCENC =      2356.26949328
  Ewald energy   TEWEN  =    311126.39463617
  -Hartree energ DENC   =   -410747.23269318
  -exchange      EXHF   =         0.00000000
  -V(xc)+E(xc)   XCENC  =      2990.72786963
  PAW double counting   =     89738.56882376   -96058.82040362
  entropy T*S    EENTRO =         0.00000000
  eigenvalues    EBANDS =      -489.61550015
  atomic energy  EATOM  =    100713.36531073
  Solvation  Ediel_sol  =         0.00000000
  ---------------------------------------------------
  free energy    TOTEN  =      -370.34246339 eV

  energy without entropy =     -370.34246339  energy(sigma->0) =     -370.34246339


--------------------------------------------------------------------------------------------------------




--------------------------------------- Iteration      1(   5)  ---------------------------------------


     EDDAV:  cpu time   76.8909: real time   77.1024
 BZINTS: Fermi energy:  2.293107;866.000000 electrons
         Band energy:-495.191442;  BLOECHL correction: -0.109786
       DOS:  cpu time    0.0182: real time    0.0183
    CHARGE:  cpu time    3.0580: real time    3.0658
    MIXING:  cpu time    0.0095: real time    0.0102
    --------------------------------------------
      LOOP:  cpu time   79.9767: real time   80.1968

 eigenvalue-minimisations  : 13520
 total energy-change (2. order) :-0.5575942E+01  (-0.5520702E+01)
 number of electron     866.0000373 magnetization      73.8954121
 augmentation part      462.1562400 magnetization      71.0378892

 Broyden mixing:
  rms(total) = 0.91181E+01    rms(broyden)= 0.91181E+01
  rms(prec ) = 0.94247E+01
  weight for this iteration     100.00

 Free energy of the ion-electron system (eV)
  ---------------------------------------------------
  alpha Z        PSCENC =      2356.26949328
  Ewald energy   TEWEN  =    311126.39463617
  -Hartree energ DENC   =   -410747.23269318
  -exchange      EXHF   =         0.00000000
  -V(xc)+E(xc)   XCENC  =      2990.72786963
  PAW double counting   =     89738.56882376   -96058.82040362
  entropy T*S    EENTRO =         0.00000000
  eigenvalues    EBANDS =      -495.19144229
  atomic energy  EATOM  =    100713.36531073
  Solvation  Ediel_sol  =         0.00000000
  ---------------------------------------------------
  free energy    TOTEN  =      -375.91840552 eV

  energy without entropy =     -375.91840552  energy(sigma->0) =     -375.91840552


--------------------------------------------------------------------------------------------------------




--------------------------------------- Iteration      1(   6)  ---------------------------------------


    POTLOK:  cpu time    0.4531: real time    0.4542
    SETDIJ:  cpu time    0.0319: real time    0.0319
    EDDIAG:  cpu time    8.6111: real time    8.6318
  RMM-DIIS:  cpu time   35.3068: real time   35.4104
    ORTHCH:  cpu time    1.2012: real time    1.2044
 BZINTS: Fermi energy:  1.362534;866.000000 electrons
         Band energy:***********;  BLOECHL correction: -0.199092
       DOS:  cpu time    0.0199: real time    0.0199
    CHARGE:  cpu time    3.0737: real time    3.0820
    MIXING:  cpu time    0.0098: real time    0.0100
    --------------------------------------------
      LOOP:  cpu time   48.7074: real time   48.8446

 eigenvalue-minimisations  :  8999
 total energy-change (2. order) : 0.5023533E+01  (-0.7737157E+02)
 number of electron     866.0000430 magnetization      70.3444063
 augmentation part      514.8334532 magnetization      48.7662622

 Broyden mixing:
  rms(total) = 0.60229E+01    rms(broyden)= 0.60228E+01
  rms(prec ) = 0.84545E+01
  weight for this iteration     100.00

 eigenvalues of (default mixing * dielectric matrix)
  average eigenvalue GAMMA=   0.7367
  0.7367

 Free energy of the ion-electron system (eV)
  ---------------------------------------------------
  alpha Z        PSCENC =      2356.26949328
  Ewald energy   TEWEN  =    311126.39463617
  -Hartree energ DENC   =   -408594.58834873
  -exchange      EXHF   =         0.00000000
  -V(xc)+E(xc)   XCENC  =      2910.37976629
  PAW double counting   =     92217.69935161   -98188.32453179
  entropy T*S    EENTRO =         0.00000000
  eigenvalues    EBANDS =     -2912.09055050
  atomic energy  EATOM  =    100713.36531073
  Solvation  Ediel_sol  =         0.00000000
  ---------------------------------------------------
  free energy    TOTEN  =      -370.89487294 eV

  energy without entropy =     -370.89487294  energy(sigma->0) =     -370.89487294


--------------------------------------------------------------------------------------------------------




--------------------------------------- Iteration      1(   7)  ---------------------------------------


    POTLOK:  cpu time    0.4346: real time    0.4361
    SETDIJ:  cpu time    0.0317: real time    0.0318
    EDDIAG:  cpu time    8.5569: real time    8.5803
  RMM-DIIS:  cpu time   37.6397: real time   37.7437
    ORTHCH:  cpu time    1.2065: real time    1.2097
 BZINTS: Fermi energy:  2.479284;866.000000 electrons
         Band energy:***********;  BLOECHL correction: -0.018485
       DOS:  cpu time    0.0192: real time    0.0192
    CHARGE:  cpu time    3.0639: real time    3.0726
    MIXING:  cpu time    0.0105: real time    0.0105
    --------------------------------------------
      LOOP:  cpu time   50.9630: real time   51.1039

 eigenvalue-minimisations  :  9577
 total energy-change (2. order) :-0.5743407E+02  (-0.2421223E+02)
 number of electron     866.0000357 magnetization      68.1058419
 augmentation part      486.1739867 magnetization      50.7529137

 Broyden mixing:
  rms(total) = 0.10429E+02    rms(broyden)= 0.10429E+02
  rms(prec ) = 0.14149E+02
  weight for this iteration     100.00

 eigenvalues of (default mixing * dielectric matrix)
  average eigenvalue GAMMA=   0.4548
  0.8002  0.1093

 Free energy of the ion-electron system (eV)
  ---------------------------------------------------
  alpha Z        PSCENC =      2356.26949328
  Ewald energy   TEWEN  =    311126.39463617
  -Hartree energ DENC   =   -409988.27010502
  -exchange      EXHF   =         0.00000000
  -V(xc)+E(xc)   XCENC  =      2938.50450502
  PAW double counting   =     94116.84340697  -100451.63282238
  entropy T*S    EENTRO =         0.00000000
  eigenvalues    EBANDS =     -1239.80336337
  atomic energy  EATOM  =    100713.36531073
  Solvation  Ediel_sol  =         0.00000000
  ---------------------------------------------------
  free energy    TOTEN  =      -428.32893860 eV

  energy without entropy =     -428.32893860  energy(sigma->0) =     -428.32893860


--------------------------------------------------------------------------------------------------------




--------------------------------------- Iteration      1(   8)  ---------------------------------------


    POTLOK:  cpu time    0.4359: real time    0.4370
    SETDIJ:  cpu time    0.0319: real time    0.0320
    EDDIAG:  cpu time    8.5745: real time    8.5985
  RMM-DIIS:  cpu time   35.6997: real time   35.7975
    ORTHCH:  cpu time    1.2036: real time    1.2072
 BZINTS: Fermi energy:  1.738030;866.000000 electrons
         Band energy:***********;  BLOECHL correction: -0.433893
       DOS:  cpu time    0.0187: real time    0.0187
    CHARGE:  cpu time    3.0021: real time    3.0102
    MIXING:  cpu time    0.0102: real time    0.0102
    --------------------------------------------
      LOOP:  cpu time   48.9767: real time   49.1113

 eigenvalue-minimisations  :  9048
 total energy-change (2. order) : 0.8480749E+02  (-0.2506860E+01)
 number of electron     866.0000403 magnetization      65.4529321
 augmentation part      495.5586115 magnetization      50.0388475

 Broyden mixing:
  rms(total) = 0.63051E+01    rms(broyden)= 0.63049E+01
  rms(prec ) = 0.74444E+01
  weight for this iteration     100.00

 eigenvalues of (default mixing * dielectric matrix)
  average eigenvalue GAMMA=   0.4407
  0.8917  0.2151  0.2151

 Free energy of the ion-electron system (eV)
  ---------------------------------------------------
  alpha Z        PSCENC =      2356.26949328
  Ewald energy   TEWEN  =    311126.39463617
  -Hartree energ DENC   =   -410001.00851752
  -exchange      EXHF   =         0.00000000
  -V(xc)+E(xc)   XCENC  =      2937.43602215
  PAW double counting   =     94966.72024675  -101353.68382568
  entropy T*S    EENTRO =         0.00000000
  eigenvalues    EBANDS =     -1089.01481786
  atomic energy  EATOM  =    100713.36531073
  Solvation  Ediel_sol  =         0.00000000
  ---------------------------------------------------
  free energy    TOTEN  =      -343.52145198 eV

  energy without entropy =     -343.52145198  energy(sigma->0) =     -343.52145198


--------------------------------------------------------------------------------------------------------




--------------------------------------- Iteration      1(   9)  ---------------------------------------


    POTLOK:  cpu time    0.4348: real time    0.4359
    SETDIJ:  cpu time    0.0321: real time    0.0322
    EDDIAG:  cpu time    8.5634: real time    8.5873
  RMM-DIIS:  cpu time   35.2234: real time   35.3199
    ORTHCH:  cpu time    1.2011: real time    1.2065
 BZINTS: Fermi energy:  1.280799;866.000000 electrons
         Band energy:***********;  BLOECHL correction: -0.225564
       DOS:  cpu time    0.0198: real time    0.0198
    CHARGE:  cpu time    3.0280: real time    3.0363
    MIXING:  cpu time    0.0110: real time    0.0111
    --------------------------------------------
      LOOP:  cpu time   48.5137: real time   48.6490

 eigenvalue-minimisations  :  9073
 total energy-change (2. order) : 0.3084429E+02  (-0.2844796E+01)
 number of electron     866.0000391 magnetization      58.8492304
 augmentation part      498.5258957 magnetization      41.7833645

 Broyden mixing:
  rms(total) = 0.41892E+01    rms(broyden)= 0.41891E+01
  rms(prec ) = 0.54766E+01
  weight for this iteration     100.00

 eigenvalues of (default mixing * dielectric matrix)
  average eigenvalue GAMMA=   0.5618
  0.9864  0.6845  0.3929  0.1834

 Free energy of the ion-electron system (eV)
  ---------------------------------------------------
  alpha Z        PSCENC =      2356.26949328
  Ewald energy   TEWEN  =    311126.39463617
  -Hartree energ DENC   =   -409674.22242347
  -exchange      EXHF   =         0.00000000
  -V(xc)+E(xc)   XCENC  =      2940.60458855
  PAW double counting   =     95685.82236464  -102098.97420622
  entropy T*S    EENTRO =         0.00000000
  eigenvalues    EBANDS =     -1361.93692518
  atomic energy  EATOM  =    100713.36531073
  Solvation  Ediel_sol  =         0.00000000
  ---------------------------------------------------
  free energy    TOTEN  =      -312.67716150 eV

  energy without entropy =     -312.67716150  energy(sigma->0) =     -312.67716150


--------------------------------------------------------------------------------------------------------




--------------------------------------- Iteration      1(  10)  ---------------------------------------


    POTLOK:  cpu time    0.4583: real time    0.4606
    SETDIJ:  cpu time    0.0378: real time    0.0379
    EDDIAG:  cpu time    8.6871: real time    8.7111
  RMM-DIIS:  cpu time   35.7066: real time   35.8044
    ORTHCH:  cpu time    1.2000: real time    1.2036
 BZINTS: Fermi energy:  1.673884;866.000000 electrons
         Band energy:***********;  BLOECHL correction: -0.106474
       DOS:  cpu time    0.0189: real time    0.0190
    CHARGE:  cpu time    2.9978: real time    3.0059
    MIXING:  cpu time    0.0106: real time    0.0106
    --------------------------------------------
      LOOP:  cpu time   49.1172: real time   49.2532

 eigenvalue-minimisations  :  9030
 total energy-change (2. order) : 0.2806539E+02  (-0.3584453E+01)
 number of electron     866.0000399 magnetization      54.2967321
 augmentation part      495.7411460 magnetization      37.9779346

 Broyden mixing:
  rms(total) = 0.22782E+01    rms(broyden)= 0.22782E+01
  rms(prec ) = 0.24230E+01
  weight for this iteration     100.00

 eigenvalues of (default mixing * dielectric matrix)
  average eigenvalue GAMMA=   0.6106
  1.2927  0.6163  0.6163  0.3456  0.1822

 Free energy of the ion-electron system (eV)
  ---------------------------------------------------
  alpha Z        PSCENC =      2356.26949328
  Ewald energy   TEWEN  =    311126.39463617
  -Hartree energ DENC   =   -409733.33646531
  -exchange      EXHF   =         0.00000000
  -V(xc)+E(xc)   XCENC  =      2954.33369072
  PAW double counting   =     97146.99813567  -103608.86061985
  entropy T*S    EENTRO =         0.00000000
  eigenvalues    EBANDS =     -1239.77595416
  atomic energy  EATOM  =    100713.36531073
  Solvation  Ediel_sol  =         0.00000000
  ---------------------------------------------------
  free energy    TOTEN  =      -284.61177274 eV

  energy without entropy =     -284.61177274  energy(sigma->0) =     -284.61177274


--------------------------------------------------------------------------------------------------------




--------------------------------------- Iteration      1(  11)  ---------------------------------------


    POTLOK:  cpu time    0.4347: real time    0.4357
    SETDIJ:  cpu time    0.0320: real time    0.0321
    EDDIAG:  cpu time    8.5584: real time    8.5821
  RMM-DIIS:  cpu time   35.3317: real time   35.4285
    ORTHCH:  cpu time    1.2037: real time    1.2069
 BZINTS: Fermi energy:  1.647890;866.000000 electrons
         Band energy:***********;  BLOECHL correction: -0.151424
       DOS:  cpu time    0.0193: real time    0.0193
    CHARGE:  cpu time    3.0029: real time    3.0109
    MIXING:  cpu time    0.0117: real time    0.0117
    --------------------------------------------
      LOOP:  cpu time   48.5942: real time   48.7272

 eigenvalue-minimisations  :  8997
 total energy-change (2. order) : 0.1871820E+01  (-0.9649800E+00)
 number of electron     866.0000403 magnetization      50.3385963
 augmentation part      496.6295560 magnetization      35.9458884

 Broyden mixing:
  rms(total) = 0.17873E+01    rms(broyden)= 0.17872E+01
  rms(prec ) = 0.19049E+01
  weight for this iteration     100.00

 eigenvalues of (default mixing * dielectric matrix)
  average eigenvalue GAMMA=   0.6005
  1.4200  0.6341  0.5244  0.5244  0.1826  0.3174

 Free energy of the ion-electron system (eV)
  ---------------------------------------------------
  alpha Z        PSCENC =      2356.26949328
  Ewald energy   TEWEN  =    311126.39463617
  -Hartree energ DENC   =   -409746.01087933
  -exchange      EXHF   =         0.00000000
  -V(xc)+E(xc)   XCENC  =      2950.83012160
  PAW double counting   =     97806.60200537  -104285.12943760
  entropy T*S    EENTRO =         0.00000000
  eigenvalues    EBANDS =     -1205.06120257
  atomic energy  EATOM  =    100713.36531073
  Solvation  Ediel_sol  =         0.00000000
  ---------------------------------------------------
  free energy    TOTEN  =      -282.73995235 eV

  energy without entropy =     -282.73995235  energy(sigma->0) =     -282.73995235


--------------------------------------------------------------------------------------------------------




--------------------------------------- Iteration      1(  12)  ---------------------------------------


    POTLOK:  cpu time    0.4373: real time    0.4386
    SETDIJ:  cpu time    0.0318: real time    0.0319
    EDDIAG:  cpu time    8.5738: real time    8.5974
  RMM-DIIS:  cpu time   35.3092: real time   35.4065
    ORTHCH:  cpu time    1.2084: real time    1.2116
 BZINTS: Fermi energy:  1.678039;866.000000 electrons
         Band energy:***********;  BLOECHL correction: -0.189356
       DOS:  cpu time    0.0189: real time    0.0190
    CHARGE:  cpu time    3.0000: real time    3.0083
    MIXING:  cpu time    0.0116: real time    0.0116
    --------------------------------------------
      LOOP:  cpu time   48.5910: real time   48.7249

 eigenvalue-minimisations  :  9010
 total energy-change (2. order) :-0.1073791E+01  (-0.1482700E+00)
 number of electron     866.0000403 magnetization      36.9654550
 augmentation part      498.0641307 magnetization      22.0705034

 Broyden mixing:
  rms(total) = 0.14322E+01    rms(broyden)= 0.14322E+01
  rms(prec ) = 0.14537E+01
  weight for this iteration     100.00

 eigenvalues of (default mixing * dielectric matrix)
  average eigenvalue GAMMA=   0.6838
  1.3894  1.0035  0.7367  0.7367  0.1829  0.3181  0.4197

 Free energy of the ion-electron system (eV)
  ---------------------------------------------------
  alpha Z        PSCENC =      2356.26949328
  Ewald energy   TEWEN  =    311126.39463617
  -Hartree energ DENC   =   -409769.48972886
  -exchange      EXHF   =         0.00000000
  -V(xc)+E(xc)   XCENC  =      2946.01199141
  PAW double counting   =     98184.94947383  -104671.90605308
  entropy T*S    EENTRO =         0.00000000
  eigenvalues    EBANDS =     -1169.40886690
  atomic energy  EATOM  =    100713.36531073
  Solvation  Ediel_sol  =         0.00000000
  ---------------------------------------------------
  free energy    TOTEN  =      -283.81374343 eV

  energy without entropy =     -283.81374343  energy(sigma->0) =     -283.81374343


--------------------------------------------------------------------------------------------------------




--------------------------------------- Iteration      1(  13)  ---------------------------------------


    POTLOK:  cpu time    0.4320: real time    0.4330
    SETDIJ:  cpu time    0.0318: real time    0.0318
    EDDIAG:  cpu time    8.5970: real time    8.6208
  RMM-DIIS:  cpu time   35.4392: real time   35.5372
    ORTHCH:  cpu time    1.2051: real time    1.2084
 BZINTS: Fermi energy:  1.684792;866.000000 electrons
         Band energy:***********;  BLOECHL correction: -0.272141
       DOS:  cpu time    0.0200: real time    0.0201
    CHARGE:  cpu time    3.0004: real time    3.0086
    MIXING:  cpu time    0.0118: real time    0.0118
    --------------------------------------------
      LOOP:  cpu time   48.7372: real time   48.8717

 eigenvalue-minimisations  :  9032
 total energy-change (2. order) :-0.1764289E+02  (-0.7940212E+00)
 number of electron     866.0000405 magnetization      28.3381061
 augmentation part      500.2242273 magnetization      15.5337577

 Broyden mixing:
  rms(total) = 0.11961E+01    rms(broyden)= 0.11961E+01
  rms(prec ) = 0.13609E+01
  weight for this iteration     100.00

 eigenvalues of (default mixing * dielectric matrix)
  average eigenvalue GAMMA=   0.8397
  2.1632  1.6300  0.6916  0.6916  0.6033  0.1828  0.4325  0.3226

 Free energy of the ion-electron system (eV)
  ---------------------------------------------------
  alpha Z        PSCENC =      2356.26949328
  Ewald energy   TEWEN  =    311126.39463617
  -Hartree energ DENC   =   -409833.76965422
  -exchange      EXHF   =         0.00000000
  -V(xc)+E(xc)   XCENC  =      2929.35116920
  PAW double counting   =     98936.36204797  -105437.38520876
  entropy T*S    EENTRO =         0.00000000
  eigenvalues    EBANDS =     -1092.04442693
  atomic energy  EATOM  =    100713.36531073
  Solvation  Ediel_sol  =         0.00000000
  ---------------------------------------------------
  free energy    TOTEN  =      -301.45663257 eV

  energy without entropy =     -301.45663257  energy(sigma->0) =     -301.45663257


--------------------------------------------------------------------------------------------------------




--------------------------------------- Iteration      1(  14)  ---------------------------------------


    POTLOK:  cpu time    0.4332: real time    0.4342
    SETDIJ:  cpu time    0.0318: real time    0.0319
    EDDIAG:  cpu time    8.5647: real time    8.5884
  RMM-DIIS:  cpu time   35.3416: real time   35.4385
    ORTHCH:  cpu time    1.4011: real time    1.4051
 BZINTS: Fermi energy:  1.691725;866.000000 electrons
         Band energy:***********;  BLOECHL correction: -0.152714
       DOS:  cpu time    0.0186: real time    0.0186
    CHARGE:  cpu time    3.0102: real time    3.0185
    MIXING:  cpu time    0.0122: real time    0.0122
    --------------------------------------------
      LOOP:  cpu time   48.8133: real time   48.9473

 eigenvalue-minimisations  :  9013
 total energy-change (2. order) :-0.8881053E+01  (-0.5155406E+00)
 number of electron     866.0000406 magnetization      19.5148482
 augmentation part      499.9928271 magnetization      11.1294584

 Broyden mixing:
  rms(total) = 0.95396E+00    rms(broyden)= 0.95396E+00
  rms(prec ) = 0.10328E+01
  weight for this iteration     100.00

 eigenvalues of (default mixing * dielectric matrix)
  average eigenvalue GAMMA=   0.9353
  3.6262  1.4031  0.6593  0.6593  0.6587  0.1828  0.5020  0.3284  0.3981

 Free energy of the ion-electron system (eV)
  ---------------------------------------------------
  alpha Z        PSCENC =      2356.26949328
  Ewald energy   TEWEN  =    311126.39463617
  -Hartree energ DENC   =   -409864.80635796
  -exchange      EXHF   =         0.00000000
  -V(xc)+E(xc)   XCENC  =      2922.99711893
  PAW double counting   =     99196.32607732  -105702.17653845
  entropy T*S    EENTRO =         0.00000000
  eigenvalues    EBANDS =     -1058.70742584
  atomic energy  EATOM  =    100713.36531073
  Solvation  Ediel_sol  =         0.00000000
  ---------------------------------------------------
  free energy    TOTEN  =      -310.33768583 eV

  energy without entropy =     -310.33768583  energy(sigma->0) =     -310.33768583


--------------------------------------------------------------------------------------------------------




--------------------------------------- Iteration      1(  15)  ---------------------------------------


    POTLOK:  cpu time    0.4338: real time    0.4348
    SETDIJ:  cpu time    0.0317: real time    0.0317
    EDDIAG:  cpu time    8.5641: real time    8.5877
  RMM-DIIS:  cpu time   35.2913: real time   35.3884
    ORTHCH:  cpu time    1.1994: real time    1.2026
 BZINTS: Fermi energy:  1.706886;866.000000 electrons
         Band energy:***********;  BLOECHL correction: -0.102278
       DOS:  cpu time    0.0186: real time    0.0187
    CHARGE:  cpu time    2.9989: real time    3.0071
    MIXING:  cpu time    0.0123: real time    0.0127
    --------------------------------------------
      LOOP:  cpu time   48.5501: real time   48.6838

 eigenvalue-minimisations  :  9026
 total energy-change (2. order) :-0.5749144E+01  (-0.3187801E+00)
 number of electron     866.0000407 magnetization      11.4659387
 augmentation part      499.8279121 magnetization       4.6938961

 Broyden mixing:
  rms(total) = 0.79641E+00    rms(broyden)= 0.79641E+00
  rms(prec ) = 0.91900E+00
  weight for this iteration     100.00

 eigenvalues of (default mixing * dielectric matrix)
  average eigenvalue GAMMA=   1.0690
  5.0144  1.4631  0.8633  0.7143  0.7143  0.1828  0.5163  0.5163  0.3262  0.3789

 Free energy of the ion-electron system (eV)
  ---------------------------------------------------
  alpha Z        PSCENC =      2356.26949328
  Ewald energy   TEWEN  =    311126.39463617
  -Hartree energ DENC   =   -409904.91657973
  -exchange      EXHF   =         0.00000000
  -V(xc)+E(xc)   XCENC  =      2919.26496179
[...]
     10.225903  3.384411  6.933620            0           0           0  
     10.247721  3.368782  0.987752            0           0           0  
     10.244441  0.328497  4.941109            0           0           0  
      8.918388  7.175085  4.960563            0           0           0  
     10.230996  4.901571  4.960303            0           0           0  
      6.286198  7.181305  4.953470            0           0           0  
      4.959886  0.328116  4.938800            0           0           0  
      4.963870  6.419733  2.976344            0           0           0  
      7.602084  0.327267  4.941229            0           0           0  
      8.923120  1.090291  6.907640            0           0           0  
     10.240398  7.956650  6.910147            0           0           0  
      8.928128  1.082181  0.988024            0           0           0  
     10.247734  7.941044  0.987266            0           0           0  
      4.972446  4.900653  4.951257            0           0           0  
     11.554827  2.616365  4.949066            0           0           0  
     14.203863  8.706121  2.976268            0           0           0  
      8.919993  2.619189  4.953229            0           0           0  
      6.288066  2.621779  4.950933            0           0           0  
     14.208351  8.723333  9.085378            0           0           0  
      3.624410  4.147821  9.081836            0           0           0  
      6.275511  8.722678  9.095259            0           0           0  
     11.579512  4.133046  9.079152            0           0           0  
      8.918072  8.741895  9.078231            0           0           0  
     10.240790  1.854983  9.095632            0           0           0  
      2.308564  1.853305  9.082525            0           0           0  
     11.560119  8.734871  9.080343            0           0           0  
     12.894261  6.424298  9.080532            0           0           0  
      4.953564  1.845351  9.081404            0           0           0  
      7.574377  6.476082  9.212576            0           0           0  
      8.945236  4.102186  9.210485            0           0           0  
      4.935347  6.445066  9.075448            0           0           0  
      7.598480  1.832478  9.076415            0           0           0  
      6.213824  4.107044  9.132587            0           0           0  
     10.306072  6.470362  9.126147            0           0           0  
      7.394189  4.801605 10.162789     0.517653    0.353349   -0.355735  
      9.123256  5.789322 10.156666     0.525134    0.301263    0.337797  
 
   5 f  =    5.045924 THz    31.704475 2PiTHz  168.313900 cm-1    20.868271 meV
             X         Y         Z           dx          dy          dz
     12.879549  7.950427  6.910063            0           0           0  
      4.960529  7.954459  6.907393            0           0           0  
      3.642963  5.664743  6.902308            0           0           0  
     12.887720  7.941333  0.987864            0           0           0  
      4.968284  7.940902  0.987883            0           0           0  
      3.648115  5.654910  0.987889            0           0           0  
      7.603449  1.847659  2.976120            0           0           0  
      8.923598  8.706422  2.976146            0           0           0  
      2.317330  3.376087  6.906605            0           0           0  
      2.328399  3.368554  0.987894            0           0           0  
     10.243665  1.847492  2.976312            0           0           0  
     12.881649  4.897237  4.939408            0           0           0  
      3.636842  1.090583  6.906035            0           0           0  
      8.915842  5.662082  6.981275            0           0           0  
      4.948840  3.371501  6.907824            0           0           0  
      3.647896  1.082252  0.987910            0           0           0  
      8.928362  5.654909  0.987490            0           0           0  
      4.968684  3.368453  0.987734            0           0           0  
     11.563289  8.706198  2.976004            0           0           0  
     11.558516  7.183905  4.943689            0           0           0  
     12.883675  6.419743  2.976164            0           0           0  
      8.923477  4.133841  2.976139            0           0           0  
      7.598468  7.935569  6.934045            0           0           0  
      7.608531  7.941230  0.987539            0           0           0  
     10.243612  6.420120  2.976148            0           0           0  
      2.320941  0.319315  4.948750            0           0           0  
      7.604097  3.388819  6.945700            0           0           0  
      7.608220  3.368816  0.987541            0           0           0  
      6.282140  1.093896  6.902378            0           0           0  
      6.288209  1.082052  0.987641            0           0           0  
     11.563944  4.133428  2.976108            0           0           0  
      3.643879  4.133784  2.976377            0           0           0  
      0.994175  1.088200  6.911947            0           0           0  
      1.007995  1.082290  0.987966            0           0           0  
      6.283781  8.706163  2.976135            0           0           0  
      7.608402  4.903290  4.969439            0           0           0  
      4.963537  1.847473  2.976285            0           0           0  
      2.323737  1.847712  2.976412            0           0           0  
     14.202225  7.185788  4.941487            0           0           0  
     11.564740  5.661967  6.910306            0           0           0  
      6.291784  5.662707  6.946408            0           0           0  
     11.567787  5.654966  0.987763            0           0           0  
      6.288344  5.654902  0.987657            0           0           0  
      7.603883  6.420029  2.976043            0           0           0  
      6.283603  4.133811  2.976267            0           0           0  
      3.637629  2.610967  4.938868            0           0           0  
     10.225903  3.384411  6.933620            0           0           0  
     10.247721  3.368782  0.987752            0           0           0  
     10.244441  0.328497  4.941109            0           0           0  
      8.918388  7.175085  4.960563            0           0           0  
     10.230996  4.901571  4.960303            0           0           0  
      6.286198  7.181305  4.953470            0           0           0  
      4.959886  0.328116  4.938800            0           0           0  
      4.963870  6.419733  2.976344            0           0           0  
      7.602084  0.327267  4.941229            0           0           0  
      8.923120  1.090291  6.907640            0           0           0  
     10.240398  7.956650  6.910147            0           0           0  
      8.928128  1.082181  0.988024            0           0           0  
     10.247734  7.941044  0.987266            0           0           0  
      4.972446  4.900653  4.951257            0           0           0  
     11.554827  2.616365  4.949066            0           0           0  
     14.203863  8.706121  2.976268            0           0           0  
      8.919993  2.619189  4.953229            0           0           0  
      6.288066  2.621779  4.950933            0           0           0  
     14.208351  8.723333  9.085378            0           0           0  
      3.624410  4.147821  9.081836            0           0           0  
      6.275511  8.722678  9.095259            0           0           0  
     11.579512  4.133046  9.079152            0           0           0  
      8.918072  8.741895  9.078231            0           0           0  
     10.240790  1.854983  9.095632            0           0           0  
      2.308564  1.853305  9.082525            0           0           0  
     11.560119  8.734871  9.080343            0           0           0  
     12.894261  6.424298  9.080532            0           0           0  
      4.953564  1.845351  9.081404            0           0           0  
      7.574377  6.476082  9.212576            0           0           0  
      8.945236  4.102186  9.210485            0           0           0  
      4.935347  6.445066  9.075448            0           0           0  
      7.598480  1.832478  9.076415            0           0           0  
      6.213824  4.107044  9.132587            0           0           0  
     10.306072  6.470362  9.126147            0           0           0  
      7.394189  4.801605 10.162789     0.402593   -0.634883   -0.022980  
      9.123256  5.789322 10.156666     0.338927   -0.565193    0.000140  
 
   6 f/i=    6.581904 THz    41.355320 2PiTHz  219.548664 cm-1    27.220575 meV
             X         Y         Z           dx          dy          dz
     12.879549  7.950427  6.910063            0           0           0  
      4.960529  7.954459  6.907393            0           0           0  
      3.642963  5.664743  6.902308            0           0           0  
     12.887720  7.941333  0.987864            0           0           0  
      4.968284  7.940902  0.987883            0           0           0  
      3.648115  5.654910  0.987889            0           0           0  
      7.603449  1.847659  2.976120            0           0           0  
      8.923598  8.706422  2.976146            0           0           0  
      2.317330  3.376087  6.906605            0           0           0  
      2.328399  3.368554  0.987894            0           0           0  
     10.243665  1.847492  2.976312            0           0           0  
     12.881649  4.897237  4.939408            0           0           0  
      3.636842  1.090583  6.906035            0           0           0  
      8.915842  5.662082  6.981275            0           0           0  
      4.948840  3.371501  6.907824            0           0           0  
      3.647896  1.082252  0.987910            0           0           0  
      8.928362  5.654909  0.987490            0           0           0  
      4.968684  3.368453  0.987734            0           0           0  
     11.563289  8.706198  2.976004            0           0           0  
     11.558516  7.183905  4.943689            0           0           0  
     12.883675  6.419743  2.976164            0           0           0  
      8.923477  4.133841  2.976139            0           0           0  
      7.598468  7.935569  6.934045            0           0           0  
      7.608531  7.941230  0.987539            0           0           0  
     10.243612  6.420120  2.976148            0           0           0  
      2.320941  0.319315  4.948750            0           0           0  
      7.604097  3.388819  6.945700            0           0           0  
      7.608220  3.368816  0.987541            0           0           0  
      6.282140  1.093896  6.902378            0           0           0  
      6.288209  1.082052  0.987641            0           0           0  
     11.563944  4.133428  2.976108            0           0           0  
      3.643879  4.133784  2.976377            0           0           0  
      0.994175  1.088200  6.911947            0           0           0  
      1.007995  1.082290  0.987966            0           0           0  
      6.283781  8.706163  2.976135            0           0           0  
      7.608402  4.903290  4.969439            0           0           0  
      4.963537  1.847473  2.976285            0           0           0  
      2.323737  1.847712  2.976412            0           0           0  
     14.202225  7.185788  4.941487            0           0           0  
     11.564740  5.661967  6.910306            0           0           0  
      6.291784  5.662707  6.946408            0           0           0  
     11.567787  5.654966  0.987763            0           0           0  
      6.288344  5.654902  0.987657            0           0           0  
      7.603883  6.420029  2.976043            0           0           0  
      6.283603  4.133811  2.976267            0           0           0  
      3.637629  2.610967  4.938868            0           0           0  
     10.225903  3.384411  6.933620            0           0           0  
     10.247721  3.368782  0.987752            0           0           0  
     10.244441  0.328497  4.941109            0           0           0  
      8.918388  7.175085  4.960563            0           0           0  
     10.230996  4.901571  4.960303            0           0           0  
      6.286198  7.181305  4.953470            0           0           0  
      4.959886  0.328116  4.938800            0           0           0  
      4.963870  6.419733  2.976344            0           0           0  
      7.602084  0.327267  4.941229            0           0           0  
      8.923120  1.090291  6.907640            0           0           0  
     10.240398  7.956650  6.910147            0           0           0  
      8.928128  1.082181  0.988024            0           0           0  
     10.247734  7.941044  0.987266            0           0           0  
      4.972446  4.900653  4.951257            0           0           0  
     11.554827  2.616365  4.949066            0           0           0  
     14.203863  8.706121  2.976268            0           0           0  
      8.919993  2.619189  4.953229            0           0           0  
      6.288066  2.621779  4.950933            0           0           0  
     14.208351  8.723333  9.085378            0           0           0  
      3.624410  4.147821  9.081836            0           0           0  
      6.275511  8.722678  9.095259            0           0           0  
     11.579512  4.133046  9.079152            0           0           0  
      8.918072  8.741895  9.078231            0           0           0  
     10.240790  1.854983  9.095632            0           0           0  
      2.308564  1.853305  9.082525            0           0           0  
     11.560119  8.734871  9.080343            0           0           0  
     12.894261  6.424298  9.080532            0           0           0  
      4.953564  1.845351  9.081404            0           0           0  
      7.574377  6.476082  9.212576            0           0           0  
      8.945236  4.102186  9.210485            0           0           0  
      4.935347  6.445066  9.075448            0           0           0  
      7.598480  1.832478  9.076415            0           0           0  
      6.213824  4.107044  9.132587            0           0           0  
     10.306072  6.470362  9.126147            0           0           0  
      7.394189  4.801605 10.162789     0.350770   -0.557413   -0.016327  
      9.123256  5.789322 10.156666    -0.365464    0.657510    0.010098  
 
 Finite differences POTIM=  1.000000000000000E-002
  LATTYP: Found a hexagonal cell.
 ALAT       =    10.5600004196
 C/A-ratio  =     2.0833332505
  
  Lattice vectors:
  
 A1 = (   5.2800002098,  -9.1452286274,   0.0000000000)
 A2 = ( -10.5600004196,   0.0000000000,   0.0000000000)
 A3 = (   0.0000000000,   0.0000000000, -22.0000000000)


Analysis of symmetry for initial positions (statically):
=====================================================================
 Subroutine PRICEL returns:
 Original cell was already a primitive cell.
 

 Routine SETGRP: Setting up the symmetry group for a 
 hexagonal supercell.


 Subroutine GETGRP returns: Found  1 space group operations
 (whereof  1 operations were pure point group operations)
 out of a pool of 24 trial point group operations.


The static configuration has the point symmetry C_1 .


Analysis of symmetry for dynamics (positions and initial velocities):
=====================================================================
 Subroutine PRICEL returns:
 Original cell was already a primitive cell.
 

 Routine SETGRP: Setting up the symmetry group for a 
 hexagonal supercell.


 Subroutine GETGRP returns: Found  1 space group operations
 (whereof  1 operations were pure point group operations)
 out of a pool of 24 trial point group operations.


The dynamic configuration has the point symmetry C_1 .


Analysis of constrained symmetry for selective dynamics:
=====================================================================
 Subroutine PRICEL returns:
 Original cell was already a primitive cell.
 

 Routine SETGRP: Setting up the symmetry group for a 
 hexagonal supercell.


 Subroutine GETGRP returns: Found  1 space group operations
 (whereof  1 operations were pure point group operations)
 out of a pool of 24 trial point group operations.


The constrained configuration has the point symmetry C_1 .


Analysis of structural, dynamic, and magnetic symmetry:
=====================================================================
 Subroutine PRICEL returns:
 Original cell was already a primitive cell.
 

 Routine SETGRP: Setting up the symmetry group for a 
 hexagonal supercell.


 Subroutine GETGRP returns: Found  1 space group operations
 (whereof  1 operations were pure point group operations)
 out of a pool of 24 trial point group operations.


The magnetic configuration has the point symmetry C_1 .


 Subroutine INISYM returns: Found  1 space group operations
 (whereof  1 operations are pure point group operations),
 and found     1 'primitive' translations

 
 KPOINTS: mesh auto                               

Automatic generation of k-mesh.
Space group operators:
 irot       det(A)        alpha          n_x          n_y          n_z        tau_x        tau_y        tau_z
    1     1.000000     0.000001     1.000000     0.000000     0.000000     0.000000     0.000000     0.000000
 
 Subroutine IBZKPT returns following result:
 ===========================================
 
 Found      4 irreducible k-points:
 
 Following reciprocal coordinates:
            Coordinates               Weight
  0.000000  0.000000  0.000000      1.000000
  0.500000  0.000000  0.000000      1.000000
  0.000000  0.500000  0.000000      1.000000
  0.500000  0.500000  0.000000      1.000000
 
 Following cartesian coordinates:
            Coordinates               Weight
  0.000000  0.000000  0.000000      1.000000
  0.047348 -0.027337  0.000000      1.000000
  0.000000  0.054673  0.000000      1.000000
  0.047348  0.027337  0.000000      1.000000
 
 TETIRR: Found     12 inequivalent tetrahedra from       24
     LOOP+:  cpu time  608.8407: real time  610.5447
    4ORBIT:  cpu time    0.0000: real time    0.0000
 BZINTS: Fermi energy:  1.233461;866.000000 electrons
         Band energy:***********;  BLOECHL correction: -0.002482

 total amount of memory used by VASP MPI-rank0   387446. kBytes
=======================================================================

   base      :      30000. kBytes
   nonlr-proj:     106628. kBytes
   fftplans  :      13995. kBytes
   grid      :     120016. kBytes
   one-center:       2550. kBytes
   wavefun   :     114257. kBytes
 
  
  
 General timing and accounting informations for this job:
 ========================================================
  
                  Total CPU time used (sec):     8531.888
                            User time (sec):     8509.138
                          System time (sec):       22.749
                         Elapsed time (sec):     8555.308
  
                   Maximum memory used (kb):     1132364.
                   Average memory used (kb):           0.
  
                          Minor page faults:      2915231
                          Major page faults:            0
                 Voluntary context switches:         6579
