 vasp.5.4.4.18Apr17-6-g9f103f2a35 (build Nov 06 2019 15:09:28) complex          
  
 executed on             LinuxIFC date 2023.08.08  15:28:48
 running on  160 total cores
 each image running on   40 cores
 distrk:  each k-point on   40 cores,    1 groups
 distr:  one band on NCORES_PER_BAND=   1 cores,   40 groups


--------------------------------------------------------------------------------------------------------


 INCAR:
 POTCAR:    PAW_PBE Pt 04Feb2005                  
 POTCAR:    PAW_PBE H 15Jun2001                   

 ----------------------------------------------------------------------------- 
|                                                                             |
|           W    W    AA    RRRRR   N    N  II  N    N   GGGG   !!!           |
|           W    W   A  A   R    R  NN   N  II  NN   N  G    G  !!!           |
|           W    W  A    A  R    R  N N  N  II  N N  N  G       !!!           |
|           W WW W  AAAAAA  RRRRR   N  N N  II  N  N N  G  GGG   !            |
|           WW  WW  A    A  R   R   N   NN  II  N   NN  G    G                |
|           W    W  A    A  R    R  N    N  II  N    N   GGGG   !!!           |
|                                                                             |
|      For optimal performance we recommend to set                            |
|        NCORE= 4 - approx SQRT( number of cores)                             |
|      NCORE specifies how many cores store one orbital (NPAR=cpu/NCORE).     |
|      This setting can  greatly improve the performance of VASP for DFT.     |
|      The default,   NCORE=1            might be grossly inefficient         |
|      on modern multi-core architectures or massively parallel machines.     |
|      Do your own testing !!!!                                               |
|      Unfortunately you need to use the default for GW and RPA calculations. |
|      (for HF NCORE is supported but not extensively tested yet)             |
|                                                                             |
 ----------------------------------------------------------------------------- 

 POTCAR:    PAW_PBE Pt 04Feb2005                  
   VRHFIN =Pt: s1d9                                                             
   LEXCH  = PE                                                                  
   EATOM  =   729.1176 eV,   53.5886 Ry                                         
                                                                                
   TITEL  = PAW_PBE Pt 04Feb2005                                                
   LULTRA =        F    use ultrasoft PP ?                                      
   IUNSCR =        1    unscreen: 0-lin 1-nonlin 2-no                           
   RPACOR =    2.330    partial core radius                                     
   POMASS =  195.080; ZVAL   =   10.000    mass and valenz                      
   RCORE  =    2.600    outmost cutoff radius                                   
   RWIGS  =    2.750; RWIGS  =    1.455    wigner-seitz radius (au A)           
   ENMAX  =  230.283; ENMIN  =  172.712 eV                                      
   ICORE  =        3    local potential                                         
   LCOR   =        T    correct aug charges                                     
   LPAW   =        T    paw PP                                                  
   EAUG   =  358.966                                                            
   DEXC   =    0.000                                                            
   RMAX   =    2.658    core radius for proj-oper                               
   RAUG   =    1.300    factor for augmentation sphere                          
   RDEP   =    2.761    radius for radial grids                                 
   RDEPT  =    2.203    core radius for aug-charge                              
                                                                                
   Atomic configuration                                                         
   16 entries                                                                   
     n  l   j            E        occ.                                          
     1  0  0.50    -78401.1885   2.0000                                         
     2  0  0.50    -13770.7750   2.0000                                         
     2  1  1.50    -11931.0468   6.0000                                         
     3  0  0.50     -3234.7234   2.0000                                         
     3  1  1.50     -2699.2216   6.0000                                         
     3  2  2.50     -2119.5714  10.0000                                         
     4  0  0.50      -695.1528   2.0000                                         
     4  1  1.50      -519.6034   6.0000                                         
     4  2  2.50      -306.6786  10.0000                                         
     4  3  3.50       -70.1041  14.0000                                         
     5  0  0.50      -101.7747   2.0000                                         
     5  1  1.50       -55.9873   6.0000                                         
     5  2  2.50        -6.1423   9.0000                                         
     6  0  0.50        -5.6573   1.0000                                         
     6  1  1.50        -6.8029   0.0000                                         
     5  3  2.50        -1.3606   0.0000                                         
   Description                                                                  
     l       E           TYP  RCUT    TYP  RCUT                                 
     2     -6.1423404     23  2.500                                             
     2     -7.5029230     23  2.500                                             
     0     -5.6573207     23  2.500                                             
     0      0.7416693     23  2.500                                             
     1     -2.7211652     23  2.600                                             
     1     20.4087390     23  2.600                                             
     3     -1.3605826     23  2.500                                             
  local pseudopotential read in
  partial core-charges read in
  partial kinetic energy density read in
  atomic valenz-charges read in
  non local Contribution for L=           2  read in
    real space projection operators read in
  non local Contribution for L=           2  read in
    real space projection operators read in
  non local Contribution for L=           0  read in
    real space projection operators read in
  non local Contribution for L=           0  read in
    real space projection operators read in
  non local Contribution for L=           1  read in
    real space projection operators read in
  non local Contribution for L=           1  read in
    real space projection operators read in
    PAW grid and wavefunctions read in
 
   number of l-projection  operators is LMAX  =           6
   number of lm-projection operators is LMMAX =          18
 
 POTCAR:    PAW_PBE H 15Jun2001                   
   VRHFIN =H: ultrasoft test                                                    
   LEXCH  = PE                                                                  
   EATOM  =    12.4884 eV,    0.9179 Ry                                         
                                                                                
   TITEL  = PAW_PBE H 15Jun2001                                                 
   LULTRA =        F    use ultrasoft PP ?                                      
   IUNSCR =        0    unscreen: 0-lin 1-nonlin 2-no                           
   RPACOR =    0.000    partial core radius                                     
   POMASS =    1.000; ZVAL   =    1.000    mass and valenz                      
   RCORE  =    1.100    outmost cutoff radius                                   
   RWIGS  =    0.700; RWIGS  =    0.370    wigner-seitz radius (au A)           
   ENMAX  =  250.000; ENMIN  =  200.000 eV                                      
   RCLOC  =    0.701    cutoff for local pot                                    
   LCOR   =        T    correct aug charges                                     
   LPAW   =        T    paw PP                                                  
   EAUG   =  400.000                                                            
   RMAX   =    1.123    core radius for proj-oper                               
   RAUG   =    1.200    factor for augmentation sphere                          
   RDEP   =    1.112    radius for radial grids                                 
   RDEPT  =    0.926    core radius for aug-charge                              
                                                                                
   Atomic configuration                                                         
    2 entries                                                                   
     n  l   j            E        occ.                                          
     1  0  0.50        -6.4927   1.0000                                         
     2  1  0.50        -3.4015   0.0000                                         
   Description                                                                  
     l       E           TYP  RCUT    TYP  RCUT                                 
     0     -6.4927494     23  1.100                                             
     0      6.8029130     23  1.100                                             
     1     -4.0817478     23  1.100                                             
  local pseudopotential read in
  atomic valenz-charges read in
  non local Contribution for L=           0  read in
    real space projection operators read in
  non local Contribution for L=           0  read in
    real space projection operators read in
  non local Contribution for L=           1  read in
    real space projection operators read in
    PAW grid and wavefunctions read in
 
   number of l-projection  operators is LMAX  =           3
   number of lm-projection operators is LMMAX =           5
 
 Optimization of the real space projectors (new method)

 maximal supplied QI-value         = 14.36
 optimisation between [QCUT,QGAM] = [ 11.92, 23.98] = [ 39.79,161.09] Ry 
 Optimized for a Real-space Cutoff    1.49 Angstroem

   l    n(q)    QCUT    max X(q) W(low)/X(q) W(high)/X(q)  e(spline) 
   2     10    11.920    66.195    0.79E-04    0.18E-03    0.24E-06
   2     10    11.920    64.643    0.81E-04    0.19E-03    0.24E-06
   0     11    11.920    95.520    0.28E-04    0.54E-04    0.18E-06
   0     11    11.920    63.403    0.27E-04    0.52E-04    0.17E-06
   1     10    11.920    19.961    0.18E-04    0.11E-03    0.23E-06
   1     10    11.920    13.289    0.25E-04    0.87E-04    0.19E-06
 Optimization of the real space projectors (new method)

 maximal supplied QI-value         = 34.20
 optimisation between [QCUT,QGAM] = [ 11.97, 23.94] = [ 40.13,160.53] Ry 
 Optimized for a Real-space Cutoff    1.18 Angstroem

   l    n(q)    QCUT    max X(q) W(low)/X(q) W(high)/X(q)  e(spline) 
   0      8    11.971    19.460    0.15E-03    0.31E-03    0.25E-06
   0      8    11.971    12.209    0.13E-03    0.29E-03    0.25E-06
   1      8    11.971     4.655    0.22E-03    0.24E-03    0.21E-06
  PAW_PBE Pt 04Feb2005                  :
 energy of atom  1       EATOM= -729.1176
 kinetic energy error for atom=    0.0021 (will be added to EATOM!!)
  PAW_PBE H 15Jun2001                   :
 energy of atom  2       EATOM=  -12.4884
 kinetic energy error for atom=    0.0008 (will be added to EATOM!!)
 
 
 POSCAR: Pt   H                                  
  positions in direct lattice
  velocities in cartesian coordinates
 exchange correlation table for  LEXCH =        8
   RHO(1)=    0.500       N(1)  =     2000
   RHO(2)=  100.500       N(2)  =     4000

 VTST: version 3.2, (02/03/18)

 CHAIN: initializing optimizer
 
 OPT: Using VASP QUASI-newton optimizer
 CHAIN: Read ICHAIN            0
 CHAIN: Running the NEB
 NEB:          SPRING     -5.000000
 NEB:          LCLIMB      T
 NEB:     LTANGENTOLD      F
 NEB:           LDNEB      F
 NEB:        LDNEBORG      F
 NEB:        LNEBCELL      F
 NEB:          EFIRST      0.000000
 NEB:           ELAST      0.000000
 
 POSCAR: Pt   H                                  
  positions in direct lattice
  No initial velocities read in
 
 POSCAR: Pt   H                                  
  positions in direct lattice
  No initial velocities read in
 


--------------------------------------------------------------------------------------------------------


 ion  position               nearest neighbor table
   1  1.000  0.000  0.056-   5 2.64   9 2.64  13 2.64  29 2.64  57 2.64  37 2.64  42 2.84  54 2.84
                            14 2.92
   2  0.334  0.168  0.179-  14 2.62  26 2.62   6 2.63  42 2.64  30 2.64  38 2.65  11 2.80   7 2.85
                             9 2.90  21 2.90  13 2.91  15 2.96
   3  0.168  0.333  0.306-   7 2.61  15 2.61  43 2.63  39 2.64  27 2.65  31 2.65   8 2.76   6 2.83
                            48 2.84  14 2.94  10 2.97  12 3.05
   4  0.000  0.001  0.417-   8 2.64  16 2.64  32 2.64  40 2.64  60 2.65  12 2.65   7 2.79  27 2.84
                            63 2.91
   5  1.000  0.250  0.056-   1 2.64  45 2.64  33 2.64   9 2.64  29 2.64  25 2.64  18 2.87  10 2.88
                            14 2.91
   6  0.334  0.416  0.186-  62 2.63  26 2.63  14 2.63   2 2.63  10 2.63  34 2.63   3 2.83  43 2.83
                            15 2.83  49 3.02   9 3.02  45 3.03
   7  0.169  0.086  0.300-   3 2.61  15 2.62  11 2.63  27 2.65  35 2.66  63 2.67   4 2.79  16 2.81
                            14 2.84   2 2.85  42 2.93  12 3.13
   8  1.000  0.250  0.420-   4 2.64  32 2.64  28 2.64  48 2.64  36 2.65  12 2.66   3 2.76  27 2.90
                            31 2.91
   9  0.250  0.250  0.056-  21 2.64  13 2.64   1 2.64  49 2.64  45 2.64   5 2.64   2 2.90  14 2.90
                             6 3.02
  10  0.085  0.416  0.178-  14 2.62   6 2.63  34 2.63  18 2.64  46 2.65  22 2.66  39 2.81  31 2.81
                            45 2.88   5 2.88  33 2.89   3 2.97
  11  0.417  0.084  0.297-   7 2.63  19 2.63  35 2.64  23 2.64  15 2.65  47 2.66   2 2.80  30 2.84
                            38 2.85  20 2.87  16 2.87  24 2.88
  12  0.248  0.248  0.438-  66 2.15   4 2.65   8 2.66  16 2.66  52 2.67  48 2.68  24 2.68   3 3.05
                            15 3.05   7 3.13
  13  0.250  0.000  0.056-  21 2.64   9 2.64  17 2.64   1 2.64  37 2.64  41 2.64  42 2.84  38 2.85
                             2 2.91
  14  0.085  0.168  0.180-   2 2.62  10 2.62   6 2.63  42 2.64  18 2.65  54 2.66  27 2.80   7 2.84
                             9 2.90   5 2.91   1 2.92   3 2.94
  15  0.416  0.334  0.307-  43 2.61   3 2.61  55 2.61   7 2.62  19 2.65  11 2.65  24 2.72   6 2.83
                             2 2.96  26 2.96  52 3.05  12 3.05
  16  0.250  1.000  0.418-  44 2.64   4 2.64  24 2.64  40 2.64  20 2.64  12 2.66   7 2.81  11 2.87
                            35 2.92
  17  0.500  0.000  0.056-  29 2.64  25 2.64  13 2.64  21 2.64  41 2.64  53 2.64  38 2.84  30 2.86
                            58 2.87
  18  0.834  0.167  0.177-  54 2.63  22 2.64  10 2.64  14 2.65  58 2.65  30 2.65  31 2.82  27 2.83
                            23 2.84   5 2.87  29 2.87  25 2.87
  19  0.666  0.333  0.296-  55 2.63  11 2.63  59 2.64  23 2.64  15 2.65  31 2.66  26 2.80  30 2.84
                            22 2.85  64 2.87  28 2.87  24 2.88
  20  0.500  1.000  0.418-  32 2.64  56 2.64  28 2.64  44 2.64  24 2.64  16 2.64  23 2.86  11 2.87
                            47 2.87
  21  0.500  0.250  0.056-  25 2.64  61 2.64   9 2.64  13 2.64  49 2.64  17 2.64  30 2.86  26 2.90
                             2 2.90
  22  0.833  0.416  0.176-  30 2.64  18 2.64  50 2.64  46 2.64  26 2.66  10 2.66  59 2.80  25 2.84
                            33 2.84  61 2.85  31 2.85  19 2.85
  23  0.667  0.083  0.297-  11 2.64  47 2.64  19 2.64  31 2.64  27 2.64  51 2.65  58 2.84  18 2.84
                            30 2.84  28 2.86  20 2.86  32 2.87
  24  0.500  0.250  0.419-  28 2.64  20 2.64  64 2.64  16 2.64  12 2.68  52 2.68  15 2.72  11 2.88
                            19 2.88
  25  0.750  0.250  0.056-  17 2.64  21 2.64  29 2.64  61 2.64  33 2.64   5 2.64  22 2.84  30 2.86
                            18 2.87
  26  0.582  0.416  0.179-  62 2.62   2 2.62   6 2.63  50 2.64  30 2.64  22 2.66  19 2.80  55 2.85
                            49 2.90  21 2.90  61 2.91  15 2.96
  27  0.917  0.084  0.297-  31 2.63  63 2.63  23 2.64   7 2.65  51 2.65   3 2.65  14 2.80  18 2.83
                             4 2.84  54 2.86  32 2.87   8 2.90
  28  0.750  0.250  0.418-  32 2.64   8 2.64  20 2.64  36 2.64  24 2.64  64 2.64  23 2.86  19 2.87
                            31 2.88
  29  0.750  0.000  0.056-  17 2.64  25 2.64   5 2.64  53 2.64   1 2.64  57 2.64  54 2.84  18 2.87
                            58 2.87
  30  0.583  0.167  0.177-  38 2.64  22 2.64   2 2.64  26 2.64  18 2.65  58 2.65  19 2.84  11 2.84
                            23 2.84  21 2.86  17 2.86  25 2.86
  31  0.917  0.333  0.296-  27 2.63  39 2.64  23 2.64  59 2.64   3 2.65  19 2.66  10 2.81  18 2.82
                            36 2.83  22 2.85  28 2.88   8 2.91
  32  0.750  0.000  0.418-  20 2.64  28 2.64   8 2.64  56 2.64  60 2.64   4 2.64  23 2.87  51 2.87
                            27 2.87
  33  1.000  0.500  0.056-  37 2.64  41 2.64   5 2.64  45 2.64  25 2.64  61 2.64  46 2.82  22 2.84
                            10 2.89
  34  0.334  0.665  0.178-  62 2.62  10 2.63   6 2.63  58 2.64  46 2.65  38 2.66  39 2.81  47 2.82
                            45 2.88  53 2.88  41 2.90  43 2.97
  35  0.168  0.834  0.293-  11 2.64  47 2.64  63 2.65  59 2.66   7 2.66  39 2.67  38 2.80  42 2.81
                            40 2.81  46 2.83  44 2.88  16 2.92
  36  0.999  0.500  0.416-  48 2.64  64 2.64  28 2.64  44 2.64  40 2.64   8 2.65  31 2.83  39 2.84
                            59 2.88
  37  1.000  0.750  0.056-  33 2.64  41 2.64  61 2.64  57 2.64  13 2.64   1 2.64  46 2.83  42 2.85
                            50 2.85
  38  0.334  0.917  0.176-  30 2.64  58 2.64  42 2.64  46 2.64   2 2.65  34 2.66  35 2.80  17 2.84
                            41 2.85  13 2.85  47 2.85  11 2.85
  39  0.168  0.582  0.296-  43 2.64   3 2.64  47 2.64  31 2.64  35 2.67  59 2.67  34 2.81  10 2.81
                            36 2.84  44 2.84  46 2.88  48 2.98
  40  1.000  0.750  0.411-  64 2.64  16 2.64  36 2.64  44 2.64  60 2.64   4 2.64  35 2.81  59 2.82
                            63 2.82
  41  0.250  0.750  0.056-  45 2.64  33 2.64  37 2.64  53 2.64  17 2.64  13 2.64  46 2.82  38 2.85
                            34 2.90
  42  0.084  0.918  0.176-  14 2.64   2 2.64  38 2.64  54 2.65  46 2.66  50 2.66  63 2.80  35 2.81
                            13 2.84   1 2.84  37 2.85   7 2.93
  43  0.417  0.582  0.306-  55 2.61  15 2.61   3 2.63  39 2.64  51 2.65  47 2.65  56 2.76   6 2.83
                            48 2.84  62 2.94  34 2.97  52 3.04
  44  0.250  0.750  0.416-  16 2.64  48 2.64  20 2.64  36 2.64  40 2.64  56 2.65  47 2.84  39 2.84
                            35 2.88
  45  0.250  0.500  0.056-  41 2.64  53 2.64   5 2.64   9 2.64  49 2.64  33 2.64  10 2.88  34 2.88
                             6 3.03
  46  0.084  0.666  0.175-  38 2.64  22 2.64  34 2.65  10 2.65  42 2.66  50 2.66  41 2.82  33 2.82
                            59 2.82  37 2.83  35 2.83  39 2.88
  47  0.417  0.833  0.296-  51 2.63  39 2.64  23 2.64  35 2.64  43 2.65  11 2.66  34 2.82  58 2.82
                            44 2.84  38 2.85  20 2.87  56 2.91
  48  0.249  0.501  0.426-  36 2.64  44 2.64   8 2.64  56 2.65  52 2.67  12 2.68  43 2.84   3 2.84
                            39 2.98
  49  0.500  0.500  0.056-  61 2.64  53 2.64  57 2.64  21 2.64   9 2.64  45 2.64  26 2.90  62 2.91
                             6 3.02
  50  0.832  0.666  0.176-  62 2.64  26 2.64  22 2.64  54 2.65  46 2.66  42 2.66  63 2.80  59 2.80
                            61 2.84  57 2.84  37 2.85  55 2.93
  51  0.666  0.833  0.297-  47 2.63  63 2.63  55 2.64  23 2.65  43 2.65  27 2.65  62 2.80  58 2.83
                            60 2.84  54 2.87  32 2.87  56 2.90
  52  0.501  0.502  0.438-  65 2.14  60 2.65  56 2.65  64 2.66  48 2.67  12 2.67  24 2.68  43 3.04
                            15 3.05  55 3.13
  53  0.500  0.750  0.056-  49 2.64  57 2.64  45 2.64  41 2.64  29 2.64  17 2.64  58 2.87  34 2.88
                            62 2.92
  54  0.833  0.917  0.176-  58 2.63  18 2.63  50 2.65  42 2.65  62 2.66  14 2.66  63 2.79  29 2.84
                            57 2.84   1 2.84  27 2.86  51 2.87
  55  0.664  0.581  0.300-  43 2.61  15 2.61  19 2.63  51 2.64  59 2.66  63 2.67  60 2.80  64 2.81
                            62 2.84  26 2.85  50 2.93  52 3.13
  56  0.500  0.750  0.421-  60 2.64  20 2.64  32 2.64  44 2.65  48 2.65  52 2.65  43 2.76  51 2.90
                            47 2.91
  57  0.750  0.750  0.056-  61 2.64  49 2.64  53 2.64  37 2.64   1 2.64  29 2.64  50 2.84  54 2.84
                            62 2.92
  58  0.583  0.916  0.177-  54 2.63  38 2.64  34 2.64  62 2.65  18 2.65  30 2.65  47 2.82  51 2.83
                            23 2.84  53 2.87  29 2.87  17 2.87
  59  0.916  0.583  0.293-  19 2.64  31 2.64  63 2.65  35 2.66  55 2.66  39 2.67  22 2.80  50 2.80
                            40 2.82  46 2.82  36 2.88  64 2.93
  60  0.749  0.750  0.417-  56 2.64  64 2.64  32 2.64  40 2.64   4 2.65  52 2.65  55 2.80  51 2.84
                            63 2.92
  61  0.750  0.500  0.056-  49 2.64  57 2.64  21 2.64  25 2.64  37 2.64  33 2.64  50 2.84  22 2.85
                            26 2.91
  62  0.582  0.665  0.180-  26 2.62  34 2.62   6 2.63  50 2.64  58 2.65  54 2.66  51 2.80  55 2.84
                            49 2.91  53 2.92  57 2.92  43 2.94
  63  0.916  0.834  0.293-  51 2.63  27 2.63  59 2.65  35 2.65  55 2.67   7 2.67  54 2.79  50 2.80
                            42 2.80  40 2.82   4 2.91  60 2.92
  64  0.750  0.500  0.418-  36 2.64  60 2.64  24 2.64  40 2.64  28 2.64  52 2.66  55 2.81  19 2.87
                            59 2.93
  65  0.356  0.402  0.521-  66 0.83  52 2.14
  66  0.395  0.349  0.521-  65 0.83  12 2.15
 
  LATTYP: Found a hexagonal cell.
 ALAT       =    10.5600004196
 C/A-ratio  =     1.8939393187
  
  Lattice vectors:
  
 A1 = (  10.5600004196,   0.0000000000,   0.0000000000)
 A2 = (  -5.2800002098,   9.1452286274,   0.0000000000)
 A3 = (   0.0000000000,   0.0000000000,  20.0000000000)


Analysis of symmetry for initial positions (statically):
=====================================================================
 Subroutine PRICEL returns:
 Original cell was already a primitive cell.
 

 Routine SETGRP: Setting up the symmetry group for a 
 hexagonal supercell.


 Subroutine GETGRP returns: Found  1 space group operations
 (whereof  1 operations were pure point group operations)
 out of a pool of 24 trial point group operations.


The static configuration has the point symmetry C_1 .


Analysis of symmetry for dynamics (positions and initial velocities):
=====================================================================
 Subroutine PRICEL returns:
 Original cell was already a primitive cell.
 

 Routine SETGRP: Setting up the symmetry group for a 
 hexagonal supercell.


 Subroutine GETGRP returns: Found  1 space group operations
 (whereof  1 operations were pure point group operations)
 out of a pool of 24 trial point group operations.


The dynamic configuration has the point symmetry C_1 .


Analysis of constrained symmetry for selective dynamics:
=====================================================================
 Subroutine PRICEL returns:
 Original cell was already a primitive cell.
 

 Routine SETGRP: Setting up the symmetry group for a 
 hexagonal supercell.


 Subroutine GETGRP returns: Found  1 space group operations
 (whereof  1 operations were pure point group operations)
 out of a pool of 24 trial point group operations.


The constrained configuration has the point symmetry C_1 .


Analysis of structural, dynamic, and magnetic symmetry:
=====================================================================
 Subroutine PRICEL returns:
 Original cell was already a primitive cell.
 

 Routine SETGRP: Setting up the symmetry group for a 
 hexagonal supercell.


 Subroutine GETGRP returns: Found  1 space group operations
 (whereof  1 operations were pure point group operations)
 out of a pool of 24 trial point group operations.


The magnetic configuration has the point symmetry C_1 .


 Subroutine INISYM returns: Found  1 space group operations
 (whereof  1 operations are pure point group operations),
 and found     1 'primitive' translations

 
 
 KPOINTS: mesh auto                               

Automatic generation of k-mesh.
Space group operators:
 irot       det(A)        alpha          n_x          n_y          n_z        tau_x        tau_y        tau_z
    1     1.000000     0.000000     1.000000     0.000000     0.000000     0.000000     0.000000     0.000000
 
 Subroutine IBZKPT returns following result:
 ===========================================
 
 Found      4 irreducible k-points:
 
 Following reciprocal coordinates:
            Coordinates               Weight
  0.000000  0.000000  0.000000      1.000000
  0.500000 -0.000000  0.000000      1.000000
  0.000000  0.500000  0.000000      1.000000
  0.500000  0.500000  0.000000      1.000000
 
 Following cartesian coordinates:
            Coordinates               Weight
  0.000000  0.000000  0.000000      1.000000
  0.047348  0.027337  0.000000      1.000000
  0.000000  0.054673  0.000000      1.000000
  0.047348  0.082010  0.000000      1.000000
 


--------------------------------------------------------------------------------------------------------




 Dimension of arrays:
   k-points           NKPTS =      4   k-points in BZ     NKDIM =      4   number of bands    NBANDS=    440
   number of dos      NEDOS =    301   number of ions     NIONS =     66
   non local maximal  LDIM  =      6   non local SUM 2l+1 LMDIM =     18
   total plane-waves  NPLWV = ******
   max r-space proj   IRMAX =   8171   max aug-charges    IRDMAX=  35597
   dimension x,y,z NGX =    84 NGY =   84 NGZ =  160
   dimension x,y,z NGXF=   168 NGYF=  168 NGZF=  320
   support grid    NGXF=   168 NGYF=  168 NGZF=  320
   ions per type =              64   2
   NGX,Y,Z   is equivalent  to a cutoff of  13.22, 13.22, 13.30 a.u.
   NGXF,Y,Z  is equivalent  to a cutoff of  26.45, 26.45, 26.60 a.u.

 SYSTEM =  Pt111                                   
 POSCAR =  Pt   H                                  

 Startparameter for this run:
   NWRITE =      2    write-flag & timer
   PREC   = accura    normal or accurate (medium, high low for compatibility)
   ISTART =      0    job   : 0-new  1-cont  2-samecut
   ICHARG =      2    charge: 1-file 2-atom 10-const
   ISPIN  =      2    spin polarized calculation?
   LNONCOLLINEAR =      F non collinear calculations
   LSORBIT =      F    spin-orbit coupling
   INIWAV =      1    electr: 0-lowe 1-rand  2-diag
   LASPH  =      F    aspherical Exc in radial PAW
   METAGGA=      F    non-selfconsistent MetaGGA calc.

 Electronic Relaxation 1
   ENCUT  =  550.0 eV  40.42 Ry    6.36 a.u.  20.19 20.19 38.24*2*pi/ulx,y,z
   ENINI  =  550.0     initial cutoff
   ENAUG  =  400.0 eV  augmentation charge cutoff
   NELM   =    200;   NELMIN=  2; NELMDL= -5     # of ELM steps 
   EDIFF  = 0.1E-04   stopping-criterion for ELM
   LREAL  =      T    real-space projection
   NLSPLINE    = F    spline interpolate recip. space projectors
   LCOMPAT=      F    compatible to vasp.4.4
   GGA_COMPAT  = T    GGA compatible to vasp.4.4-vasp.4.6
   LMAXPAW     = -100 max onsite density
   LMAXMIX     =    2 max onsite mixed and CHGCAR
   VOSKOWN=      0    Vosko Wilk Nusair interpolation
   ROPT   =   -0.00025  -0.00025
 Ionic relaxation
   EDIFFG = -.5E-01   stopping-criterion for IOM
   NSW    =    300    number of steps for IOM
   NBLOCK =      1;   KBLOCK =    300    inner block; outer block 
   IBRION =      1    ionic relax: 0-MD 1-quasi-New 2-CG
   NFREE  =      0    steps in history (QN), initial steepest desc. (CG)
   ISIF   =      2    stress and relaxation
   IWAVPR =     11    prediction:  0-non 1-charg 2-wave 3-comb
   ISYM   =      2    0-nonsym 1-usesym 2-fastsym
   LCORR  =      T    Harris-Foulkes like correction to forces

   POTIM  = 0.5000    time-step for ionic-motion
   TEIN   =    0.0    initial temperature
   TEBEG  =    0.0;   TEEND  =   0.0 temperature during run
   SMASS  =  -3.00    Nose mass-parameter (am)
   estimated Nose-frequenzy (Omega)   =  0.10E-29 period in steps =****** mass=  -0.255E-26a.u.
   SCALEE = 1.0000    scale energy and forces
   NPACO  =    256;   APACO  = 16.0  distance and # of slots for P.C.
   PSTRESS=    0.0 pullay stress

  Mass of Ions in am
   POMASS = 195.08  1.00
  Ionic Valenz
   ZVAL   =  10.00  1.00
  Atomic Wigner-Seitz radii
   RWIGS  =  -1.00 -1.00
  virtual crystal weights 
   VCA    =   1.00  1.00
   NELECT =     642.0000    total number of electrons
   NUPDOWN=      -1.0000    fix difference up-down

 DOS related values:
   EMIN   =  10.00;   EMAX   =-10.00  energy-range for DOS
   EFERMI =   0.00
   ISMEAR =     1;   SIGMA  =   0.10  broadening in eV -4-tet -1-fermi 0-gaus

 Electronic relaxation 2 (details)
   IALGO  =     68    algorithm
   LDIAG  =      T    sub-space diagonalisation (order eigenvalues)
   LSUBROT=      F    optimize rotation matrix (better conditioning)
   TURBO    =      0    0=normal 1=particle mesh
   IRESTART =      0    0=no restart 2=restart with 2 vectors
   NREBOOT  =      0    no. of reboots
   NMIN     =      0    reboot dimension
   EREF     =   0.00    reference energy to select bands
   IMIX   =      4    mixing-type and parameters
     AMIX     =   0.40;   BMIX     =  1.00
     AMIX_MAG =   1.60;   BMIX_MAG =  1.00
     AMIN     =   0.10
     WC   =   100.;   INIMIX=   1;  MIXPRE=   1;  MAXMIX= -45

 Intra band minimization:
   WEIMIN = 0.0010     energy-eigenvalue tresh-hold
   EBREAK =  0.57E-08  absolut break condition
   DEPER  =   0.30     relativ break condition  

   TIME   =   0.40     timestep for ELM

  volume/ion in A,a.u.               =      29.26       197.49
  Fermi-wavevector in a.u.,A,eV,Ry     =   1.134028  2.143002 17.497349  1.286019
  Thomas-Fermi vector in A             =   2.270731
 
 Write flags
   LWAVE        =      F    write WAVECAR
   LDOWNSAMPLE  =      F    k-point downsampling of WAVECAR
   LCHARG       =      F    write CHGCAR
   LVTOT        =      F    write LOCPOT, total local potential
   LVHAR        =      F    write LOCPOT, Hartree potential only
   LELF         =      F    write electronic localiz. function (ELF)
   LORBIT       =      0    0 simple, 1 ext, 2 COOP (PROOUT), +10 PAW based schemes


 Dipole corrections
   LMONO  =      F    monopole corrections only (constant potential shift)
   LDIPOL =      F    correct potential (dipole corrections)
   IDIPOL =      0    1-x, 2-y, 3-z, 4-all directions 
   EPSILON=  1.0000000 bulk dielectric constant

 Exchange correlation treatment:
   GGA     =    --    GGA type
   LEXCH   =     8    internal setting for exchange type
   VOSKOWN=      0    Vosko Wilk Nusair interpolation
   LHFCALC =     F    Hartree Fock is set to
   LHFONE  =     F    Hartree Fock one center treatment
   AEXX    =    0.0000 exact exchange contribution

 Linear response parameters
   LEPSILON=     F    determine dielectric tensor
   LRPA    =     F    only Hartree local field effects (RPA)
   LNABLA  =     F    use nabla operator in PAW spheres
   LVEL    =     F    velocity operator in full k-point grid
   LINTERFAST=   F  fast interpolation
   KINTER  =     0    interpolate to denser k-point grid
   CSHIFT  =0.1000    complex shift for real part using Kramers Kronig
   OMEGAMAX=  -1.0    maximum frequency
   DEG_THRESHOLD= 0.2000000E-02 threshold for treating states as degnerate
   RTIME   =   -0.100 relaxation time in fs
  (WPLASMAI=    0.000 imaginary part of plasma frequency in eV, 0.658/RTIME)
   DFIELD  = 0.0000000 0.0000000 0.0000000 field for delta impulse in time
 
 Orbital magnetization related:
   ORBITALMAG=     F  switch on orbital magnetization
   LCHIMAG   =     F  perturbation theory with respect to B field
   DQ        =  0.001000  dq finite difference perturbation B field
   LLRAUG    =     F  two centre corrections for induced B field



--------------------------------------------------------------------------------------------------------


 quasi-Newton-method for relaxation of ions
   using selective dynamics as specified on POSCAR
 charge density and potential will be updated during run
 spin polarized calculation
 RMM-DIIS sequential band-by-band and
  variant of blocked Davidson during initial phase
 perform sub-space diagonalisation
    before iterative eigenvector-optimisation
 modified Broyden-mixing scheme, WC =      100.0
 initial mixing is a Kerker type mixing with AMIX =  0.4000 and BMIX =      1.0000
 Hartree-type preconditioning will be used
 using additional bands          119
 real space projection scheme for non local part
 use partial core corrections
 calculate Harris-corrections to forces 
   (improved forces if not selfconsistent)
 use gradient corrections 
 use of overlap-Matrix (Vanderbilt PP)
 Methfessel and Paxton  Order N= 1 SIGMA  =   0.10


--------------------------------------------------------------------------------------------------------


  energy-cutoff  :      550.00
  volume of cell :     1931.47
      direct lattice vectors                 reciprocal lattice vectors
    10.560000420  0.000000000  0.000000000     0.094696966  0.054673319  0.000000000
    -5.280000210  9.145228627  0.000000000     0.000000000  0.109346638  0.000000000
     0.000000000  0.000000000 20.000000000     0.000000000  0.000000000  0.050000000

  length of vectors
    10.560000420 10.560000420 20.000000000     0.109346638  0.109346638  0.050000000


 
 k-points in units of 2pi/SCALE and weight: mesh auto                               
   0.00000000  0.00000000  0.00000000       0.250
   0.04734848  0.02733666  0.00000000       0.250
   0.00000000  0.05467332  0.00000000       0.250
   0.04734848  0.08200998  0.00000000       0.250
 
 k-points in reciprocal lattice and weights: mesh auto                               
   0.00000000  0.00000000  0.00000000       0.250
   0.50000000 -0.00000000  0.00000000       0.250
   0.00000000  0.50000000  0.00000000       0.250
   0.50000000  0.50000000  0.00000000       0.250
 
 position of ions in fractional coordinates (direct lattice) 
   0.99999844  0.00000156  0.05579229
   0.33360984  0.16802922  0.17944072
   0.16792918  0.33300710  0.30594303
   0.00009809  0.00060479  0.41656990
   0.99999844  0.25000155  0.05579229
   0.33364079  0.41636785  0.18640994
   0.16895575  0.08644442  0.30028815
   0.99950945  0.24975328  0.42030364
   0.24999844  0.25000155  0.05579229
   0.08488271  0.41608510  0.17819471
   0.41672087  0.08397673  0.29661855
   0.24801614  0.24828406  0.43827801
   0.24999844  0.00000156  0.05579229
   0.08532520  0.16799778  0.17980564
   0.41593353  0.33417517  0.30655780
   0.24950593  0.99989376  0.41833690
   0.49999844  0.00000156  0.05579229
   0.83402810  0.16663779  0.17737850
   0.66605733  0.33332691  0.29639016
   0.49989765  0.99996993  0.41807178
   0.49999843  0.25000155  0.05579229
   0.83315972  0.41606879  0.17583653
   0.66652803  0.08346667  0.29678625
   0.49982316  0.24997025  0.41873506
   0.74999841  0.25000155  0.05579229
   0.58196336  0.41642928  0.17933099
   0.91705406  0.08363573  0.29671052
   0.74979412  0.24990128  0.41803965
   0.74999842  0.00000156  0.05579229
   0.58307679  0.16690211  0.17675961
   0.91732819  0.33288077  0.29623464
   0.74965769  0.00015905  0.41833175
   0.99999844  0.50000154  0.05579229
   0.33400340  0.66518486  0.17826355
   0.16756066  0.83418051  0.29329715
   0.99945749  0.50011166  0.41550318
   0.99999843  0.75000151  0.05579229
   0.33397745  0.91688623  0.17604550
   0.16804833  0.58208208  0.29630356
   0.99950251  0.75021723  0.41120259
   0.24999843  0.75000151  0.05579229
   0.08429541  0.91806254  0.17559971
   0.41698917  0.58212372  0.30608356
   0.24965563  0.75032614  0.41582475
   0.24999844  0.50000154  0.05579229
   0.08388062  0.66625680  0.17456472
   0.41714079  0.83267070  0.29642257
   0.24874582  0.50087274  0.42568332
   0.49999844  0.50000154  0.05579229
   0.83191233  0.66575039  0.17559929
   0.66635900  0.83290776  0.29695052
   0.50111845  0.50173884  0.43829960
   0.49999843  0.75000151  0.05579229
   0.83310786  0.91682211  0.17552277
   0.66358829  0.58117500  0.30046509
   0.50001349  0.75029328  0.42055726
   0.74999841  0.75000151  0.05579229
   0.58332248  0.91592301  0.17744421
   0.91590473  0.58252055  0.29306742
   0.74922386  0.74972268  0.41707678
   0.74999839  0.50000154  0.05579229
   0.58198088  0.66467549  0.18005576
   0.91610448  0.83379423  0.29273420
   0.74979253  0.50023216  0.41807714
   0.35635029  0.40153712  0.52103409
   0.39462510  0.34895208  0.52126042
 
 position of ions in cartesian coordinates  (Angst):
  10.55997578  0.00001422  1.11584590
   2.63572578  1.53666559  3.58881438
   0.01505470  3.04542607  6.11886059
  -0.00215746  0.00553098  8.33139808
   9.23997574  2.28632132  1.11584590
   1.32482451  3.80777917  3.72819879
   1.32774622  0.79055398  6.00576302
   9.23612279  2.28405087  8.40607285
   1.31997542  2.28632132  1.11584590
  -1.30056799  3.80519341  3.56389421
   3.95717548  0.76798637  5.93237090
   1.30811063  2.27061451  8.76556010
   2.63997547  0.00001422  1.11584590
   0.01400587  1.53637813  3.59611273
   2.62781331  3.05610829  6.13115600
  -2.64465649  9.14425702  8.36673810
   5.27997557  0.00001422  1.11584590
   7.92748948  1.52394068  3.54757002
   5.27359949  3.04835079  5.92780312
  -0.00092205  9.14495360  8.36143555
   3.95997540  2.28632132  1.11584590
   6.60132374  3.80504419  3.51673060
   6.59783224  0.76332182  5.93572504
   3.95828982  2.28603509  8.37470116
   6.59997527  2.28632132  1.11584590
   3.94678663  3.80834101  3.58661971
   9.24249456  0.76486790  5.93421033
   6.59834743  2.28540431  8.36079306
   7.91997543  0.00001422  1.11584590
   5.27604798  1.52635793  3.53519218
   7.92937550  3.04427074  5.92469282
   7.91554573  0.00145456  8.36663498
   7.91997567  4.57262842  1.11584590
   0.01489986  6.08326764  3.56527107
  -2.63503267  7.62877152  5.86594292
   7.91368185  4.57363544  8.31006354
   6.59997574  6.85893527  1.11584590
  -1.31435744  8.38513422  3.52091010
  -1.29880301  5.32327366  5.92607127
   6.59359985  6.86090807  8.22405182
  -1.32002457  6.85893527  1.11584590
  -3.95721078  8.39589180  3.51199423
   1.32979250  5.32365451  6.12167121
  -1.32535864  6.86190412  8.31649501
  -0.00002464  4.57262842  1.11584590
  -2.63205669  6.09307075  3.49129449
   0.00850540  7.61496392  5.92845137
  -0.01785225  4.58059570  8.51366647
   2.63997546  4.57262842  1.11584590
   5.26983234  6.08843949  3.51198588
   2.63899816  7.61713189  5.93901032
   2.64262985  4.58851638  8.76599192
   1.31997553  6.85893527  1.11584590
   3.95679840  8.38454785  3.51045536
   3.93888853  5.31497825  6.00930188
   1.31859396  6.86160361  8.41114525
   3.95997540  6.85893527  1.11584590
   1.32381194  8.37632532  3.54888417
   6.59624573  5.32728364  5.86134843
   3.95326833  6.85638533  8.34153556
   5.27997509  4.57262842  1.11584590
   2.63623156  6.07860933  3.60111514
   5.27162998  7.62523890  5.85468391
   5.27658353  4.57473745  8.36154285
   1.64294315  3.67214878 10.42068189
   2.32477416  3.19124660 10.42520838
 


--------------------------------------------------------------------------------------------------------


 k-point  1 :   0.0000 0.0000 0.0000  plane waves:   56579
 k-point  2 :   0.5000-0.0000 0.0000  plane waves:   56606
 k-point  3 :   0.0000 0.5000 0.0000  plane waves:   56606
 k-point  4 :   0.5000 0.5000 0.0000  plane waves:   56606

 maximum and minimum number of plane-waves per node :     56606    56579

 maximum number of plane-waves:     56606
 maximum index in each direction: 
   IXMAX=   20   IYMAX=   20   IZMAX=   38
   IXMIN=  -20   IYMIN=  -20   IZMIN=  -38


 serial   3D FFT for wavefunctions
 parallel 3D FFT for charge:
    minimum data exchange during FFTs selected (reduces bandwidth)


 total amount of memory used by VASP MPI-rank0   328535. kBytes
=======================================================================

   base      :      30000. kBytes
   nonlr-proj:      89557. kBytes
   fftplans  :      13334. kBytes
   grid      :     112154. kBytes
   one-center:       2052. kBytes
   wavefun   :      81438. kBytes
 
     INWAV:  cpu time    0.0000: real time    0.0000
 Broyden mixing: mesh for mixing (old mesh)
   NGX = 41   NGY = 41   NGZ = 77
  (NGX  =168   NGY  =168   NGZ  =320)
  gives a total of 129437 points

 initial charge density was supplied:
 charge density of overlapping atoms calculated
 number of electron     642.0000000 magnetization      66.0000000
 keeping initial charge density in first step


--------------------------------------------------------------------------------------------------------


 Maximum index for non-local projection operator         7921
 Maximum index for augmentation-charges         2179 (set IRDMAX)


--------------------------------------------------------------------------------------------------------


 First call to EWALD:  gamma=   0.142
 Maximum number of real-space cells 4x 4x 2
 Maximum number of reciprocal cells 2x 2x 4

    FEWALD:  cpu time    0.0023: real time    0.0023


--------------------------------------- Iteration      1(   1)  ---------------------------------------


    POTLOK:  cpu time    0.4525: real time    0.4857
    SETDIJ:  cpu time    0.0328: real time    0.0329
     EDDAV:  cpu time   39.9412: real time   40.0412
       DOS:  cpu time    0.0013: real time    0.0084
    --------------------------------------------
      LOOP:  cpu time   40.4278: real time   40.5683

 eigenvalue-minimisations  :  7040
 total energy-change (2. order) : 0.4380277E+04  (-0.3126728E+05)
 number of electron     642.0000000 magnetization      66.0000000
 augmentation part      642.0000000 magnetization      66.0000000

 Free energy of the ion-electron system (eV)
  ---------------------------------------------------
  alpha Z        PSCENC =      2023.78361127
  Ewald energy   TEWEN  =    124354.28992367
  -Hartree energ DENC   =   -175469.64041132
  -exchange      EXHF   =         0.00000000
  -V(xc)+E(xc)   XCENC  =       247.40596243
  PAW double counting   =     44550.55032729   -42740.70693553
  entropy T*S    EENTRO =         0.00538862
  eigenvalues    EBANDS =      4726.21885321
  atomic energy  EATOM  =     46688.37031544
  Solvation  Ediel_sol  =         0.00000000
  ---------------------------------------------------
  free energy    TOTEN  =      4380.27703509 eV

  energy without entropy =     4380.27164647  energy(sigma->0) =     4380.27523888


--------------------------------------------------------------------------------------------------------




--------------------------------------- Iteration      1(   2)  ---------------------------------------


     EDDAV:  cpu time   42.3623: real time   42.4632
       DOS:  cpu time    0.0009: real time    0.0060
    --------------------------------------------
      LOOP:  cpu time   42.3632: real time   42.4692

 eigenvalue-minimisations  :  7680
 total energy-change (2. order) :-0.4548693E+04  (-0.4165973E+04)
 number of electron     642.0000000 magnetization      66.0000000
 augmentation part      642.0000000 magnetization      66.0000000

 Free energy of the ion-electron system (eV)
  ---------------------------------------------------
  alpha Z        PSCENC =      2023.78361127
  Ewald energy   TEWEN  =    124354.28992367
  -Hartree energ DENC   =   -175469.64041132
  -exchange      EXHF   =         0.00000000
  -V(xc)+E(xc)   XCENC  =       247.40596243
  PAW double counting   =     44550.55032729   -42740.70693553
  entropy T*S    EENTRO =        -0.00260511
  eigenvalues    EBANDS =       177.53428652
  atomic energy  EATOM  =     46688.37031544
  Solvation  Ediel_sol  =         0.00000000
  ---------------------------------------------------
  free energy    TOTEN  =      -168.41552534 eV

  energy without entropy =     -168.41292023  energy(sigma->0) =     -168.41465697


--------------------------------------------------------------------------------------------------------




--------------------------------------- Iteration      1(   3)  ---------------------------------------


     EDDAV:  cpu time   44.7907: real time   44.9213
       DOS:  cpu time    0.0009: real time    0.0051
    --------------------------------------------
      LOOP:  cpu time   44.7916: real time   44.9265

 eigenvalue-minimisations  :  8200
 total energy-change (2. order) :-0.2156973E+03  (-0.2043594E+03)
 number of electron     642.0000000 magnetization      66.0000000
 augmentation part      642.0000000 magnetization      66.0000000

 Free energy of the ion-electron system (eV)
  ---------------------------------------------------
  alpha Z        PSCENC =      2023.78361127
  Ewald energy   TEWEN  =    124354.28992367
  -Hartree energ DENC   =   -175469.64041132
  -exchange      EXHF   =         0.00000000
  -V(xc)+E(xc)   XCENC  =       247.40596243
  PAW double counting   =     44550.55032729   -42740.70693553
  entropy T*S    EENTRO =        -0.02327460
  eigenvalues    EBANDS =       -38.14238570
  atomic energy  EATOM  =     46688.37031544
  Solvation  Ediel_sol  =         0.00000000
  ---------------------------------------------------
  free energy    TOTEN  =      -384.11286704 eV

  energy without entropy =     -384.08959244  energy(sigma->0) =     -384.10510884


--------------------------------------------------------------------------------------------------------




--------------------------------------- Iteration      1(   4)  ---------------------------------------


     EDDAV:  cpu time   44.8182: real time   44.9491
       DOS:  cpu time    0.0009: real time    0.0042
    --------------------------------------------
      LOOP:  cpu time   44.8191: real time   44.9533

 eigenvalue-minimisations  :  8280
 total energy-change (2. order) :-0.4646892E+01  (-0.4625418E+01)
 number of electron     642.0000000 magnetization      66.0000000
 augmentation part      642.0000000 magnetization      66.0000000

 Free energy of the ion-electron system (eV)
  ---------------------------------------------------
  alpha Z        PSCENC =      2023.78361127
  Ewald energy   TEWEN  =    124354.28992367
  -Hartree energ DENC   =   -175469.64041132
  -exchange      EXHF   =         0.00000000
  -V(xc)+E(xc)   XCENC  =       247.40596243
  PAW double counting   =     44550.55032729   -42740.70693553
  entropy T*S    EENTRO =        -0.02677945
  eigenvalues    EBANDS =       -42.78577252
  atomic energy  EATOM  =     46688.37031544
  Solvation  Ediel_sol  =         0.00000000
  ---------------------------------------------------
  free energy    TOTEN  =      -388.75975872 eV

  energy without entropy =     -388.73297927  energy(sigma->0) =     -388.75083224


--------------------------------------------------------------------------------------------------------




--------------------------------------- Iteration      1(   5)  ---------------------------------------


     EDDAV:  cpu time   44.2249: real time   44.3545
       DOS:  cpu time    0.0009: real time    0.0029
    CHARGE:  cpu time    2.6787: real time    2.6865
    MIXING:  cpu time    0.0092: real time    0.0097
    --------------------------------------------
      LOOP:  cpu time   46.9137: real time   47.0536

 eigenvalue-minimisations  :  8080
 total energy-change (2. order) :-0.1346137E+00  (-0.1345760E+00)
 number of electron     642.0000076 magnetization      59.7394602
 augmentation part      185.7620919 magnetization      47.3651020

 Broyden mixing:
  rms(total) = 0.10484E+02    rms(broyden)= 0.10484E+02
  rms(prec ) = 0.10587E+02
  weight for this iteration     100.00

 Free energy of the ion-electron system (eV)
  ---------------------------------------------------
  alpha Z        PSCENC =      2023.78361127
  Ewald energy   TEWEN  =    124354.28992367
  -Hartree energ DENC   =   -175469.64041132
  -exchange      EXHF   =         0.00000000
  -V(xc)+E(xc)   XCENC  =       247.40596243
  PAW double counting   =     44550.55032729   -42740.70693553
  entropy T*S    EENTRO =        -0.02687288
  eigenvalues    EBANDS =       -42.92029276
  atomic energy  EATOM  =     46688.37031544
  Solvation  Ediel_sol  =         0.00000000
  ---------------------------------------------------
  free energy    TOTEN  =      -388.89437238 eV

  energy without entropy =     -388.86749950  energy(sigma->0) =     -388.88541475


--------------------------------------------------------------------------------------------------------




--------------------------------------- Iteration      1(   6)  ---------------------------------------


    POTLOK:  cpu time    0.3995: real time    0.4046
    SETDIJ:  cpu time    0.0321: real time    0.0321
    EDDIAG:  cpu time    6.3726: real time    6.3931
  RMM-DIIS:  cpu time   26.0481: real time   26.1330
    ORTHCH:  cpu time    0.7380: real time    0.7433
       DOS:  cpu time    0.0008: real time    0.0008
    CHARGE:  cpu time    2.5896: real time    2.5957
    MIXING:  cpu time    0.0084: real time    0.0088
    --------------------------------------------
      LOOP:  cpu time   36.1891: real time   36.3114

 eigenvalue-minimisations  :  7072
 total energy-change (2. order) : 0.2693853E+02  (-0.6482333E+01)
 number of electron     642.0000080 magnetization      51.9077297
 augmentation part      195.2909016 magnetization      38.4528410

 Broyden mixing:
  rms(total) = 0.67220E+01    rms(broyden)= 0.67220E+01
  rms(prec ) = 0.69855E+01
  weight for this iteration     100.00

 eigenvalues of (default mixing * dielectric matrix)
  average eigenvalue GAMMA=   1.2772
  1.2772

 Free energy of the ion-electron system (eV)
  ---------------------------------------------------
  alpha Z        PSCENC =      2023.78361127
  Ewald energy   TEWEN  =    124354.28992367
  -Hartree energ DENC   =   -174807.54054928
  -exchange      EXHF   =         0.00000000
  -V(xc)+E(xc)   XCENC  =       238.46215203
  PAW double counting   =     50838.19731259   -49135.51015848
  entropy T*S    EENTRO =        -0.02821634
  eigenvalues    EBANDS =      -561.98023651
  atomic energy  EATOM  =     46688.37031544
  Solvation  Ediel_sol  =         0.00000000
  ---------------------------------------------------
  free energy    TOTEN  =      -361.95584561 eV

  energy without entropy =     -361.92762927  energy(sigma->0) =     -361.94644016


--------------------------------------------------------------------------------------------------------




--------------------------------------- Iteration      1(   7)  ---------------------------------------


    POTLOK:  cpu time    0.3983: real time    0.4035
    SETDIJ:  cpu time    0.0322: real time    0.0323
    EDDIAG:  cpu time    6.2896: real time    6.3046
  RMM-DIIS:  cpu time   25.3869: real time   25.4587
    ORTHCH:  cpu time    0.7335: real time    0.7385
       DOS:  cpu time    0.0009: real time    0.0009
    CHARGE:  cpu time    2.6791: real time    2.6855
    MIXING:  cpu time    0.0081: real time    0.0081
    --------------------------------------------
      LOOP:  cpu time   35.5286: real time   35.6321

 eigenvalue-minimisations  :  7051
 total energy-change (2. order) :-0.1034692E+03  (-0.1050862E+02)
 number of electron     642.0000088 magnetization      46.2264892
 augmentation part      192.9586822 magnetization      34.3012628

 Broyden mixing:
  rms(total) = 0.92009E+01    rms(broyden)= 0.92009E+01
  rms(prec ) = 0.11366E+02
  weight for this iteration     100.00

 eigenvalues of (default mixing * dielectric matrix)
  average eigenvalue GAMMA=   1.0658
  1.7862  0.3454

 Free energy of the ion-electron system (eV)
  ---------------------------------------------------
  alpha Z        PSCENC =      2023.78361127
  Ewald energy   TEWEN  =    124354.28992367
  -Hartree energ DENC   =   -175358.34880661
  -exchange      EXHF   =         0.00000000
  -V(xc)+E(xc)   XCENC  =       232.33272389
  PAW double counting   =     56564.64534980   -54924.49184591
  entropy T*S    EENTRO =        -0.00686020
  eigenvalues    EBANDS =       -45.99941878
  atomic energy  EATOM  =     46688.37031544
  Solvation  Ediel_sol  =         0.00000000
  ---------------------------------------------------
  free energy    TOTEN  =      -465.42500743 eV

  energy without entropy =     -465.41814722  energy(sigma->0) =     -465.42272069


--------------------------------------------------------------------------------------------------------




--------------------------------------- Iteration      1(   8)  ---------------------------------------


    POTLOK:  cpu time    0.4002: real time    0.4053
    SETDIJ:  cpu time    0.0323: real time    0.0324
    EDDIAG:  cpu time    6.2785: real time    6.2936
  RMM-DIIS:  cpu time   25.6200: real time   25.6865
    ORTHCH:  cpu time    0.7339: real time    0.7394
       DOS:  cpu time    0.0008: real time    0.0008
    CHARGE:  cpu time    2.6023: real time    2.6086
    MIXING:  cpu time    0.0092: real time    0.0092
    --------------------------------------------
      LOOP:  cpu time   35.6774: real time   35.7759

 eigenvalue-minimisations  :  7076
 total energy-change (2. order) : 0.1092305E+03  (-0.5011249E+01)
 number of electron     642.0000083 magnetization      42.9686698
 augmentation part      198.5769941 magnetization      32.7417236

 Broyden mixing:
  rms(total) = 0.27457E+01    rms(broyden)= 0.27457E+01
  rms(prec ) = 0.31354E+01
  weight for this iteration     100.00

 eigenvalues of (default mixing * dielectric matrix)
  average eigenvalue GAMMA=   1.0235
  2.1195  0.6330  0.3179

 Free energy of the ion-electron system (eV)
  ---------------------------------------------------
  alpha Z        PSCENC =      2023.78361127
  Ewald energy   TEWEN  =    124354.28992367
  -Hartree energ DENC   =   -174821.95041143
  -exchange      EXHF   =         0.00000000
  -V(xc)+E(xc)   XCENC  =       234.23168776
  PAW double counting   =     59958.25882351   -58358.95128339
  entropy T*S    EENTRO =        -0.01718467
  eigenvalues    EBANDS =      -434.20995860
  atomic energy  EATOM  =     46688.37031544
  Solvation  Ediel_sol  =         0.00000000
  ---------------------------------------------------
  free energy    TOTEN  =      -356.19447643 eV

  energy without entropy =     -356.17729177  energy(sigma->0) =     -356.18874821


--------------------------------------------------------------------------------------------------------




--------------------------------------- Iteration      1(   9)  ---------------------------------------


    POTLOK:  cpu time    0.4003: real time    0.4051
    SETDIJ:  cpu time    0.0321: real time    0.0322
    EDDIAG:  cpu time    6.4245: real time    6.4432
  RMM-DIIS:  cpu time   25.6697: real time   25.7401
    ORTHCH:  cpu time    0.7351: real time    0.7396
       DOS:  cpu time    0.0008: real time    0.0047
    CHARGE:  cpu time    2.5506: real time    2.5567
    MIXING:  cpu time    0.0100: real time    0.0100
    --------------------------------------------
      LOOP:  cpu time   35.8232: real time   35.9316

 eigenvalue-minimisations  :  7077
 total energy-change (2. order) :-0.5655715E+01  (-0.2236707E+01)
 number of electron     642.0000080 magnetization      40.2643019
 augmentation part      197.9967261 magnetization      30.8869575

 Broyden mixing:
  rms(total) = 0.33600E+01    rms(broyden)= 0.33600E+01
  rms(prec ) = 0.37973E+01
  weight for this iteration     100.00

 eigenvalues of (default mixing * dielectric matrix)
  average eigenvalue GAMMA=   0.8810
  2.2219  0.6956  0.3435  0.2632

 Free energy of the ion-electron system (eV)
  ---------------------------------------------------
  alpha Z        PSCENC =      2023.78361127
  Ewald energy   TEWEN  =    124354.28992367
  -Hartree energ DENC   =   -174821.63299847
  -exchange      EXHF   =         0.00000000
  -V(xc)+E(xc)   XCENC  =       233.35102044
  PAW double counting   =     60387.67591598   -58789.54814862
  entropy T*S    EENTRO =         0.02082062
  eigenvalues    EBANDS =      -438.16065147
  atomic energy  EATOM  =     46688.37031544
  Solvation  Ediel_sol  =         0.00000000
  ---------------------------------------------------
  free energy    TOTEN  =      -361.85019113 eV

  energy without entropy =     -361.87101175  energy(sigma->0) =     -361.85713134


--------------------------------------------------------------------------------------------------------




--------------------------------------- Iteration      1(  10)  ---------------------------------------


    POTLOK:  cpu time    0.4151: real time    0.4191
    SETDIJ:  cpu time    0.0334: real time    0.0335
    EDDIAG:  cpu time    6.4030: real time    6.4249
  RMM-DIIS:  cpu time   25.5919: real time   25.6743
    ORTHCH:  cpu time    0.7367: real time    0.7428
       DOS:  cpu time    0.0008: real time    0.0040
    CHARGE:  cpu time    2.6161: real time    2.6239
    MIXING:  cpu time    0.0101: real time    0.0102
    --------------------------------------------
      LOOP:  cpu time   35.8072: real time   35.9326

 eigenvalue-minimisations  :  7080
 total energy-change (2. order) : 0.5747555E+01  (-0.5130937E+00)
 number of electron     642.0000081 magnetization      38.6589515
 augmentation part      197.8532817 magnetization      27.9664424

 Broyden mixing:
  rms(total) = 0.16221E+01    rms(broyden)= 0.16221E+01
  rms(prec ) = 0.19204E+01
  weight for this iteration     100.00

 eigenvalues of (default mixing * dielectric matrix)
  average eigenvalue GAMMA=   0.8064
  2.2447  0.6754  0.4237  0.4237  0.2646

 Free energy of the ion-electron system (eV)
  ---------------------------------------------------
  alpha Z        PSCENC =      2023.78361127
  Ewald energy   TEWEN  =    124354.28992367
  -Hartree energ DENC   =   -174848.05587687
  -exchange      EXHF   =         0.00000000
  -V(xc)+E(xc)   XCENC  =       233.03741561
  PAW double counting   =     60673.20416371   -59076.32929610
  entropy T*S    EENTRO =         0.03907974
  eigenvalues    EBANDS =      -404.44197219
  atomic energy  EATOM  =     46688.37031544
  Solvation  Ediel_sol  =         0.00000000
  ---------------------------------------------------
  free energy    TOTEN  =      -356.10263572 eV

  energy without entropy =     -356.14171546  energy(sigma->0) =     -356.11566230


--------------------------------------------------------------------------------------------------------




--------------------------------------- Iteration      1(  11)  ---------------------------------------


    POTLOK:  cpu time    0.3968: real time    0.4006
    SETDIJ:  cpu time    0.0323: real time    0.0324
    EDDIAG:  cpu time    6.2985: real time    6.3171
  RMM-DIIS:  cpu time   25.5576: real time   25.6376
    ORTHCH:  cpu time    0.7301: real time    0.7364
       DOS:  cpu time    0.0008: real time    0.0008
    CHARGE:  cpu time    2.6601: real time    2.6677
    MIXING:  cpu time    0.0106: real time    0.0106
    --------------------------------------------
      LOOP:  cpu time   35.6867: real time   35.8032

 eigenvalue-minimisations  :  7076
 total energy-change (2. order) :-0.3272729E+01  (-0.2251059E+00)
 number of electron     642.0000081 magnetization      37.1046531
 augmentation part      197.5500290 magnetization      25.9986704

 Broyden mixing:
  rms(total) = 0.21521E+01    rms(broyden)= 0.21521E+01
  rms(prec ) = 0.33026E+01
  weight for this iteration     100.00

 eigenvalues of (default mixing * dielectric matrix)
  average eigenvalue GAMMA=   0.7431
  2.2592  0.7039  0.7039  0.3749  0.2701  0.1466

 Free energy of the ion-electron system (eV)
  ---------------------------------------------------
  alpha Z        PSCENC =      2023.78361127
  Ewald energy   TEWEN  =    124354.28992367
  -Hartree energ DENC   =   -174864.44693620
  -exchange      EXHF   =         0.00000000
  -V(xc)+E(xc)   XCENC  =       232.21044302
  PAW double counting   =     60736.29481897   -59139.85467939
  entropy T*S    EENTRO =        -0.02513432
  eigenvalues    EBANDS =      -389.99772726
  atomic energy  EATOM  =     46688.37031544
  Solvation  Ediel_sol  =         0.00000000
  ---------------------------------------------------
  free energy    TOTEN  =      -359.37536479 eV

  energy without entropy =     -359.35023048  energy(sigma->0) =     -359.36698669


--------------------------------------------------------------------------------------------------------




--------------------------------------- Iteration      1(  12)  ---------------------------------------


    POTLOK:  cpu time    0.3975: real time    0.4023
    SETDIJ:  cpu time    0.0325: real time    0.0326
    EDDIAG:  cpu time    6.2860: real time    6.3045
  RMM-DIIS:  cpu time   25.5817: real time   25.6620
    ORTHCH:  cpu time    0.7290: real time    0.7342
       DOS:  cpu time    0.0009: real time    0.0045
    CHARGE:  cpu time    2.7116: real time    2.7193
    MIXING:  cpu time    0.0106: real time    0.0106
    --------------------------------------------
      LOOP:  cpu time   35.7497: real time   35.8700

 eigenvalue-minimisations  :  7080
 total energy-change (2. order) :-0.4395198E+00  (-0.1390148E+00)
 number of electron     642.0000081 magnetization      34.5164724
 augmentation part      197.4282682 magnetization      24.3505819

 Broyden mixing:
  rms(total) = 0.17438E+01    rms(broyden)= 0.17438E+01
  rms(prec ) = 0.23701E+01
  weight for this iteration     100.00

 eigenvalues of (default mixing * dielectric matrix)
  average eigenvalue GAMMA=   0.7099
  2.2508  0.8584  0.8584  0.3279  0.3279  0.2525  0.0937

 Free energy of the ion-electron system (eV)
  ---------------------------------------------------
  alpha Z        PSCENC =      2023.78361127
  Ewald energy   TEWEN  =    124354.28992367
  -Hartree energ DENC   =   -174882.27852475
  -exchange      EXHF   =         0.00000000
  -V(xc)+E(xc)   XCENC  =       231.23465271
  PAW double counting   =     60783.19786771   -59187.13559554
  entropy T*S    EENTRO =         0.02343834
  eigenvalues    EBANDS =      -371.30057350
  atomic energy  EATOM  =     46688.37031544
  Solvation  Ediel_sol  =         0.00000000
  ---------------------------------------------------
  free energy    TOTEN  =      -359.81488464 eV

  energy without entropy =     -359.83832298  energy(sigma->0) =     -359.82269742


--------------------------------------------------------------------------------------------------------




--------------------------------------- Iteration      1(  13)  ---------------------------------------


    POTLOK:  cpu time    0.3990: real time    0.4030
    SETDIJ:  cpu time    0.0323: real time    0.0324
    EDDIAG:  cpu time    6.2844: real time    6.3024
  RMM-DIIS:  cpu time   25.6600: real time   25.7402
    ORTHCH:  cpu time    0.7316: real time    0.7375
       DOS:  cpu time    0.0008: real time    0.0008
    CHARGE:  cpu time    2.6959: real time    2.7037
    MIXING:  cpu time    0.0111: real time    0.0112
    --------------------------------------------
      LOOP:  cpu time   35.8152: real time   35.9312

 eigenvalue-minimisations  :  7071
 total energy-change (2. order) :-0.9586045E+00  (-0.1141798E+00)
 number of electron     642.0000081 magnetization      32.6842368
 augmentation part      197.2201631 magnetization      22.9279274

 Broyden mixing:
  rms(total) = 0.81765E+00    rms(broyden)= 0.81765E+00
  rms(prec ) = 0.86893E+00
  weight for this iteration     100.00

 eigenvalues of (default mixing * dielectric matrix)
  average eigenvalue GAMMA=   0.6971
  2.1667  1.1855  0.8102  0.3633  0.3614  0.3614  0.2343  0.0941

 Free energy of the ion-electron system (eV)
  ---------------------------------------------------
  alpha Z        PSCENC =      2023.78361127
  Ewald energy   TEWEN  =    124354.28992367
  -Hartree energ DENC   =   -174907.82734733
  -exchange      EXHF   =         0.00000000
  -V(xc)+E(xc)   XCENC  =       229.69257029
  PAW double counting   =     60793.69992732   -59197.78127905
  entropy T*S    EENTRO =         0.00594616
  eigenvalues    EBANDS =      -345.00715690
  atomic energy  EATOM  =     46688.37031544
  Solvation  Ediel_sol  =         0.00000000
  ---------------------------------------------------
  free energy    TOTEN  =      -360.77348913 eV

  energy without entropy =     -360.77943528  energy(sigma->0) =     -360.77547118


--------------------------------------------------------------------------------------------------------




--------------------------------------- Iteration      1(  14)  ---------------------------------------


    POTLOK:  cpu time    0.3963: real time    0.4006
    SETDIJ:  cpu time    0.0319: real time    0.0320
    EDDIAG:  cpu time    6.3692: real time    6.3844
  RMM-DIIS:  cpu time   25.8581: real time   25.9285
    ORTHCH:  cpu time    0.7333: real time    0.7385
       DOS:  cpu time    0.0008: real time    0.0008
    CHARGE:  cpu time    2.6746: real time    2.6810
    MIXING:  cpu time    0.0126: real time    0.0127
    --------------------------------------------
      LOOP:  cpu time   36.0768: real time   36.1784

 eigenvalue-minimisations  :  7066
 total energy-change (2. order) :-0.1478224E+01  (-0.4567029E-01)
 number of electron     642.0000081 magnetization      29.0664988
 augmentation part      197.1940201 magnetization      19.5982909

 Broyden mixing:
  rms(total) = 0.69227E+00    rms(broyden)= 0.69227E+00
  rms(prec ) = 0.73966E+00
  weight for this iteration     100.00

 eigenvalues of (default mixing * dielectric matrix)
  average eigenvalue GAMMA=   0.7020
  2.0942  1.2585  0.9801  0.6366  0.3795  0.3795  0.2663  0.2290  0.0940

 Free energy of the ion-electron system (eV)
  ---------------------------------------------------
  alpha Z        PSCENC =      2023.78361127
  Ewald energy   TEWEN  =    124354.28992367
  -Hartree energ DENC   =   -174903.31165060
  -exchange      EXHF   =         0.00000000
  -V(xc)+E(xc)   XCENC  =       228.77838848
  PAW double counting   =     60691.91527388   -59095.32005060
  entropy T*S    EENTRO =         0.02882858
  eigenvalues    EBANDS =      -350.78635366
  atomic energy  EATOM  =     46688.37031544
  Solvation  Ediel_sol  =         0.00000000
  ---------------------------------------------------
  free energy    TOTEN  =      -362.25171354 eV

  energy without entropy =     -362.28054212  energy(sigma->0) =     -362.26132306


--------------------------------------------------------------------------------------------------------




--------------------------------------- Iteration      1(  15)  ---------------------------------------


    POTLOK:  cpu time    0.4042: real time    0.4087
    SETDIJ:  cpu time    0.0336: real time    0.0337
    EDDIAG:  cpu time    6.4408: real time    6.4562
  RMM-DIIS:  cpu time   25.8492: real time   25.9160
    ORTHCH:  cpu time    0.7331: real time    0.7377
       DOS:  cpu time    0.0008: real time    0.0042
    CHARGE:  cpu time    2.4950: real time    2.5010
    MIXING:  cpu time    0.0120: real time    0.0120
    --------------------------------------------
      LOOP:  cpu time   35.9687: real time   36.0695

 eigenvalue-minimisations  :  7062
 total energy-change (2. order) :-0.2765479E+01  (-0.8107878E-01)
 number of electron     642.0000081 magnetization      23.5751207
 augmentation part      197.2168418 magnetization      14.9151657

 Broyden mixing:
  rms(total) = 0.61204E+00    rms(broyden)= 0.61204E+00
  rms(prec ) = 0.66768E+00
  weight for this iteration     100.00

 eigenvalues of (default mixing * dielectric matrix)
  average eigenvalue GAMMA=   0.7951
  2.1640  2.1640  0.8889  0.8889  0.4698  0.4698  0.3148  0.2703  0.2264  0.0940

 Free energy of the ion-electron system (eV)
  ---------------------------------------------------
  alpha Z        PSCENC =      2023.78361127
  Ewald energy   TEWEN  =    124354.28992367
  -Hartree energ DENC   =   -174891.93893442
  -exchange      EXHF   =         0.00000000
  -V(xc)+E(xc)   XCENC  =       227.02876049
  PAW double counting   =     60562.56170891   -58965.47648685
  entropy T*S    EENTRO =         0.02386153
  eigenvalues    EBANDS =      -363.65995210
  atomic energy  EATOM  =     46688.37031544
  Solvation  Ediel_sol  =         0.00000000
  ---------------------------------------------------
  free energy    TOTEN  =      -365.01719206 eV

  energy without entropy =     -365.04105358  energy(sigma->0) =     -365.02514590


--------------------------------------------------------------------------------------------------------




--------------------------------------- Iteration      1(  16)  ---------------------------------------


    POTLOK:  cpu time    0.3965: real time    0.3974
    SETDIJ:  cpu time    0.0321: real time    0.0322
    EDDIAG:  cpu time    6.2940: real time    6.3089
  RMM-DIIS:  cpu time   25.9254: real time   25.9925
    ORTHCH:  cpu time    0.7290: real time    0.7337
       DOS:  cpu time    0.0009: real time    0.0042
    CHARGE:  cpu time    2.7683: real time    2.7763
    MIXING:  cpu time    0.0123: real time    0.0123
    --------------------------------------------
      LOOP:  cpu time   36.1585: real time   36.2575

 eigenvalue-minimisations  :  7069
 total energy-change (2. order) :-0.3580211E+01  (-0.1523183E+00)
 number of electron     642.0000081 magnetization      19.5742311
 augmentation part      197.2083027 magnetization      11.3919110

 Broyden mixing:
  rms(total) = 0.59710E+00    rms(broyden)= 0.59710E+00
  rms(prec ) = 0.71558E+00
  weight for this iteration     100.00

 eigenvalues of (default mixing * dielectric matrix)
  average eigenvalue GAMMA=   0.8191
  2.5594  2.4314  0.9281  0.9281  0.5080  0.3841  0.3841  0.3108  0.2565  0.2250
  0.0940

 Free energy of the ion-electron system (eV)
  ---------------------------------------------------
  alpha Z        PSCENC =      2023.78361127
  Ewald energy   TEWEN  =    124354.28992367
  -Hartree energ DENC   =   -174900.41939450
  -exchange      EXHF   =         0.00000000
  -V(xc)+E(xc)   XCENC  =       224.62886789
  PAW double counting   =     60558.89548997   -58962.59057267
  entropy T*S    EENTRO =        -0.00262399
  eigenvalues    EBANDS =      -355.55301981
  atomic energy  EATOM  =     46688.37031544
  Solvation  Ediel_sol  =         0.00000000
  ---------------------------------------------------
  free energy    TOTEN  =      -368.59740273 eV

  energy without entropy =     -368.59477874  energy(sigma->0) =     -368.59652807


--------------------------------------------------------------------------------------------------------




--------------------------------------- Iteration      1(  17)  ---------------------------------------


    POTLOK:  cpu time    0.4127: real time    0.4173
    SETDIJ:  cpu time    0.0324: real time    0.0324
    EDDIAG:  cpu time    6.2742: real time    6.2927
  RMM-DIIS:  cpu time   25.7317: real time   25.8118
    ORTHCH:  cpu time    0.7310: real time    0.7354
       DOS:  cpu time    0.0008: real time    0.0008
    CHARGE:  cpu time    2.5592: real time    2.5670
    MIXING:  cpu time    0.0126: real time    0.0126
    --------------------------------------------
      LOOP:  cpu time   35.7547: real time   35.8700

 eigenvalue-minimisations  :  7064
 total energy-change (2. order) :-0.1903881E+01  (-0.1045776E+00)
 number of electron     642.0000081 magnetization      17.4550880
 augmentation part      197.1867862 magnetization      10.1772056

 Broyden mixing:
  rms(total) = 0.37757E+00    rms(broyden)= 0.37757E+00
  rms(prec ) = 0.41039E+00
  weight for this iteration     100.00

 eigenvalues of (default mixing * dielectric matrix)
  average eigenvalue GAMMA=   0.9185
  3.8075  2.3253  1.0348  1.0348  0.6874  0.5382  0.3792  0.3792  0.2812  0.2312
  0.2286  0.0940

 Free energy of the ion-electron system (eV)
  ---------------------------------------------------
  alpha Z        PSCENC =      2023.78361127
  Ewald energy   TEWEN  =    124354.28992367
  -Hartree energ DENC   =   -174893.30324613
  -exchange      EXHF   =         0.00000000
  -V(xc)+E(xc)   XCENC  =       223.19012695
  PAW double counting   =     60527.25159165   -58930.94048644
  entropy T*S    EENTRO =        -0.00379445
  eigenvalues    EBANDS =      -363.13932614
  atomic energy  EATOM  =     46688.37031544
  Solvation  Ediel_sol  =         0.00000000
  ---------------------------------------------------
  free energy    TOTEN  =      -370.50128418 eV

  energy without entropy =     -370.49748973  energy(sigma->0) =     -370.50001936


--------------------------------------------------------------------------------------------------------




--------------------------------------- Iteration      1(  18)  ---------------------------------------


    POTLOK:  cpu time    0.3974: real time    0.3983
    SETDIJ:  cpu time    0.0323: real time    0.0324
    EDDIAG:  cpu time    6.2839: real time    6.3025
  RMM-DIIS:  cpu time   25.7867: real time   25.8677
    ORTHCH:  cpu time    0.7303: real time    0.7349
       DOS:  cpu time    0.0008: real time    0.0008
    CHARGE:  cpu time    2.4679: real time    2.4753
    MIXING:  cpu time    0.0121: real time    0.0121
    --------------------------------------------
      LOOP:  cpu time   35.7115: real time   35.8241

 eigenvalue-minimisations  :  7064
 total energy-change (2. order) :-0.9910363E+00  (-0.4876374E-01)
 number of electron     642.0000081 magnetization      15.5034156
 augmentation part      197.1281354 magnetization       8.7070070

 Broyden mixing:
  rms(total) = 0.27726E+00    rms(broyden)= 0.27726E+00
  rms(prec ) = 0.30340E+00
  weight for this iteration     100.00

 eigenvalues of (default mixing * dielectric matrix)
  average eigenvalue GAMMA=   0.9791
  4.7033  2.2631  1.1944  1.1944  0.6947  0.6947  0.3993  0.3993  0.0940  0.3450
  0.2834  0.2263  0.2363

 Free energy of the ion-electron system (eV)
  ---------------------------------------------------
  alpha Z        PSCENC =      2023.78361127
  Ewald energy   TEWEN  =    124354.28992367
  -Hartree energ DENC   =   -174889.25137104
  -exchange      EXHF   =         0.00000000
  -V(xc)+E(xc)   XCENC  =       222.48475591
  PAW double counting   =     60493.87232185   -58896.94763512
  entropy T*S    EENTRO =         0.00196153
  eigenvalues    EBANDS =      -368.09620397
  atomic energy  EATOM  =     46688.37031544
  Solvation  Ediel_sol  =         0.00000000
  ---------------------------------------------------
  free energy    TOTEN  =      -371.49232046 eV

  energy without entropy =     -371.49428199  energy(sigma->0) =     -371.49297430


--------------------------------------------------------------------------------------------------------




--------------------------------------- Iteration      1(  19)  ---------------------------------------


    POTLOK:  cpu time    0.3986: real time    0.3998
    SETDIJ:  cpu time    0.0322: real time    0.0323
    EDDIAG:  cpu time    6.3659: real time    6.3845
  RMM-DIIS:  cpu time   25.9159: real time   25.9930
    ORTHCH:  cpu time    0.7320: real time    0.7367
       DOS:  cpu time    0.0008: real time    0.0008
    CHARGE:  cpu time    2.4524: real time    2.4597
    MIXING:  cpu time    0.0139: real time    0.0139
    --------------------------------------------
      LOOP:  cpu time   35.9118: real time   36.0206

 eigenvalue-minimisations  :  7063
 total energy-change (2. order) :-0.5411032E+00  (-0.2707462E-01)
 number of electron     642.0000081 magnetization      13.4298328
 augmentation part      197.1486251 magnetization       7.1777984

 Broyden mixing:
  rms(total) = 0.28104E+00    rms(broyden)= 0.28104E+00
  rms(prec ) = 0.33064E+00
  weight for this iteration     100.00

 eigenvalues of (default mixing * dielectric matrix)
  average eigenvalue GAMMA=   1.0270
  5.5678  2.1534  1.4036  1.4036  0.7620  0.7620  0.4071  0.4071  0.3943  0.0940
  0.2956  0.2723  0.2258  0.2287

 Free energy of the ion-electron system (eV)
  ---------------------------------------------------
  alpha Z        PSCENC =      2023.78361127
  Ewald energy   TEWEN  =    124354.28992367
  -Hartree energ DENC   =   -174877.21176136
  -exchange      EXHF   =         0.00000000
  -V(xc)+E(xc)   XCENC  =       221.94623676
  PAW double counting   =     60493.26725243   -58896.25416242
  entropy T*S    EENTRO =        -0.00878582
  eigenvalues    EBANDS =      -380.21605361
  atomic energy  EATOM  =     46688.37031544
  Solvation  Ediel_sol  =         0.00000000
  ---------------------------------------------------
  free energy    TOTEN  =      -372.03342364 eV

  energy without entropy =     -372.02463782  energy(sigma->0) =     -372.03049503


--------------------------------------------------------------------------------------------------------




--------------------------------------- Iteration      1(  20)  ---------------------------------------


    POTLOK:  cpu time    0.4420: real time    0.4433
    SETDIJ:  cpu time    0.0340: real time    0.0341
    EDDIAG:  cpu time    6.4405: real time    6.4594
  RMM-DIIS:  cpu time   25.9027: real time   26.0014
    ORTHCH:  cpu time    0.7297: real time    0.7359
       DOS:  cpu time    0.0008: real time    0.0008
    CHARGE:  cpu time    2.4516: real time    2.4575
    MIXING:  cpu time    0.0122: real time    0.0122
    --------------------------------------------
      LOOP:  cpu time   36.0135: real time   36.1446

 eigenvalue-minimisations  :  7065
 total energy-change (2. order) :-0.1943488E+00  (-0.1624697E-01)
 number of electron     642.0000081 magnetization      11.9877735
 augmentation part      197.2024946 magnetization       6.2666276

 Broyden mixing:
  rms(total) = 0.22741E+00    rms(broyden)= 0.22741E+00
  rms(prec ) = 0.27503E+00
  weight for this iteration     100.00

 eigenvalues of (default mixing * dielectric matrix)
  average eigenvalue GAMMA=   1.0453
  6.2478  1.8840  1.8840  1.3968  0.7831  0.7831  0.4749  0.4165  0.4165  0.0940
  0.3340  0.2797  0.2292  0.2292  0.2269

 Free energy of the ion-electron system (eV)
  ---------------------------------------------------
  alpha Z        PSCENC =      2023.78361127
  Ewald energy   TEWEN  =    124354.28992367
  -Hartree energ DENC   =   -174861.41560142
  -exchange      EXHF   =         0.00000000
  -V(xc)+E(xc)   XCENC  =       221.55858760
  PAW double counting   =     60517.71770417   -58920.88982431
  entropy T*S    EENTRO =        -0.02372004
  eigenvalues    EBANDS =      -395.61876883
  atomic energy  EATOM  =     46688.37031544
  Solvation  Ediel_sol  =         0.00000000
  ---------------------------------------------------
  free energy    TOTEN  =      -372.22777245 eV

  energy without entropy =     -372.20405241  energy(sigma->0) =     -372.21986577


--------------------------------------------------------------------------------------------------------




--------------------------------------- Iteration      1(  21)  ---------------------------------------


    POTLOK:  cpu time    0.3980: real time    0.3990
    SETDIJ:  cpu time    0.0320: real time    0.0321
[...]
   -.110E+02 -.322E+01 0.230E+04   0.112E+02 0.335E+01 -.230E+04   -.518E-01 -.554E-01 0.114E-01   -.105E-01 -.213E-01 -.941E-03
   -.145E+01 0.557E+00 0.695E+03   0.151E+01 -.593E+00 -.694E+03   -.548E-01 0.327E-01 -.105E+01   -.110E-01 0.647E-02 -.450E-02
   0.296E+00 -.350E+01 -.794E+03   -.170E+00 0.396E+01 0.793E+03   -.101E+00 -.411E+00 0.256E+00   -.245E-01 -.433E-01 0.335E-02
   0.299E+02 0.107E+02 -.229E+04   -.296E+02 -.106E+02 0.229E+04   -.289E+00 -.110E+00 0.112E+00   -.923E-02 -.141E-01 0.804E-02
   -.548E+00 -.148E+02 0.229E+04   0.581E+00 0.150E+02 -.229E+04   -.171E-01 -.147E-02 0.424E-01   -.100E-01 -.175E-01 -.130E-01
   -.158E+02 0.515E+01 0.779E+03   0.160E+02 -.519E+01 -.779E+03   -.248E+00 0.374E-01 -.367E+00   -.230E-01 -.451E-02 0.224E-03
   0.103E+01 0.105E+01 -.750E+03   -.108E+01 -.939E+00 0.749E+03   0.593E-01 -.900E-01 0.420E+00   0.101E-01 -.316E-01 -.295E-02
   0.159E+02 0.481E+02 -.237E+04   -.168E+02 -.496E+02 0.237E+04   0.871E+00 0.146E+01 0.168E+01   -.900E-02 -.101E-01 0.448E-02
   0.519E+00 -.129E+02 0.231E+04   -.602E+00 0.129E+02 -.231E+04   0.504E-01 0.721E-01 -.178E+00   -.822E-02 -.137E-01 0.218E-02
   -.565E+01 -.129E+02 0.763E+03   0.583E+01 0.132E+02 -.763E+03   -.167E+00 -.199E+00 -.478E+00   -.268E-01 -.408E-01 0.636E-02
   0.582E+01 -.329E+01 -.870E+03   -.597E+01 0.339E+01 0.870E+03   0.157E+00 -.976E-01 -.385E-01   0.212E-02 -.477E-02 0.122E-01
   -.453E+01 0.302E+02 -.228E+04   0.446E+01 -.300E+02 0.228E+04   0.859E-01 -.208E+00 0.714E-01   -.924E-02 -.216E-01 -.997E-02
   -.127E+01 -.491E+00 0.231E+04   0.122E+01 0.490E+00 -.231E+04   0.235E-01 -.133E-01 -.165E+00   0.137E-01 -.521E-02 0.385E-02
   -.387E+01 -.137E+01 0.789E+03   0.397E+01 0.145E+01 -.789E+03   -.117E+00 -.615E-01 -.428E+00   0.463E-02 -.273E-01 0.688E-02
   -.439E+00 -.147E+01 -.747E+03   0.319E+00 0.146E+01 0.746E+03   0.107E+00 -.741E-02 0.434E+00   0.276E-01 0.337E-03 0.547E-03
   -.221E+00 0.336E+01 -.229E+04   0.239E+00 -.337E+01 0.229E+04   -.231E-01 0.146E-01 0.542E-01   0.985E-02 -.795E-02 -.646E-02
   0.114E+02 -.628E+01 0.230E+04   -.116E+02 0.637E+01 -.230E+04   0.528E-01 -.291E-01 0.307E-01   0.971E-02 -.851E-02 -.112E-01
   0.102E+01 0.445E+01 0.803E+03   -.104E+01 -.448E+01 -.803E+03   0.174E-01 0.143E-01 -.332E+00   0.106E-01 0.767E-02 0.286E-02
   -.390E+00 0.126E+00 -.755E+03   0.311E+00 -.801E-01 0.755E+03   0.518E-01 -.262E-01 0.435E+00   0.253E-01 -.191E-01 -.502E-02
   -.311E+02 0.174E+02 -.225E+04   0.312E+02 -.174E+02 0.225E+04   -.486E-01 0.277E-01 0.219E+00   0.764E-02 -.723E-02 0.260E-02
   0.429E-01 0.190E+01 0.231E+04   -.568E-01 -.186E+01 -.231E+04   0.208E-01 -.162E-01 -.176E+00   0.108E-01 -.126E-01 0.237E-03
   0.166E+02 0.197E+01 0.766E+03   -.168E+02 -.198E+01 -.766E+03   0.218E+00 -.151E-01 -.434E+00   0.225E-01 0.179E-01 -.778E-02
   -.962E+00 -.765E-01 -.749E+03   0.977E+00 0.125E+00 0.749E+03   -.210E-01 -.230E-01 0.467E+00   -.105E-01 -.318E-01 -.250E-02
   -.352E+01 -.235E+01 -.229E+04   0.352E+01 0.233E+01 0.229E+04   -.159E-01 0.236E-01 0.529E-01   0.118E-01 -.886E-02 -.320E-02
   0.125E+01 -.348E+00 0.231E+04   -.122E+01 0.331E+00 -.231E+04   -.343E-01 0.206E-01 -.180E+00   0.861E-02 -.573E-02 0.112E-01
   0.376E+01 -.177E+01 0.794E+03   -.392E+01 0.186E+01 -.794E+03   0.147E+00 -.785E-01 -.308E+00   0.266E-01 -.220E-01 -.434E-02
   0.272E+00 -.273E+00 -.746E+03   -.156E+00 0.259E+00 0.746E+03   -.114E+00 0.106E-01 0.381E+00   -.288E-02 -.112E-01 -.140E-02
   -.770E+00 -.379E+00 -.229E+04   0.780E+00 0.362E+00 0.229E+04   -.279E-01 0.266E-01 0.675E-01   0.109E-01 -.676E-02 -.493E-02
   -.862E+01 0.674E+01 0.231E+04   0.863E+01 -.670E+01 -.231E+04   0.440E-01 -.835E-01 -.241E+00   -.689E-02 0.191E-02 0.163E-02
   -.125E+02 0.107E+02 0.779E+03   0.127E+02 -.109E+02 -.779E+03   -.159E+00 0.188E+00 -.378E+00   -.717E-02 0.297E-01 0.267E-02
   -.335E-02 -.242E+00 -.717E+03   0.213E-01 0.337E+00 0.717E+03   0.240E-03 -.792E-01 0.433E+00   -.184E-01 -.109E-01 -.612E-02
   0.178E+02 -.122E+02 -.226E+04   -.176E+02 0.120E+02 0.226E+04   -.121E+00 0.137E+00 0.807E-01   -.204E-02 0.120E-01 -.121E-01
   0.222E+01 -.146E+01 0.232E+04   -.216E+01 0.142E+01 -.232E+04   -.662E-01 0.361E-01 -.293E+00   -.111E-01 0.945E-02 0.120E-01
   -.349E+01 -.303E+01 0.801E+03   0.350E+01 0.307E+01 -.800E+03   -.185E-02 -.241E-01 -.353E+00   -.988E-03 -.140E-01 0.259E-02
   0.725E+00 -.441E+00 -.745E+03   -.488E+00 0.304E+00 0.745E+03   -.208E+00 0.111E+00 0.438E+00   -.216E-01 0.185E-01 0.275E-03
   -.253E+01 0.190E+01 -.223E+04   0.250E+01 -.188E+01 0.223E+04   0.296E-01 -.220E-01 0.452E-01   -.651E-02 0.782E-02 -.297E-01
   -.104E+02 0.354E+01 0.231E+04   0.104E+02 -.357E+01 -.231E+04   0.970E-01 0.891E-02 -.234E+00   -.470E-02 0.849E-02 0.479E-02
   0.108E+01 -.109E+02 0.802E+03   -.107E+01 0.111E+02 -.802E+03   0.632E-02 -.191E+00 -.195E+00   -.209E-01 -.208E-01 0.722E-02
   -.533E+01 0.266E+01 -.855E+03   0.550E+01 -.282E+01 0.856E+03   -.161E+00 0.170E+00 0.756E-01   -.316E-02 0.352E-01 0.121E-01
   0.199E+02 -.843E+01 -.227E+04   -.197E+02 0.841E+01 0.227E+04   -.178E+00 0.217E-01 0.776E-01   -.112E-01 0.495E-04 -.231E-01
   -.161E+02 0.892E+01 0.229E+04   0.163E+02 -.900E+01 -.229E+04   0.190E-01 -.118E-01 0.168E-01   -.768E-02 0.494E-02 -.957E-02
   -.638E+01 0.335E+01 0.812E+03   0.651E+01 -.343E+01 -.812E+03   -.114E+00 0.555E-01 -.116E+00   -.167E-01 0.164E-01 0.608E-02
   0.344E+00 0.932E-01 -.748E+03   -.266E+00 -.189E+00 0.748E+03   -.690E-01 0.943E-01 0.380E+00   0.459E-02 0.803E-02 -.500E-02
   0.371E+02 -.205E+02 -.231E+04   -.374E+02 0.207E+02 0.231E+04   0.295E+00 -.171E+00 0.276E+00   -.118E-01 0.833E-02 0.468E-02
   0.128E+02 0.730E+01 0.229E+04   -.129E+02 -.740E+01 -.229E+04   -.775E-02 0.200E-01 0.459E-01   0.764E-02 0.168E-01 -.135E-01
   0.102E+02 0.438E+01 0.802E+03   -.104E+02 -.450E+01 -.802E+03   0.179E+00 0.809E-01 -.206E+00   0.750E-02 0.346E-01 0.775E-02
   -.521E+00 0.713E+00 -.752E+03   0.492E+00 -.753E+00 0.752E+03   0.706E-02 0.339E-01 0.463E+00   0.182E-01 0.252E-01 -.373E-02
   -.350E+02 -.367E+02 -.237E+04   0.358E+02 0.382E+02 0.237E+04   -.766E+00 -.153E+01 0.168E+01   0.154E-02 0.154E-01 0.123E-01
   -.282E+01 0.112E+02 0.230E+04   0.278E+01 -.114E+02 -.230E+04   0.252E-01 0.708E-01 0.174E-01   0.109E-01 0.212E-01 0.211E-02
   0.307E+01 -.142E+01 0.808E+03   -.307E+01 0.142E+01 -.808E+03   -.108E-01 0.117E-01 -.257E+00   0.466E-03 -.118E-02 0.120E-01
   0.294E+01 0.153E+01 -.795E+03   -.327E+01 -.187E+01 0.795E+03   0.303E+00 0.288E+00 0.241E+00   0.206E-01 0.461E-01 0.401E-02
   0.576E+01 -.314E+02 -.229E+04   -.571E+01 0.311E+02 0.229E+04   -.577E-01 0.300E+00 0.116E+00   0.506E-02 0.143E-01 0.354E-02
   0.110E+02 0.681E+01 0.231E+04   -.110E+02 -.691E+01 -.231E+04   -.500E-01 0.459E-02 -.135E+00   0.483E-02 0.220E-01 0.860E-02
   -.647E+00 0.440E+01 0.789E+03   0.627E+00 -.454E+01 -.789E+03   0.190E-02 0.140E+00 -.416E+00   0.205E-01 0.602E-02 0.964E-02
   0.340E+00 0.280E+00 -.714E+03   -.414E+00 -.348E+00 0.714E+03   0.672E-01 0.345E-01 0.443E+00   0.265E-02 0.279E-01 -.445E-02
   -.226E+02 -.191E+02 -.226E+04   0.223E+02 0.189E+02 0.227E+04   0.226E+00 0.241E+00 -.336E-01   0.108E-01 0.224E-01 -.877E-02
   0.118E+02 0.561E+01 0.231E+04   -.119E+02 -.554E+01 -.231E+04   -.374E-01 -.777E-01 -.189E+00   0.692E-02 0.143E-01 -.180E-02
   0.850E+01 0.111E+02 0.760E+03   -.860E+01 -.114E+02 -.760E+03   0.894E-01 0.242E+00 -.509E+00   0.159E-01 0.484E-01 0.543E-02
   0.348E+00 -.124E+00 -.708E+03   -.432E+00 0.162E+00 0.708E+03   0.750E-01 -.354E-01 0.408E+00   -.609E-02 0.581E-02 -.660E-02
   -.290E+02 -.106E+02 -.227E+04   0.287E+02 0.106E+02 0.227E+04   0.241E+00 0.272E-01 0.789E-01   0.111E-01 0.204E-01 -.234E-02
   0.166E+02 -.104E+02 -.268E+03   -.197E+02 0.124E+02 0.268E+03   0.316E+01 -.203E+01 -.441E+00   -.703E-03 0.653E-03 0.910E-03
   -.189E+02 0.118E+02 -.267E+03   0.220E+02 -.138E+02 0.267E+03   -.316E+01 0.203E+01 -.469E+00   -.111E-03 0.190E-03 0.110E-02
 -----------------------------------------------------------------------------------------------
   0.167E-01 -.183E-01 -.862E+00   0.995E-13 -.131E-11 0.188E-11   -.945E-02 0.136E-01 0.888E+00   -.898E-02 0.258E-02 -.956E-02
 
 
 POSITION                                       TOTAL-FORCE (eV/Angst)
 -----------------------------------------------------------------------------------
     10.55998      0.00001      1.11585         0.045242      0.072562     -0.066793
      2.63594      1.53651      3.58984        -0.001451      0.002501     -0.006413
      0.01537      3.04553      6.11700        -0.000951     -0.000584      0.009725
     -0.00189      0.00575      8.32930        -0.000487     -0.000313      0.009081
      9.23998      2.28632      1.11585         0.100823      0.056759      0.120888
      1.32483      3.80772      3.72747        -0.000324      0.000615      0.006350
      1.32813      0.79070      6.00516        -0.002053     -0.001689      0.006162
      9.23626      2.28423      8.40318        -0.001353     -0.002921      0.015714
      1.31998      2.28632      1.11585         0.006900      0.119627      0.194593
     -1.30082      3.80541      3.56452         0.002794     -0.001634     -0.007270
      3.95711      0.76818      5.93438         0.000016     -0.001605     -0.013531
      1.30760      2.27089      8.76668         0.001609     -0.001900      0.014619
      2.63998      0.00001      1.11585        -0.044212      0.062825     -0.082849
      0.01403      1.53621      3.59433        -0.000348      0.001591      0.012487
      2.62811      3.05608      6.13179        -0.001841      0.000102     -0.001190
     -2.64464      9.14423      8.36831        -0.000199      0.000507     -0.005745
      5.27998      0.00001      1.11585        -0.009216     -0.020478     -0.029084
      7.92727      1.52399      3.54712         0.001443     -0.000501      0.002512
      5.27361      3.04848      5.92899        -0.000592     -0.001209     -0.010824
     -0.00083      9.14488      8.36158        -0.000414     -0.000446     -0.000183
      3.95998      2.28632      1.11585        -0.120258      0.061703      0.121392
      6.60139      3.80520      3.51720        -0.000333     -0.000839     -0.002976
      6.59768      0.76336      5.93558         0.000891     -0.000286     -0.001013
      3.95848      2.28580      8.37653        -0.001460      0.000113     -0.013112
      6.59998      2.28632      1.11585         0.016458      0.011233     -0.039297
      3.94711      3.80833      3.58712        -0.002186      0.000006     -0.001540
      9.24251      0.76482      5.93241         0.001863     -0.000569      0.009790
      6.59845      2.28532      8.36120         0.000526      0.000078     -0.001839
      7.91998      0.00001      1.11585         0.008819     -0.005826     -0.032846
      5.27587      1.52639      3.53628         0.001008      0.000751     -0.008068
      7.92921      3.04451      5.92490         0.001625     -0.002101     -0.004298
      7.91581      0.00135      8.36462        -0.001574     -0.000127      0.009731
      7.91998      4.57263      1.11585         0.047744     -0.033823     -0.139799
      0.01454      6.08332      3.56586         0.004223     -0.001007     -0.004448
     -2.63478      7.62866      5.86876        -0.002719      0.001075     -0.016022
      7.91369      4.57363      8.31176         0.000928      0.001013     -0.011343
      6.59998      6.85894      1.11585        -0.011014      0.009469     -0.179691
     -1.31443      8.38515      3.52224         0.001464      0.000407     -0.009619
     -1.29867      5.32346      5.92866        -0.000889     -0.001793     -0.019704
      6.59384      6.86081      8.22780        -0.000194      0.000048     -0.024906
     -1.32002      6.85894      1.11585         0.054883     -0.018073     -0.131504
     -3.95681      8.39558      3.51284        -0.002118      0.003159     -0.005880
      1.32983      5.32343      6.12020         0.001502      0.001868      0.010828
     -1.32521      6.86187      8.32058        -0.001413      0.000345     -0.021949
     -0.00002      4.57263      1.11585         0.139259     -0.077853      0.173101
     -2.63196      6.09318      3.49319        -0.001068     -0.000395     -0.014084
      0.00817      7.61512      5.92905         0.002821     -0.002138     -0.003840
     -0.01757      4.58064      8.51407        -0.001599     -0.000076     -0.002074
      2.63998      4.57263      1.11585        -0.102881     -0.060679      0.200322
      5.27021      6.08849      3.51250        -0.001892     -0.000655     -0.003857
      2.63915      7.61709      5.93769        -0.000912      0.000272      0.007789
      2.64319      4.58829      8.76497         0.001276      0.000697      0.016523
      1.31998      6.85894      1.11585         0.001811     -0.117144      0.128200
      3.95706      8.38441      3.51008        -0.002328      0.001650      0.001583
      3.93904      5.31494      6.00877        -0.001862      0.000500      0.005374
      1.31902      6.86132      8.40884        -0.002768      0.003159      0.013367
      3.95998      6.85894      1.11585        -0.045603     -0.075531     -0.060596
      1.32363      8.37628      3.54814         0.001179      0.000654      0.005296
      6.59647      5.32756      5.86323        -0.001532     -0.001203     -0.013252
      3.95358      6.85635      8.34080        -0.000965      0.000680      0.002672
      5.27998      4.57263      1.11585        -0.080258      0.012397     -0.093091
      2.63635      6.07856      3.59995        -0.000480      0.001009      0.009540
      5.27223      7.62492      5.85551        -0.004352      0.003072     -0.008654
      5.27674      4.57464      8.36195        -0.000059      0.001312     -0.002225
      1.63317      3.66044     10.41802         0.022838      0.027830     -0.007235
      2.33156      3.20255     10.42248        -0.013791     -0.028190     -0.004994
 -----------------------------------------------------------------------------------
    total drift:                               -0.001692     -0.002084      0.016767


--------------------------------------------------------------------------------------------------------



  FREE ENERGIE OF THE ION-ELECTRON SYSTEM (eV)
  ---------------------------------------------------
  free  energy   TOTEN  =      -411.52295462 eV

  energy  without entropy=     -411.46345198  energy(sigma->0) =     -411.50312041
 
 d Force =-0.8423444E-03[-0.802E-03,-0.883E-03]  d Energy =-0.9191557E-03 0.768E-04
 d Force = 0.4795280E+01[ 0.480E+01, 0.479E+01]  d Ewald  = 0.4795284E+01-0.326E-05


--------------------------------------------------------------------------------------------------------


    POTLOK:  cpu time    0.4426: real time    0.4475


--------------------------------------------------------------------------------------------------------


 NEB: the previous image is higher in energy: F
 NEB: the next image is higher in energy    : F
 NEB: image is at an extrema
 NEB: diff energy (min, max):     0.202041    0.634866

 NEB: Tangent
 ----------------------------------------------
      0.00000      0.00000      0.00000
      0.00291     -0.00680     -0.01342
     -0.01643      0.00120     -0.07752
     -0.00871     -0.01236      0.01862
      0.00000      0.00000      0.00000
     -0.00206     -0.00040     -0.09364
     -0.00603     -0.02055     -0.02890
     -0.00783      0.00342      0.00915
      0.00000      0.00000      0.00000
     -0.00814     -0.00038     -0.00109
      0.00417     -0.00594      0.00191
     -0.00040      0.02223     -0.37585
      0.00000      0.00000      0.00000
     -0.00790     -0.00664     -0.01789
      0.00567     -0.00510     -0.08589
      0.00412      0.00172      0.01206
      0.00000      0.00000      0.00000
     -0.00333     -0.00048     -0.00185
      0.00645     -0.00108      0.00431
     -0.00217      0.00257      0.00625
      0.00000      0.00000      0.00000
      0.00026     -0.00261      0.00883
      0.00150     -0.00054      0.00129
      0.00196      0.00054      0.00302
      0.00000      0.00000      0.00000
      0.00629     -0.00135     -0.01535
     -0.00663     -0.00137      0.00619
     -0.00142      0.00362      0.00960
      0.00000      0.00000      0.00000
      0.00295     -0.00256      0.00332
     -0.00568      0.00262      0.01017
     -0.00311      0.00342      0.01700
      0.00000      0.00000      0.00000
     -0.00557      0.00546     -0.00334
     -0.00344     -0.00333      0.01883
     -0.00185      0.00386      0.02893
      0.00000      0.00000      0.00000
      0.00097     -0.00072      0.00461
     -0.01942      0.00981      0.00225
      0.00236      0.00051      0.05476
      0.00000      0.00000      0.00000
     -0.00089     -0.00546      0.00825
     -0.01043      0.01441     -0.08812
     -0.00254      0.00284      0.02461
      0.00000      0.00000      0.00000
     -0.00258     -0.00056      0.01377
     -0.00614      0.00350      0.00671
      0.00866     -0.00277     -0.08642
      0.00000      0.00000      0.00000
      0.00453      0.00164      0.00875
     -0.00217      0.00580      0.00367
     -0.01762     -0.01020     -0.38805
      0.00000      0.00000      0.00000
     -0.00032     -0.00054      0.01309
      0.01552      0.01481     -0.03721
     -0.00578      0.00757      0.00307
      0.00000      0.00000      0.00000
     -0.00195      0.00200     -0.00148
      0.00072      0.00298      0.02420
      0.00717      0.01559      0.01611
      0.00000      0.00000      0.00000
      0.00129      0.00909     -0.02624
      0.00304     -0.00139      0.02509
      0.00242     -0.00119      0.01471
      0.17609     -0.09469      0.55175
     -0.09780      0.06033      0.54450

 NEB: forces: par spring, perp REAL, dneb     0.987798    0.084250    0.000000
 NEB: distance to prev, next image, angle between     0.750501    0.552942  148.090127
 NEB: projections on to tangent (spring, REAL)    -0.987798   -0.023609

 stress matrix after NEB project (eV)
     79.52424     -0.13374     -0.01036
     -0.13374     79.50349      0.00521
     -0.01036      0.00521     -2.02523
  FORCES: max atom, RMS     0.043246    0.010770
  FORCE total and by dimension    0.087495    0.031152
  Stress total and by dimension  112.467982   79.524236
 Quasi-Newton relaxation of ions (Broydens 2nd method)
  g(Force)  = 0.773E-03   g(Stress)= 0.000E+00

 retain information from N=  1 steps
 eigenvalues of (default step * inverse Hessian matrix)
  average eigenvalue of G=   6.4376
 eigenvalue spectrum of G is  6.4376


--------------------------------------------------------------------------------------------------------


  
 reached required accuracy - stopping structural energy minimisation
     LOOP+:  cpu time  291.8136: real time  292.7475
    4ORBIT:  cpu time    0.0000: real time    0.0000

 total amount of memory used by VASP MPI-rank0   328535. kBytes
=======================================================================

   base      :      30000. kBytes
   nonlr-proj:      89557. kBytes
   fftplans  :      13334. kBytes
   grid      :     112154. kBytes
   one-center:       2052. kBytes
   wavefun   :      81438. kBytes
 
  
  
 General timing and accounting informations for this job:
 ========================================================
  
                  Total CPU time used (sec):     4196.896
                            User time (sec):     4168.809
                          System time (sec):       28.087
                         Elapsed time (sec):     4232.039
  
                   Maximum memory used (kb):      616456.
                   Average memory used (kb):           0.
  
                          Minor page faults:      1158808
                          Major page faults:            0
                 Voluntary context switches:        20359
