 vasp.5.4.4.18Apr17-6-g9f103f2a35 (build Nov 30 2020 22:55:02) complex          
  
 executed on             LinuxIFC date 2023.08.05  22:43:46
 running on   40 total cores
 distrk:  each k-point on   40 cores,    1 groups
 distr:  one band on NCORES_PER_BAND=   4 cores,   10 groups


--------------------------------------------------------------------------------------------------------


 INCAR:
 POTCAR:    PAW_PBE Pt 04Feb2005                  
 POTCAR:    PAW_PBE Cu 22Jun2005                  
 POTCAR:    PAW_PBE Ni 02Aug2007                  
 POTCAR:    PAW_PBE Fe 06Sep2000                  
 POTCAR:    PAW_PBE Co 02Aug2007                  
 POTCAR:    PAW_PBE H 15Jun2001                   
 POTCAR:    PAW_PBE Pt 04Feb2005                  
   VRHFIN =Pt: s1d9                                                             
   LEXCH  = PE                                                                  
   EATOM  =   729.1176 eV,   53.5886 Ry                                         
                                                                                
   TITEL  = PAW_PBE Pt 04Feb2005                                                
   LULTRA =        F    use ultrasoft PP ?                                      
   IUNSCR =        1    unscreen: 0-lin 1-nonlin 2-no                           
   RPACOR =    2.330    partial core radius                                     
   POMASS =  195.080; ZVAL   =   10.000    mass and valenz                      
   RCORE  =    2.600    outmost cutoff radius                                   
   RWIGS  =    2.750; RWIGS  =    1.455    wigner-seitz radius (au A)           
   ENMAX  =  230.283; ENMIN  =  172.712 eV                                      
   ICORE  =        3    local potential                                         
   LCOR   =        T    correct aug charges                                     
   LPAW   =        T    paw PP                                                  
   EAUG   =  358.966                                                            
   DEXC   =    0.000                                                            
   RMAX   =    2.658    core radius for proj-oper                               
   RAUG   =    1.300    factor for augmentation sphere                          
   RDEP   =    2.761    radius for radial grids                                 
   RDEPT  =    2.203    core radius for aug-charge                              
                                                                                
   Atomic configuration                                                         
   16 entries                                                                   
     n  l   j            E        occ.                                          
     1  0  0.50    -78401.1885   2.0000                                         
     2  0  0.50    -13770.7750   2.0000                                         
     2  1  1.50    -11931.0468   6.0000                                         
     3  0  0.50     -3234.7234   2.0000                                         
     3  1  1.50     -2699.2216   6.0000                                         
     3  2  2.50     -2119.5714  10.0000                                         
     4  0  0.50      -695.1528   2.0000                                         
     4  1  1.50      -519.6034   6.0000                                         
     4  2  2.50      -306.6786  10.0000                                         
     4  3  3.50       -70.1041  14.0000                                         
     5  0  0.50      -101.7747   2.0000                                         
     5  1  1.50       -55.9873   6.0000                                         
     5  2  2.50        -6.1423   9.0000                                         
     6  0  0.50        -5.6573   1.0000                                         
     6  1  1.50        -6.8029   0.0000                                         
     5  3  2.50        -1.3606   0.0000                                         
   Description                                                                  
     l       E           TYP  RCUT    TYP  RCUT                                 
     2     -6.1423404     23  2.500                                             
     2     -7.5029230     23  2.500                                             
     0     -5.6573207     23  2.500                                             
     0      0.7416693     23  2.500                                             
     1     -2.7211652     23  2.600                                             
     1     20.4087390     23  2.600                                             
     3     -1.3605826     23  2.500                                             
  local pseudopotential read in
  partial core-charges read in
  partial kinetic energy density read in
  atomic valenz-charges read in
  non local Contribution for L=           2  read in
    real space projection operators read in
  non local Contribution for L=           2  read in
    real space projection operators read in
  non local Contribution for L=           0  read in
    real space projection operators read in
  non local Contribution for L=           0  read in
    real space projection operators read in
  non local Contribution for L=           1  read in
    real space projection operators read in
  non local Contribution for L=           1  read in
    real space projection operators read in
    PAW grid and wavefunctions read in
 
   number of l-projection  operators is LMAX  =           6
   number of lm-projection operators is LMMAX =          18
 
 POTCAR:    PAW_PBE Cu 22Jun2005                  
   VRHFIN =Cu: d10 p1                                                           
   LEXCH  = PE                                                                  
   EATOM  =  1390.9808 eV,  102.2342 Ry                                         
                                                                                
   TITEL  = PAW_PBE Cu 22Jun2005                                                
   LULTRA =        F    use ultrasoft PP ?                                      
   IUNSCR =        1    unscreen: 0-lin 1-nonlin 2-no                           
   RPACOR =    2.000    partial core radius                                     
   POMASS =   63.546; ZVAL   =   11.000    mass and valenz                      
   RCORE  =    2.300    outmost cutoff radius                                   
   RWIGS  =    2.200; RWIGS  =    1.164    wigner-seitz radius (au A)           
   ENMAX  =  295.446; ENMIN  =  221.585 eV                                      
   ICORE  =        3    local potential                                         
   LCOR   =        T    correct aug charges                                     
   LPAW   =        T    paw PP                                                  
   EAUG   =  586.980                                                            
   DEXC   =    0.000                                                            
   RMAX   =    2.344    core radius for proj-oper                               
   RAUG   =    1.300    factor for augmentation sphere                          
   RDEP   =    2.302    radius for radial grids                                 
   RDEPT  =    1.771    core radius for aug-charge                              
                                                                                
   Atomic configuration                                                         
    9 entries                                                                   
     n  l   j            E        occ.                                          
     1  0  0.50     -8850.2468   2.0000                                         
     2  0  0.50     -1062.3498   2.0000                                         
     2  1  1.50      -916.8226   6.0000                                         
     3  0  0.50      -114.6929   2.0000                                         
     3  1  1.50       -72.1325   6.0000                                         
     3  2  2.50        -5.0394  10.0000                                         
     4  0  0.50        -4.6097   1.0000                                         
     4  1  0.50        -4.0817   0.0000                                         
     4  3  2.50        -1.3606   0.0000                                         
   Description                                                                  
     l       E           TYP  RCUT    TYP  RCUT                                 
     2     -5.0393973     23  2.200                                             
     2     10.8846608     23  2.200                                             
     0     -4.6097109     23  2.200                                             
     0      8.2520465     23  2.200                                             
     1     -2.7211652     23  2.200                                             
     1     21.7055443     23  2.200                                             
     3      2.7211652     23  2.300                                             
  local pseudopotential read in
  partial core-charges read in
  partial kinetic energy density read in
  atomic valenz-charges read in
  non local Contribution for L=           2  read in
    real space projection operators read in
  non local Contribution for L=           2  read in
    real space projection operators read in
  non local Contribution for L=           0  read in
    real space projection operators read in
  non local Contribution for L=           0  read in
    real space projection operators read in
  non local Contribution for L=           1  read in
    real space projection operators read in
  non local Contribution for L=           1  read in
    real space projection operators read in
    PAW grid and wavefunctions read in
 
   number of l-projection  operators is LMAX  =           6
   number of lm-projection operators is LMMAX =          18
 
 POTCAR:    PAW_PBE Ni 02Aug2007                  
   VRHFIN =Ni:                                                                  
   LEXCH  = PE                                                                  
   EATOM  =  1077.6739 eV,   79.2068 Ry                                         
                                                                                
   TITEL  = PAW_PBE Ni 02Aug2007                                                
   LULTRA =        F    use ultrasoft PP ?                                      
   IUNSCR =        1    unscreen: 0-lin 1-nonlin 2-no                           
   RPACOR =    2.000    partial core radius                                     
   POMASS =   58.690; ZVAL   =   10.000    mass and valenz                      
   RCORE  =    2.300    outmost cutoff radius                                   
   RWIGS  =    2.430; RWIGS  =    1.286    wigner-seitz radius (au A)           
   ENMAX  =  269.532; ENMIN  =  202.149 eV                                      
   RCLOC  =    1.201    cutoff for local pot                                    
   LCOR   =        T    correct aug charges                                     
   LPAW   =        T    paw PP                                                  
   EAUG   =  544.565                                                            
   DEXC   =    0.000                                                            
   RMAX   =    2.357    core radius for proj-oper                               
   RAUG   =    1.300    factor for augmentation sphere                          
   RDEP   =    2.390    radius for radial grids                                 
   RDEPT  =    1.838    core radius for aug-charge                              
                                                                                
   Atomic configuration                                                         
    9 entries                                                                   
     n  l   j            E        occ.                                          
     1  0  0.50     -8206.4253   2.0000                                         
     2  0  0.50      -976.1748   2.0000                                         
     2  1  1.50      -839.0571   6.0000                                         
     3  0  0.50      -105.9991   2.0000                                         
     3  1  1.50       -66.4603   6.0000                                         
     3  2  2.50        -4.6458   9.0000                                         
     4  0  0.50        -4.4926   1.0000                                         
     4  1  1.50        -4.0817   0.0000                                         
     4  3  2.50        -1.3606   0.0000                                         
   Description                                                                  
     l       E           TYP  RCUT    TYP  RCUT                                 
     2     -4.6457903     23  2.300                                             
     2     -6.0063729     23  2.300                                             
     0     -4.4925590     23  2.300                                             
     0      5.0102601     23  2.300                                             
     1     -2.7211652     23  2.300                                             
     1     16.5183231     23  2.300                                             
  local pseudopotential read in
  partial core-charges read in
  partial kinetic energy density read in
  atomic valenz-charges read in
  non local Contribution for L=           2  read in
    real space projection operators read in
  non local Contribution for L=           2  read in
    real space projection operators read in
  non local Contribution for L=           0  read in
    real space projection operators read in
  non local Contribution for L=           0  read in
    real space projection operators read in
  non local Contribution for L=           1  read in
    real space projection operators read in
  non local Contribution for L=           1  read in
    real space projection operators read in
    PAW grid and wavefunctions read in
 
   number of l-projection  operators is LMAX  =           6
   number of lm-projection operators is LMMAX =          18
 
 POTCAR:    PAW_PBE Fe 06Sep2000                  
   VRHFIN =Fe:  d7 s1                                                           
   LEXCH  = PE                                                                  
   EATOM  =   594.3153 eV,   43.6809 Ry                                         
                                                                                
   TITEL  = PAW_PBE Fe 06Sep2000                                                
   LULTRA =        F    use ultrasoft PP ?                                      
   IUNSCR =        1    unscreen: 0-lin 1-nonlin 2-no                           
   RPACOR =    2.000    partial core radius                                     
   POMASS =   55.847; ZVAL   =    8.000    mass and valenz                      
   RCORE  =    2.300    outmost cutoff radius                                   
   RWIGS  =    2.460; RWIGS  =    1.302    wigner-seitz radius (au A)           
   ENMAX  =  267.882; ENMIN  =  200.911 eV                                      
   RCLOC  =    1.701    cutoff for local pot                                    
   LCOR   =        T    correct aug charges                                     
   LPAW   =        T    paw PP                                                  
   EAUG   =  511.368                                                            
   DEXC   =    0.000                                                            
   RMAX   =    2.356    core radius for proj-oper                               
   RAUG   =    1.300    factor for augmentation sphere                          
   RDEP   =    2.442    radius for radial grids                                 
   RDEPT  =    1.890    core radius for aug-charge                              
                                                                                
   Atomic configuration                                                         
    9 entries                                                                   
     n  l   j            E        occ.                                          
     1  0  0.50     -6993.8440   2.0000                                         
     2  0  0.50      -814.6047   2.0000                                         
     2  1  1.50      -693.3689   6.0000                                         
     3  0  0.50       -89.4732   2.0000                                         
     3  1  1.50       -55.6373   6.0000                                         
     3  2  2.50        -3.8151   7.0000                                         
     4  0  0.50        -4.2551   1.0000                                         
     4  1  1.50        -3.4015   0.0000                                         
     4  3  2.50        -1.3606   0.0000                                         
   Description                                                                  
     l       E           TYP  RCUT    TYP  RCUT                                 
     2     -3.8151135     23  2.300                                             
     2     -5.1756961     23  2.300                                             
     0     -4.2550963     23  2.300                                             
     0      7.2035603     23  2.300                                             
     1     -2.7211652     23  2.300                                             
     1     18.4316424     23  2.300                                             
  local pseudopotential read in
  partial core-charges read in
  partial kinetic energy density read in
  atomic valenz-charges read in
  non local Contribution for L=           2  read in
    real space projection operators read in
  non local Contribution for L=           2  read in
    real space projection operators read in
  non local Contribution for L=           0  read in
    real space projection operators read in
  non local Contribution for L=           0  read in
    real space projection operators read in
  non local Contribution for L=           1  read in
    real space projection operators read in
  non local Contribution for L=           1  read in
    real space projection operators read in
    PAW grid and wavefunctions read in
 
   number of l-projection  operators is LMAX  =           6
   number of lm-projection operators is LMMAX =          18
 
 POTCAR:    PAW_PBE Co 02Aug2007                  
   VRHFIN =Co: d8 s1                                                            
   LEXCH  = PE                                                                  
   EATOM  =   813.3670 eV,   59.7808 Ry                                         
                                                                                
   TITEL  = PAW_PBE Co 02Aug2007                                                
   LULTRA =        F    use ultrasoft PP ?                                      
   IUNSCR =        1    unscreen: 0-lin 1-nonlin 2-no                           
   RPACOR =    2.000    partial core radius                                     
   POMASS =   58.933; ZVAL   =    9.000    mass and valenz                      
   RCORE  =    2.300    outmost cutoff radius                                   
   RWIGS  =    2.460; RWIGS  =    1.302    wigner-seitz radius (au A)           
   ENMAX  =  267.968; ENMIN  =  200.976 eV                                      
   RCLOC  =    1.203    cutoff for local pot                                    
   LCOR   =        T    correct aug charges                                     
   LPAW   =        T    paw PP                                                  
   EAUG   =  477.818                                                            
   DEXC   =    0.000                                                            
   RMAX   =    2.360    core radius for proj-oper                               
   RAUG   =    1.300    factor for augmentation sphere                          
   RDEP   =    2.393    radius for radial grids                                 
   RDEPT  =    1.864    core radius for aug-charge                              
                                                                                
   Atomic configuration                                                         
    9 entries                                                                   
     n  l   j            E        occ.                                          
     1  0  0.50     -7587.6674   2.0000                                         
     2  0  0.50      -893.6084   2.0000                                         
     2  1  1.50      -764.5805   6.0000                                         
     3  0  0.50       -97.5973   2.0000                                         
     3  1  1.50       -60.9648   6.0000                                         
     3  2  2.50        -4.2382   8.0000                                         
     4  0  0.50        -4.3746   1.0000                                         
     4  1  1.50        -4.0817   0.0000                                         
     4  3  2.50        -1.3606   0.0000                                         
   Description                                                                  
     l       E           TYP  RCUT    TYP  RCUT                                 
     2     -4.2382362     23  2.300                                             
     2     -5.5988188     23  2.300                                             
     0     -4.3745797     23  2.300                                             
     0      5.7660125     23  2.300                                             
     1     -2.7211652     23  2.300                                             
     1     16.9860234     23  2.300                                             
  local pseudopotential read in
  partial core-charges read in
  partial kinetic energy density read in
  atomic valenz-charges read in
  non local Contribution for L=           2  read in
    real space projection operators read in
  non local Contribution for L=           2  read in
    real space projection operators read in
  non local Contribution for L=           0  read in
    real space projection operators read in
  non local Contribution for L=           0  read in
    real space projection operators read in
  non local Contribution for L=           1  read in
    real space projection operators read in
  non local Contribution for L=           1  read in
    real space projection operators read in
    PAW grid and wavefunctions read in
 
   number of l-projection  operators is LMAX  =           6
   number of lm-projection operators is LMMAX =          18
 
 POTCAR:    PAW_PBE H 15Jun2001                   
   VRHFIN =H: ultrasoft test                                                    
   LEXCH  = PE                                                                  
   EATOM  =    12.4884 eV,    0.9179 Ry                                         
                                                                                
   TITEL  = PAW_PBE H 15Jun2001                                                 
   LULTRA =        F    use ultrasoft PP ?                                      
   IUNSCR =        0    unscreen: 0-lin 1-nonlin 2-no                           
   RPACOR =    0.000    partial core radius                                     
   POMASS =    1.000; ZVAL   =    1.000    mass and valenz                      
   RCORE  =    1.100    outmost cutoff radius                                   
   RWIGS  =    0.700; RWIGS  =    0.370    wigner-seitz radius (au A)           
   ENMAX  =  250.000; ENMIN  =  200.000 eV                                      
   RCLOC  =    0.701    cutoff for local pot                                    
   LCOR   =        T    correct aug charges                                     
   LPAW   =        T    paw PP                                                  
   EAUG   =  400.000                                                            
   RMAX   =    1.123    core radius for proj-oper                               
   RAUG   =    1.200    factor for augmentation sphere                          
   RDEP   =    1.112    radius for radial grids                                 
   RDEPT  =    0.926    core radius for aug-charge                              
                                                                                
   Atomic configuration                                                         
    2 entries                                                                   
     n  l   j            E        occ.                                          
     1  0  0.50        -6.4927   1.0000                                         
     2  1  0.50        -3.4015   0.0000                                         
   Description                                                                  
     l       E           TYP  RCUT    TYP  RCUT                                 
     0     -6.4927494     23  1.100                                             
     0      6.8029130     23  1.100                                             
     1     -4.0817478     23  1.100                                             
  local pseudopotential read in
  atomic valenz-charges read in
  non local Contribution for L=           0  read in
    real space projection operators read in
  non local Contribution for L=           0  read in
    real space projection operators read in
  non local Contribution for L=           1  read in
    real space projection operators read in
    PAW grid and wavefunctions read in
 
   number of l-projection  operators is LMAX  =           3
   number of lm-projection operators is LMMAX =           5
 
 Optimization of the real space projectors (new method)

 maximal supplied QI-value         = 14.36
 optimisation between [QCUT,QGAM] = [ 11.92, 23.98] = [ 39.79,161.09] Ry 
 Optimized for a Real-space Cutoff    1.49 Angstroem

   l    n(q)    QCUT    max X(q) W(low)/X(q) W(high)/X(q)  e(spline) 
   2     10    11.920    66.195    0.79E-04    0.18E-03    0.24E-06
   2     10    11.920    64.643    0.81E-04    0.19E-03    0.24E-06
   0     11    11.920    95.520    0.28E-04    0.54E-04    0.18E-06
   0     11    11.920    63.403    0.27E-04    0.52E-04    0.17E-06
   1     10    11.920    19.961    0.18E-04    0.11E-03    0.23E-06
   1     10    11.920    13.289    0.25E-04    0.87E-04    0.19E-06
 Optimization of the real space projectors (new method)

 maximal supplied QI-value         = 16.25
 optimisation between [QCUT,QGAM] = [ 11.86, 23.89] = [ 39.41,159.82] Ry 
 Optimized for a Real-space Cutoff    1.49 Angstroem

   l    n(q)    QCUT    max X(q) W(low)/X(q) W(high)/X(q)  e(spline) 
   2     10    11.864     4.610    0.10E-03    0.20E-03    0.29E-06
   2     10    11.864     8.522    0.17E-03    0.33E-03    0.50E-06
   0     11    11.864    51.609    0.52E-04    0.55E-04    0.33E-06
   0     11    11.864    27.747    0.46E-04    0.52E-04    0.31E-06
   1     10    11.864    20.408    0.54E-04    0.25E-04    0.21E-06
   1     10    11.864    13.425    0.48E-04    0.22E-04    0.18E-06
 Optimization of the real space projectors (new method)

 maximal supplied QI-value         = 16.25
 optimisation between [QCUT,QGAM] = [ 11.86, 23.89] = [ 39.41,159.82] Ry 
 Optimized for a Real-space Cutoff    1.33 Angstroem

   l    n(q)    QCUT    max X(q) W(low)/X(q) W(high)/X(q)  e(spline) 
   2      9    11.864    60.317    0.21E-03    0.51E-03    0.25E-06
   2      9    11.864    55.921    0.21E-03    0.51E-03    0.26E-06
   0      9    11.864    51.690    0.22E-03    0.30E-04    0.17E-06
   0      9    11.864    30.015    0.20E-03    0.28E-04    0.15E-06
   1      9    11.864    18.849    0.76E-04    0.33E-03    0.17E-06
   1      9    11.864    14.624    0.60E-04    0.28E-03    0.15E-06
 Optimization of the real space projectors (new method)

 maximal supplied QI-value         = 16.25
 optimisation between [QCUT,QGAM] = [ 11.86, 23.89] = [ 39.41,159.82] Ry 
 Optimized for a Real-space Cutoff    1.49 Angstroem

   l    n(q)    QCUT    max X(q) W(low)/X(q) W(high)/X(q)  e(spline) 
   2     10    11.864    80.901    0.13E-03    0.23E-03    0.37E-06
   2     10    11.864    75.754    0.13E-03    0.23E-03    0.38E-06
   0     11    11.864    58.752    0.44E-04    0.11E-04    0.20E-06
   0     11    11.864    30.679    0.36E-04    0.10E-04    0.18E-06
   1     10    11.864    17.977    0.31E-04    0.45E-04    0.10E-06
   1     10    11.864    13.559    0.25E-04    0.37E-04    0.89E-07
 Optimization of the real space projectors (new method)

 maximal supplied QI-value         = 16.25
 optimisation between [QCUT,QGAM] = [ 11.86, 23.89] = [ 39.41,159.82] Ry 
 Optimized for a Real-space Cutoff    1.33 Angstroem

   l    n(q)    QCUT    max X(q) W(low)/X(q) W(high)/X(q)  e(spline) 
   2      9    11.864    65.824    0.22E-03    0.53E-03    0.26E-06
   2      9    11.864    61.429    0.22E-03    0.53E-03    0.26E-06
   0      9    11.864    56.174    0.21E-03    0.32E-04    0.15E-06
   0      9    11.864    31.263    0.19E-03    0.30E-04    0.14E-06
   1      9    11.864    19.828    0.63E-04    0.30E-03    0.16E-06
   1      9    11.864    15.139    0.49E-04    0.25E-03    0.13E-06
 Optimization of the real space projectors (new method)

 maximal supplied QI-value         = 34.20
 optimisation between [QCUT,QGAM] = [ 11.97, 23.94] = [ 40.13,160.53] Ry 
 Optimized for a Real-space Cutoff    1.18 Angstroem

   l    n(q)    QCUT    max X(q) W(low)/X(q) W(high)/X(q)  e(spline) 
   0      8    11.971    19.460    0.15E-03    0.31E-03    0.25E-06
   0      8    11.971    12.209    0.13E-03    0.29E-03    0.25E-06
   1      8    11.971     4.655    0.22E-03    0.24E-03    0.21E-06
  PAW_PBE Pt 04Feb2005                  :
 energy of atom  1       EATOM= -729.1176
 kinetic energy error for atom=    0.0021 (will be added to EATOM!!)
  PAW_PBE Cu 22Jun2005                  :
 energy of atom  2       EATOM=-1390.9808
 kinetic energy error for atom=    0.0036 (will be added to EATOM!!)
  PAW_PBE Ni 02Aug2007                  :
 energy of atom  3       EATOM=-1077.6739
 kinetic energy error for atom=    0.0027 (will be added to EATOM!!)
  PAW_PBE Fe 06Sep2000                  :
 energy of atom  4       EATOM= -594.3153
 kinetic energy error for atom=    0.0024 (will be added to EATOM!!)
  PAW_PBE Co 02Aug2007                  :
 energy of atom  5       EATOM= -813.3670
 kinetic energy error for atom=    0.0026 (will be added to EATOM!!)
  PAW_PBE H 15Jun2001                   :
 energy of atom  6       EATOM=  -12.4884
 kinetic energy error for atom=    0.0008 (will be added to EATOM!!)
 
 
 POSCAR: 10.56                                   
  positions in direct lattice
  velocities in cartesian coordinates
 exchange correlation table for  LEXCH =        8
   RHO(1)=    0.500       N(1)  =     2000
   RHO(2)=  100.500       N(2)  =     4000
 


--------------------------------------------------------------------------------------------------------


 ion  position               nearest neighbor table
   1  0.789  0.876  0.317-  49 2.57  59 2.58  19 2.62  61 2.65  60 2.66  33 2.67  29 2.67  28 2.71
                             2 2.72   4 2.82  12 2.84  11 2.90
   2  0.044  0.880  0.316-  79 2.55  77 2.57  60 2.61  30 2.64  22 2.65  28 2.66  52 2.68   1 2.72
                            33 2.73   6 2.76   4 2.82  16 2.87
   3  0.288  0.375  0.321-  39 2.60  64 2.61  33 2.61  68 2.65  31 2.66  19 2.67  43 2.68  30 2.72
                             5 2.76  18 2.78  25 2.81  13 2.91
   4  0.879  0.957  0.424-  16 2.63  12 2.65   6 2.65  17 2.65  11 2.65   9 2.65  60 2.70   2 2.82
                             1 2.82
   5  0.127  0.457  0.427-  13 2.62   7 2.63  10 2.63  12 2.63  16 2.65  25 2.65   3 2.76  39 2.79
                            33 2.79
   6  0.128  0.958  0.422-   8 2.61  10 2.63  14 2.64   4 2.65   9 2.65  16 2.65   2 2.76  52 2.82
                            22 2.88
   7  0.878  0.457  0.423-   9 2.63   5 2.63  15 2.63  10 2.63  12 2.63  27 2.66  39 2.70  29 2.73
                            75 2.77
   8  0.376  0.956  0.417-   6 2.61  14 2.62  43 2.62  27 2.63  10 2.65  52 2.65  61 2.66  11 2.67
                            13 2.69
   9  0.877  0.209  0.422-  17 2.62   7 2.63  15 2.64  10 2.64   6 2.65   4 2.65  60 2.65  75 2.72
                            22 2.83
  10  0.127  0.208  0.423-   6 2.63  13 2.63   7 2.63   5 2.63   9 2.64   8 2.65  43 2.73  39 2.73
                            22 2.82
  11  0.628  0.957  0.430-  81 1.76  12 2.64  27 2.64   4 2.65  17 2.67  13 2.67   8 2.67   1 2.90
                            19 2.93  61 2.94
  12  0.877  0.707  0.425-   5 2.63   7 2.63  16 2.64  11 2.64   4 2.65  27 2.65  33 2.75  29 2.82
                             1 2.84
  13  0.375  0.209  0.434-  81 1.75   5 2.62  10 2.63  25 2.66  11 2.67   8 2.69  17 2.69   3 2.91
                            43 2.97  19 3.00
  14  0.378  0.708  0.427-  27 2.62   8 2.62  25 2.63   6 2.64  15 2.64  16 2.65  44 2.76  30 2.79
                            52 2.88
  15  0.628  0.459  0.424-  27 2.62   7 2.63  17 2.64   9 2.64  14 2.64  25 2.65  44 2.76  18 2.78
                            75 2.80
  16  0.127  0.708  0.425-   4 2.63  25 2.63  12 2.64   5 2.65  14 2.65   6 2.65  33 2.77  30 2.78
                             2 2.87
  17  0.629  0.209  0.424-   9 2.62  15 2.64   4 2.65  25 2.66  11 2.67  60 2.68  13 2.69  18 2.76
                            19 2.88
  18  0.554  0.370  0.318-  67 2.53  75 2.55  60 2.57  68 2.60  44 2.68  26 2.68  19 2.73  30 2.75
                            17 2.76   3 2.78  15 2.78  25 2.91
  19  0.538  0.120  0.316-  59 2.55  80 2.55  68 2.57  43 2.59  61 2.61   1 2.62   3 2.67  18 2.73
                            60 2.74  17 2.88  11 2.93  13 3.00
  20  0.547  0.122  0.038-  57 2.54  37 2.59  48 2.60  62 2.60  47 2.60  34 2.65  45 2.68  63 2.71
                            56 2.75
  21  0.124  0.462  0.127-  36 2.55  47 2.57  40 2.58  58 2.61  42 2.61  64 2.63  31 2.66  69 2.66
                            50 2.67  74 2.69  70 2.69  57 2.69
  22  0.041  0.134  0.313-  65 2.47  75 2.54  55 2.54  77 2.57  39 2.59  43 2.59  60 2.65   2 2.65
                            52 2.74  10 2.82   9 2.83   6 2.88
  23  0.032  0.135  0.034-  70 2.57  62 2.59  40 2.59  41 2.60  76 2.63  45 2.70  24 2.70  35 2.71
                            53 2.86
  24  0.127  0.955  0.132-  79 2.52  55 2.55  53 2.61  35 2.62  77 2.62  58 2.62  73 2.64  70 2.65
                            38 2.67  66 2.68  23 2.70  41 2.74
  25  0.376  0.460  0.427-  16 2.63  14 2.63  15 2.65   5 2.65  17 2.66  13 2.66   3 2.81  30 2.84
                            18 2.91
  26  0.458  0.546  0.220-  73 2.50  74 2.51  51 2.53  79 2.60  64 2.61  30 2.65  68 2.66  18 2.68
                            32 2.69  44 2.70  78 2.71  67 2.74
  27  0.626  0.708  0.424-  14 2.62  15 2.62   8 2.63  11 2.64  12 2.65   7 2.66  44 2.70  29 2.75
                            61 2.78
  28  0.964  0.793  0.218-  66 2.54  50 2.56  58 2.58  77 2.63  42 2.64  64 2.65   2 2.66  79 2.68
                            59 2.70   1 2.71  49 2.75  33 2.75
  29  0.790  0.622  0.319-  42 2.59  44 2.60  32 2.61  39 2.61  75 2.64  61 2.65  33 2.66  49 2.66
                             1 2.67   7 2.73  27 2.75  12 2.82
  30  0.294  0.630  0.319-  79 2.57  64 2.60  44 2.61  52 2.62   2 2.64  26 2.65  33 2.70   3 2.72
                            18 2.75  16 2.78  14 2.79  25 2.84
  31  0.211  0.284  0.223-  57 2.55  70 2.55  65 2.59  43 2.61  55 2.61  80 2.64  21 2.66  39 2.66
                             3 2.66  68 2.67  42 2.71  64 2.72
  32  0.717  0.537  0.221-  69 2.51  54 2.56  51 2.57  65 2.60  29 2.61  42 2.61  67 2.64  75 2.64
                            49 2.68  26 2.69  44 2.74  78 2.78
  33  0.042  0.623  0.321-  42 2.57  39 2.59   3 2.61  64 2.63  29 2.66   1 2.67  30 2.70   2 2.73
                            12 2.75  28 2.75  16 2.77   5 2.79
  34  0.797  0.870  0.037-  50 2.48  66 2.50  36 2.54  48 2.61  35 2.62  63 2.64  71 2.65  20 2.65
                            62 2.72
  35  0.044  0.872  0.035-  58 2.56  36 2.57  66 2.61  24 2.62  34 2.62  72 2.70  23 2.71  62 2.72
                            53 2.74
  36  0.039  0.631  0.035-  58 2.54  34 2.54  21 2.55  35 2.57  50 2.59  40 2.68  71 2.72  72 2.76
                            47 2.78
  37  0.626  0.214  0.133-  68 2.52  59 2.52  67 2.52  41 2.56  51 2.57  56 2.58  66 2.59  20 2.59
                            74 2.60  62 2.60  57 2.64  48 2.76
  38  0.376  0.961  0.131-  80 2.47  53 2.51  55 2.53  78 2.53  63 2.53  45 2.55  54 2.58  48 2.61
                            57 2.62  24 2.67  70 2.69  73 2.69
  39  0.041  0.378  0.321-  33 2.59  22 2.59   3 2.60  42 2.60  29 2.61  75 2.63  31 2.66  65 2.66
                             7 2.70  43 2.70  10 2.73   5 2.79
  40  0.040  0.377  0.033-  69 2.55  21 2.58  23 2.59  76 2.61  70 2.61  45 2.66  71 2.67  36 2.68
                            47 2.81
  41  0.868  0.215  0.131-  67 2.47  65 2.53  76 2.53  77 2.53  37 2.56  51 2.56  62 2.57  69 2.59
                            23 2.60  70 2.61  66 2.63  24 2.74
  42  0.960  0.545  0.225-  33 2.57  29 2.59  39 2.60  50 2.61  32 2.61  21 2.61  28 2.64  64 2.65
                            69 2.68  65 2.69  49 2.70  31 2.71
  43  0.293  0.119  0.319-  52 2.54  55 2.57  22 2.59  19 2.59  31 2.61  61 2.61   8 2.62  80 2.64
                             3 2.68  39 2.70  10 2.73  13 2.97
  44  0.541  0.630  0.321-  61 2.56  52 2.56  29 2.60  30 2.61  78 2.64  18 2.68  27 2.70  26 2.70
                            75 2.73  32 2.74  15 2.76  14 2.76
  45  0.292  0.126  0.037-  38 2.55  57 2.57  70 2.59  40 2.66  53 2.66  20 2.68  23 2.70  47 2.70
                            63 2.74
  46  0.545  0.626  0.042-  73 2.43  51 2.44  54 2.47  71 2.53  53 2.54  76 2.54  63 2.55  72 2.56
                            56 2.56
  47  0.307  0.374  0.039-  74 2.45  57 2.52  56 2.54  21 2.57  20 2.60  72 2.62  45 2.70  36 2.78
                            40 2.81
  48  0.628  0.952  0.133-  49 2.43  80 2.48  59 2.50  63 2.52  50 2.54  54 2.54  20 2.60  34 2.61
                            66 2.61  38 2.61  57 2.66  37 2.76
  49  0.701  0.798  0.223-  48 2.43  54 2.51  80 2.51  61 2.55  78 2.56   1 2.57  50 2.57  59 2.60
                            29 2.66  32 2.68  42 2.70  28 2.75
  50  0.866  0.710  0.128-  71 2.42  34 2.48  48 2.54  28 2.56  49 2.57  54 2.58  36 2.59  42 2.61
                            69 2.64  21 2.67  66 2.71  58 2.84
  51  0.625  0.458  0.128-  56 2.42  76 2.43  46 2.44  26 2.53  41 2.56  37 2.57  32 2.57  74 2.58
                            73 2.62  69 2.63  67 2.64  54 2.70
  52  0.301  0.875  0.316-  78 2.46  55 2.50  79 2.50  61 2.51  43 2.54  44 2.56  30 2.62   8 2.65
                             2 2.68  22 2.74   6 2.82  14 2.88
  53  0.306  0.867  0.039-  73 2.44  38 2.51  46 2.54  63 2.56  72 2.59  24 2.61  45 2.66  35 2.74
                            23 2.86
  54  0.619  0.716  0.132-  63 2.41  71 2.47  46 2.47  49 2.51  78 2.53  48 2.54  32 2.56  38 2.58
                            50 2.58  73 2.61  51 2.70  69 2.72
  55  0.216  0.035  0.224-  52 2.50  78 2.50  79 2.52  38 2.53  22 2.54  24 2.55  43 2.57  80 2.59
                            31 2.61  70 2.62  65 2.68  77 2.79
  56  0.541  0.385  0.039-  51 2.42  74 2.47  72 2.50  47 2.54  46 2.56  37 2.58  76 2.61  62 2.65
                            20 2.75
  57  0.379  0.208  0.130-  47 2.52  20 2.54  31 2.55  68 2.55  80 2.56  45 2.57  38 2.62  37 2.64
                            74 2.66  48 2.66  21 2.69  70 2.75
  58  0.140  0.700  0.126-  72 2.40  74 2.53  36 2.54  73 2.54  35 2.56  28 2.58  21 2.61  64 2.62
                            24 2.62  79 2.68  50 2.84  66 2.84
  59  0.703  0.043  0.222-  48 2.50  37 2.52  19 2.55  66 2.57  77 2.58   1 2.58  49 2.60  80 2.61
                            68 2.61  67 2.65  28 2.70  60 2.73
  60  0.795  0.125  0.323-  18 2.57  77 2.58  75 2.59   2 2.61  67 2.63  22 2.65   9 2.65   1 2.66
                            17 2.68   4 2.70  59 2.73  19 2.74
  61  0.540  0.872  0.317-  78 2.46  52 2.51  49 2.55  44 2.56  80 2.57  43 2.61  19 2.61  29 2.65
                             1 2.65   8 2.66  27 2.78  11 2.94
  62  0.789  0.132  0.036-  66 2.52  41 2.57  23 2.59  20 2.60  37 2.60  56 2.65  76 2.70  35 2.72
                            34 2.72
  63  0.550  0.865  0.041-  54 2.41  71 2.50  48 2.52  38 2.53  46 2.55  53 2.56  34 2.64  20 2.71
                            45 2.74
  64  0.213  0.540  0.225-  74 2.59  30 2.60  68 2.60   3 2.61  26 2.61  58 2.62  21 2.63  33 2.63
                            42 2.65  28 2.65  79 2.71  31 2.72
  65  0.963  0.290  0.222-  70 2.46  22 2.47  41 2.53  69 2.59  31 2.59  32 2.60  67 2.61  75 2.62
                            77 2.63  39 2.66  55 2.68  42 2.69
  66  0.867  0.966  0.127-  34 2.50  62 2.52  28 2.54  59 2.57  77 2.58  37 2.59  35 2.61  48 2.61
                            41 2.63  24 2.68  50 2.71  58 2.84
  67  0.718  0.287  0.225-  77 2.44  41 2.47  37 2.52  18 2.53  75 2.54  65 2.61  60 2.63  51 2.64
                            32 2.64  59 2.65  68 2.70  26 2.74
  68  0.459  0.293  0.224-  37 2.52  57 2.55  19 2.57  74 2.58  18 2.60  64 2.60  59 2.61   3 2.65
                            26 2.66  31 2.67  67 2.70  80 2.73
  69  0.874  0.457  0.127-  76 2.36  71 2.40  32 2.51  40 2.55  65 2.59  70 2.59  41 2.59  51 2.63
                            50 2.64  21 2.66  42 2.68  54 2.72
  70  0.117  0.210  0.130-  65 2.46  31 2.55  23 2.57  69 2.59  45 2.59  41 2.61  40 2.61  55 2.62
                            24 2.65  38 2.69  21 2.69  57 2.75
  71  0.785  0.626  0.043-  69 2.40  50 2.42  54 2.47  76 2.50  63 2.50  46 2.53  34 2.65  40 2.67
                            36 2.72
  72  0.304  0.623  0.041-  73 2.38  58 2.40  74 2.44  56 2.50  46 2.56  53 2.59  47 2.62  35 2.70
                            36 2.76
  73  0.377  0.706  0.128-  72 2.38  46 2.43  53 2.44  26 2.50  58 2.54  74 2.59  79 2.60  54 2.61
                            51 2.62  24 2.64  78 2.68  38 2.69
  74  0.379  0.460  0.129-  72 2.44  47 2.45  56 2.47  26 2.51  58 2.53  51 2.58  68 2.58  73 2.59
                            64 2.59  37 2.60  57 2.66  21 2.69
  75  0.797  0.369  0.318-  67 2.54  22 2.54  18 2.55  60 2.59  65 2.62  39 2.63  29 2.64  32 2.64
                             9 2.72  44 2.73   7 2.77  15 2.80
  76  0.788  0.388  0.041-  69 2.36  51 2.43  71 2.50  41 2.53  46 2.54  40 2.61  56 2.61  23 2.63
                            62 2.70
  77  0.944  0.051  0.223-  67 2.44  41 2.53  22 2.57   2 2.57  66 2.58  60 2.58  59 2.58  24 2.62
                            65 2.63  28 2.63  55 2.79  79 2.79
  78  0.457  0.803  0.225-  52 2.46  61 2.46  80 2.47  55 2.50  38 2.53  54 2.53  49 2.56  79 2.58
                            44 2.64  73 2.68  26 2.71  32 2.78
  79  0.216  0.795  0.225-  52 2.50  24 2.52  55 2.52   2 2.55  30 2.57  78 2.58  73 2.60  26 2.60
                            58 2.68  28 2.68  64 2.71  77 2.79
  80  0.461  0.034  0.222-  78 2.47  38 2.47  48 2.48  49 2.51  19 2.55  57 2.56  61 2.57  55 2.59
                            59 2.61  31 2.64  43 2.64  68 2.73
  81  0.498  0.075  0.484-  13 1.75  11 1.76
 
  LATTYP: Found a hexagonal cell.
 ALAT       =    10.5600004196
 C/A-ratio  =     2.0833332505
  
  Lattice vectors:
  
 A1 = (   5.2800002098,  -9.1452286274,   0.0000000000)
 A2 = ( -10.5600004196,   0.0000000000,   0.0000000000)
 A3 = (   0.0000000000,   0.0000000000, -22.0000000000)


Analysis of symmetry for initial positions (statically):
=====================================================================
 Subroutine PRICEL returns:
 Original cell was already a primitive cell.
 

 Routine SETGRP: Setting up the symmetry group for a 
 hexagonal supercell.


 Subroutine GETGRP returns: Found  1 space group operations
 (whereof  1 operations were pure point group operations)
 out of a pool of 24 trial point group operations.


The static configuration has the point symmetry C_1 .


Analysis of symmetry for dynamics (positions and initial velocities):
=====================================================================
 Subroutine PRICEL returns:
 Original cell was already a primitive cell.
 

 Routine SETGRP: Setting up the symmetry group for a 
 hexagonal supercell.


 Subroutine GETGRP returns: Found  1 space group operations
 (whereof  1 operations were pure point group operations)
 out of a pool of 24 trial point group operations.


The dynamic configuration has the point symmetry C_1 .


Analysis of constrained symmetry for selective dynamics:
=====================================================================
 Subroutine PRICEL returns:
 Original cell was already a primitive cell.
 

 Routine SETGRP: Setting up the symmetry group for a 
 hexagonal supercell.


 Subroutine GETGRP returns: Found  1 space group operations
 (whereof  1 operations were pure point group operations)
 out of a pool of 24 trial point group operations.


The constrained configuration has the point symmetry C_1 .


Analysis of structural, dynamic, and magnetic symmetry:
=====================================================================
 Subroutine PRICEL returns:
 Original cell was already a primitive cell.
 

 Routine SETGRP: Setting up the symmetry group for a 
 hexagonal supercell.


 Subroutine GETGRP returns: Found  1 space group operations
 (whereof  1 operations were pure point group operations)
 out of a pool of 24 trial point group operations.


The magnetic configuration has the point symmetry C_1 .


 Subroutine INISYM returns: Found  1 space group operations
 (whereof  1 operations are pure point group operations),
 and found     1 'primitive' translations

 
 
 KPOINTS: mesh auto                               

Automatic generation of k-mesh.
Space group operators:
 irot       det(A)        alpha          n_x          n_y          n_z        tau_x        tau_y        tau_z
    1     1.000000     0.000001     1.000000     0.000000     0.000000     0.000000     0.000000     0.000000
 
 Subroutine IBZKPT returns following result:
 ===========================================
 
 Found      4 irreducible k-points:
 
 Following reciprocal coordinates:
            Coordinates               Weight
  0.000000  0.000000  0.000000      1.000000
  0.500000  0.000000  0.000000      1.000000
  0.000000  0.500000  0.000000      1.000000
  0.500000  0.500000  0.000000      1.000000
 
 Following cartesian coordinates:
            Coordinates               Weight
  0.000000  0.000000  0.000000      1.000000
  0.047348 -0.027337  0.000000      1.000000
  0.000000  0.054673  0.000000      1.000000
  0.047348  0.027337  0.000000      1.000000
 


--------------------------------------------------------------------------------------------------------




 Dimension of arrays:
   k-points           NKPTS =      4   k-points in BZ     NKDIM =      4   number of bands    NBANDS=    590
   number of dos      NEDOS =    301   number of ions     NIONS =     81
   non local maximal  LDIM  =      6   non local SUM 2l+1 LMDIM =     18
   total plane-waves  NPLWV = ******
   max r-space proj   IRMAX =   7802   max aug-charges    IRDMAX=  33988
   dimension x,y,z NGX =    84 NGY =   84 NGZ =  168
   dimension x,y,z NGXF=   168 NGYF=  168 NGZF=  336
   support grid    NGXF=   168 NGYF=  168 NGZF=  336
   ions per type =              32  13  10  13  12   1
   NGX,Y,Z   is equivalent  to a cutoff of  13.22, 13.22, 12.70 a.u.
   NGXF,Y,Z  is equivalent  to a cutoff of  26.45, 26.45, 25.39 a.u.

 SYSTEM =  Pt111                                   
 POSCAR =  10.56                                   

 Startparameter for this run:
   NWRITE =      2    write-flag & timer
   PREC   = accura    normal or accurate (medium, high low for compatibility)
   ISTART =      0    job   : 0-new  1-cont  2-samecut
   ICHARG =      2    charge: 1-file 2-atom 10-const
   ISPIN  =      2    spin polarized calculation?
   LNONCOLLINEAR =      F non collinear calculations
   LSORBIT =      F    spin-orbit coupling
   INIWAV =      1    electr: 0-lowe 1-rand  2-diag
   LASPH  =      F    aspherical Exc in radial PAW
   METAGGA=      F    non-selfconsistent MetaGGA calc.

 Electronic Relaxation 1
   ENCUT  =  550.0 eV  40.42 Ry    6.36 a.u.  20.19 20.19 42.07*2*pi/ulx,y,z
   ENINI  =  550.0     initial cutoff
   ENAUG  =  587.0 eV  augmentation charge cutoff
   NELM   =    200;   NELMIN=  2; NELMDL= -5     # of ELM steps 
   EDIFF  = 0.1E-04   stopping-criterion for ELM
   LREAL  =      T    real-space projection
   NLSPLINE    = F    spline interpolate recip. space projectors
   LCOMPAT=      F    compatible to vasp.4.4
   GGA_COMPAT  = T    GGA compatible to vasp.4.4-vasp.4.6
   LMAXPAW     = -100 max onsite density
   LMAXMIX     =    2 max onsite mixed and CHGCAR
   VOSKOWN=      0    Vosko Wilk Nusair interpolation
   ROPT   =   -0.00025  -0.00025  -0.00025  -0.00025
   ROPT   =   -0.00025  -0.00025
 Ionic relaxation
   EDIFFG = -.5E-01   stopping-criterion for IOM
   NSW    =    300    number of steps for IOM
   NBLOCK =      1;   KBLOCK =    300    inner block; outer block 
   IBRION =      2    ionic relax: 0-MD 1-quasi-New 2-CG
   NFREE  =      1    steps in history (QN), initial steepest desc. (CG)
   ISIF   =      2    stress and relaxation
   IWAVPR =     11    prediction:  0-non 1-charg 2-wave 3-comb
   ISYM   =      2    0-nonsym 1-usesym 2-fastsym
   LCORR  =      T    Harris-Foulkes like correction to forces

   POTIM  = 0.5000    time-step for ionic-motion
   TEIN   =    0.0    initial temperature
   TEBEG  =    0.0;   TEEND  =   0.0 temperature during run
   SMASS  =  -3.00    Nose mass-parameter (am)
   estimated Nose-frequenzy (Omega)   =  0.10E-29 period in steps =****** mass=  -0.255E-26a.u.
   SCALEE = 1.0000    scale energy and forces
   NPACO  =    256;   APACO  = 16.0  distance and # of slots for P.C.
   PSTRESS=    0.0 pullay stress

  Mass of Ions in am
   POMASS = 195.08 63.55 58.69 55.85 58.93  1.00
  Ionic Valenz
   ZVAL   =  10.00 11.00 10.00  8.00  9.00  1.00
  Atomic Wigner-Seitz radii
   RWIGS  =  -1.00 -1.00 -1.00 -1.00 -1.00 -1.00
  virtual crystal weights 
   VCA    =   1.00  1.00  1.00  1.00  1.00  1.00
   NELECT =     776.0000    total number of electrons
   NUPDOWN=      -1.0000    fix difference up-down

 DOS related values:
   EMIN   =  10.00;   EMAX   =-10.00  energy-range for DOS
   EFERMI =   0.00
   ISMEAR =     1;   SIGMA  =   0.10  broadening in eV -4-tet -1-fermi 0-gaus

 Electronic relaxation 2 (details)
   IALGO  =     68    algorithm
   LDIAG  =      T    sub-space diagonalisation (order eigenvalues)
   LSUBROT=      F    optimize rotation matrix (better conditioning)
   TURBO    =      0    0=normal 1=particle mesh
   IRESTART =      0    0=no restart 2=restart with 2 vectors
   NREBOOT  =      0    no. of reboots
   NMIN     =      0    reboot dimension
   EREF     =   0.00    reference energy to select bands
   IMIX   =      4    mixing-type and parameters
     AMIX     =   0.40;   BMIX     =  1.00
     AMIX_MAG =   1.60;   BMIX_MAG =  1.00
     AMIN     =   0.10
     WC   =   100.;   INIMIX=   1;  MIXPRE=   1;  MAXMIX= -45

 Intra band minimization:
   WEIMIN = 0.0010     energy-eigenvalue tresh-hold
   EBREAK =  0.42E-08  absolut break condition
   DEPER  =   0.30     relativ break condition  

   TIME   =   0.40     timestep for ELM

  volume/ion in A,a.u.               =      26.23       177.01
  Fermi-wavevector in a.u.,A,eV,Ry     =   1.170222  2.211399 18.632091  1.369420
  Thomas-Fermi vector in A             =   2.306684
 
 Write flags
   LWAVE        =      F    write WAVECAR
   LDOWNSAMPLE  =      F    k-point downsampling of WAVECAR
   LCHARG       =      F    write CHGCAR
   LVTOT        =      F    write LOCPOT, total local potential
   LVHAR        =      F    write LOCPOT, Hartree potential only
   LELF         =      F    write electronic localiz. function (ELF)
   LORBIT       =      0    0 simple, 1 ext, 2 COOP (PROOUT), +10 PAW based schemes


 Dipole corrections
   LMONO  =      F    monopole corrections only (constant potential shift)
   LDIPOL =      F    correct potential (dipole corrections)
   IDIPOL =      0    1-x, 2-y, 3-z, 4-all directions 
   EPSILON=  1.0000000 bulk dielectric constant

 Exchange correlation treatment:
   GGA     =    --    GGA type
   LEXCH   =     8    internal setting for exchange type
   VOSKOWN=      0    Vosko Wilk Nusair interpolation
   LHFCALC =     F    Hartree Fock is set to
   LHFONE  =     F    Hartree Fock one center treatment
   AEXX    =    0.0000 exact exchange contribution

 Linear response parameters
   LEPSILON=     F    determine dielectric tensor
   LRPA    =     F    only Hartree local field effects (RPA)
   LNABLA  =     F    use nabla operator in PAW spheres
   LVEL    =     F    velocity operator in full k-point grid
   LINTERFAST=   F  fast interpolation
   KINTER  =     0    interpolate to denser k-point grid
   CSHIFT  =0.1000    complex shift for real part using Kramers Kronig
   OMEGAMAX=  -1.0    maximum frequency
   DEG_THRESHOLD= 0.2000000E-02 threshold for treating states as degnerate
   RTIME   =   -0.100 relaxation time in fs
  (WPLASMAI=    0.000 imaginary part of plasma frequency in eV, 0.658/RTIME)
   DFIELD  = 0.0000000 0.0000000 0.0000000 field for delta impulse in time
 
 Orbital magnetization related:
   ORBITALMAG=     F  switch on orbital magnetization
   LCHIMAG   =     F  perturbation theory with respect to B field
   DQ        =  0.001000  dq finite difference perturbation B field
   LLRAUG    =     F  two centre corrections for induced B field



--------------------------------------------------------------------------------------------------------


 conjugate gradient relaxation of ions
   using selective dynamics as specified on POSCAR
 charge density and potential will be updated during run
 spin polarized calculation
 RMM-DIIS sequential band-by-band and
  variant of blocked Davidson during initial phase
 perform sub-space diagonalisation
    before iterative eigenvector-optimisation
 modified Broyden-mixing scheme, WC =      100.0
 initial mixing is a Kerker type mixing with AMIX =  0.4000 and BMIX =      1.0000
 Hartree-type preconditioning will be used
 using additional bands          202
 real space projection scheme for non local part
 use partial core corrections
 calculate Harris-corrections to forces 
   (improved forces if not selfconsistent)
 use gradient corrections 
 use of overlap-Matrix (Vanderbilt PP)
 Methfessel and Paxton  Order N= 1 SIGMA  =   0.10


--------------------------------------------------------------------------------------------------------


  energy-cutoff  :      550.00
  volume of cell :     2124.62
      direct lattice vectors                 reciprocal lattice vectors
    10.560000420  0.000000000  0.000000000     0.094696966 -0.054673319  0.000000000
     5.280000210  9.145228627  0.000000000     0.000000000  0.109346638  0.000000000
     0.000000000  0.000000000 22.000000000     0.000000000  0.000000000  0.045454545

  length of vectors
    10.560000420 10.560000420 22.000000000     0.109346638  0.109346638  0.045454545


 
 k-points in units of 2pi/SCALE and weight: mesh auto                               
   0.00000000  0.00000000  0.00000000       0.250
   0.04734848 -0.02733666  0.00000000       0.250
   0.00000000  0.05467332  0.00000000       0.250
   0.04734848  0.02733666  0.00000000       0.250
 
 k-points in reciprocal lattice and weights: mesh auto                               
   0.00000000  0.00000000  0.00000000       0.250
   0.50000000  0.00000000  0.00000000       0.250
   0.00000000  0.50000000  0.00000000       0.250
   0.50000000  0.50000000  0.00000000       0.250
 
 position of ions in fractional coordinates (direct lattice) 
   0.78913511  0.87589419  0.31707907
   0.04443017  0.88039310  0.31609593
   0.28848172  0.37530856  0.32119295
   0.87865111  0.95655658  0.42404766
   0.12663411  0.45706700  0.42710110
   0.12849459  0.95803029  0.42197377
   0.87785239  0.45699516  0.42251564
   0.37645654  0.95599041  0.41724226
   0.87697341  0.20862855  0.42230537
   0.12717619  0.20762717  0.42253081
   0.62776223  0.95664343  0.43043835
   0.87746247  0.70655250  0.42535157
   0.37456264  0.20910149  0.43400826
   0.37776600  0.70815003  0.42679109
   0.62780822  0.45867640  0.42438985
   0.12698805  0.70756033  0.42498952
   0.62886664  0.20859463  0.42359459
   0.55440270  0.36961331  0.31754170
   0.53809724  0.12009676  0.31580071
   0.54745577  0.12241455  0.03835403
   0.12360644  0.46198687  0.12740666
   0.04067324  0.13352848  0.31326808
   0.03235129  0.13482511  0.03441534
   0.12671306  0.95484959  0.13162708
   0.37644213  0.45964110  0.42704494
   0.45779299  0.54562474  0.22008560
   0.62565076  0.70782843  0.42351706
   0.96413863  0.79272622  0.21761397
   0.79049871  0.62204445  0.31892329
   0.29367838  0.62999481  0.31923927
   0.21123592  0.28374023  0.22269626
   0.71709822  0.53685317  0.22058810
   0.04163063  0.62317142  0.32077232
   0.79720004  0.86975892  0.03740235
   0.04406258  0.87221915  0.03450723
   0.03926108  0.63118460  0.03512204
   0.62574752  0.21423502  0.13267817
   0.37608349  0.96104394  0.13055742
   0.04107834  0.37819662  0.32052007
   0.03961706  0.37680314  0.03348892
   0.86761936  0.21521963  0.13097207
   0.95962679  0.54542694  0.22473188
   0.29291009  0.11922694  0.31940194
   0.54086036  0.62958722  0.32126805
   0.29178315  0.12606023  0.03725420
   0.54545151  0.62597825  0.04206242
   0.30678791  0.37356804  0.03912988
   0.62788283  0.95185769  0.13263039
   0.70142059  0.79820208  0.22280830
   0.86633517  0.71047377  0.12834734
   0.62467538  0.45773867  0.12814478
   0.30116215  0.87460182  0.31587091
   0.30615091  0.86696452  0.03949459
   0.61892989  0.71603521  0.13157826
   0.21580132  0.03462027  0.22396955
   0.54130035  0.38549347  0.03924212
   0.37935969  0.20774149  0.13048593
   0.13970060  0.70042731  0.12601187
   0.70329280  0.04306983  0.22237866
   0.79517618  0.12479579  0.32326843
   0.53971500  0.87226411  0.31739051
   0.78866377  0.13163117  0.03568706
   0.55002307  0.86477454  0.04096764
   0.21334288  0.54014670  0.22460931
   0.96280137  0.28964998  0.22158834
   0.86740749  0.96641026  0.12740667
   0.71753219  0.28687300  0.22453182
   0.45915719  0.29304584  0.22376919
   0.87387308  0.45689803  0.12677291
   0.11726506  0.21049175  0.13008946
   0.78478084  0.62565658  0.04309165
   0.30446760  0.62284293  0.04138738
   0.37746416  0.70582480  0.12774454
   0.37902910  0.46003850  0.12899471
   0.79653178  0.36886525  0.31834255
   0.78782398  0.38752064  0.04111567
   0.94385566  0.05104212  0.22344851
   0.45702340  0.80263442  0.22502694
   0.21629647  0.79533135  0.22474012
   0.46108857  0.03393525  0.22161390
   0.49833894  0.07475535  0.48385905
 
 position of ions in cartesian coordinates  (Angst):
  12.95798865  8.01025264  6.97573950
   5.11765837  8.05139616  6.95411039
   5.02799636  3.43228258  7.06624489
  14.32917503  8.74792858  9.32904857
   3.75057010  4.17998224  9.39622426
   6.41530310  8.76140608  9.28342291
  11.68305615  4.17932523  9.29534411
   9.02301079  8.74275083  9.17932968
  10.36239833  1.90795581  9.29071812
   2.43925210  1.89879792  9.29567772
  11.68024692  8.74872289  9.46964363
  12.99660139  6.46158419  9.35773450
   5.05943758  1.91228095  9.54818171
   7.72824148  6.47619394  9.38940403
   9.05146653  4.19470052  9.33657679
   5.07691252  6.47080101  9.34976940
   7.74221166  1.90764554  9.31908098
   7.80605108  3.38019819  6.98591741
   6.31641796  1.09831234  6.94761560
   6.42748199  1.11950902  0.84378857
   3.74457485  4.22497551  2.80294662
   1.13453985  1.22114847  6.89189780
   1.05350625  1.23300646  0.75713746
   6.37969601  8.73231780  2.89579587
   6.40213416  4.20352295  9.39498877
   7.71519296  4.98986301  4.84188323
  10.34420649  6.47325281  9.31737539
  14.36689896  7.24966250  4.78750741
  11.63206156  5.68873872  7.01631229
   6.42761657  5.76144660  7.02326391
   3.72879985  2.59486929  4.89931774
  10.40714241  4.90964500  4.85293829
   3.72996475  5.69904513  7.05699107
  13.01076010  7.95414421  0.82285169
   5.07061818  7.97664351  0.75915899
   3.74725186  5.77232751  0.77268479
   7.73905501  1.95922823  2.91891969
   9.04575401  8.78896659  2.87226322
   2.43066551  3.45869453  7.05144163
   2.40787681  3.44595088  0.73675630
  10.29842047  1.96823277  2.88138548
  13.01351367  4.98805409  4.94410139
   3.72264894  1.09035760  7.02684268
   9.03570629  5.75771904  7.06789700
   3.74682824  1.15284966  0.81959249
   9.06513349  5.72471418  0.92537331
   5.21211980  3.41636512  0.86085731
  11.65625177  8.70495616  2.91786869
  11.62150883  7.29974048  4.90178269
  12.89980144  6.49744505  2.82364142
   9.01343253  4.18612478  2.81918506
   7.79817026  7.99843358  6.94916002
   7.81052654  7.92858872  0.86888091
  10.31656596  6.54830568  2.89472164
   2.46165709  0.31661030  4.92733016
   7.75153750  3.52542591  0.86332671
   5.10291361  1.89984346  2.87069041
   5.17349471  6.40556785  2.77226120
   7.65418102  0.39388344  4.89233061
   9.05598255  1.14128600  7.11190551
  10.30494533  7.97705472  6.98259132
   9.02330237  1.20379713  0.78511532
  10.37425363  7.90856090  0.90128811
   5.10487562  4.93976509  4.94140483
  11.69653478  2.64891530  4.87494337
  14.26246981  8.83804282  2.80294666
   9.09182970  2.62351917  4.93970002
   6.39598222  2.67997121  4.92292219
  11.64052176  4.17843690  2.78900405
   2.34971562  1.92499520  2.86196808
  11.59075286  5.72177244  0.94801637
   6.50378879  5.69604102  0.91052233
   7.71277679  6.45492912  2.81037998
   6.43155077  4.20715724  2.83788366
  10.35898459  3.37335706  7.00353606
  10.36553066  3.54396488  0.90454481
  10.23661853  0.46679185  4.91586728
   9.06407717  7.34027527  4.95059278
   6.48344052  7.27348698  4.94428261
   5.04827358  0.31034563  4.87550584
   5.65716764  0.68365472 10.64489913
 


--------------------------------------------------------------------------------------------------------


 k-point  1 :   0.0000 0.0000 0.0000  plane waves:   62167
 k-point  2 :   0.5000 0.0000 0.0000  plane waves:   62242
 k-point  3 :   0.0000 0.5000 0.0000  plane waves:   62242
 k-point  4 :   0.5000 0.5000 0.0000  plane waves:   62242

 maximum and minimum number of plane-waves per node :     15586    15521

 maximum number of plane-waves:     62242
 maximum index in each direction: 
   IXMAX=   20   IYMAX=   20   IZMAX=   42
   IXMIN=  -20   IYMIN=  -20   IZMIN=  -42


 real space projection operators:
  total allocation   :      77802.30 KBytes
  max/ min on nodes  :      19465.05      19426.92


 parallel 3D FFT for wavefunctions:
    minimum data exchange during FFTs selected (reduces bandwidth)
 parallel 3D FFT for charge:
    minimum data exchange during FFTs selected (reduces bandwidth)


 total amount of memory used by VASP MPI-rank0   259142. kBytes
=======================================================================

   base      :      30000. kBytes
   nonlr-proj:      34688. kBytes
   fftplans  :      17962. kBytes
   grid      :      55536. kBytes
   one-center:        653. kBytes
   wavefun   :     120303. kBytes
 
     INWAV:  cpu time    0.0000: real time    0.0000
 Broyden mixing: mesh for mixing (old mesh)
   NGX = 41   NGY = 41   NGZ = 85
  (NGX  =168   NGY  =168   NGZ  =336)
  gives a total of 142885 points

 initial charge density was supplied:
 charge density of overlapping atoms calculated
 number of electron     776.0000000 magnetization     233.0000000
 keeping initial charge density in first step


--------------------------------------------------------------------------------------------------------


 Maximum index for non-local projection operator         1903
 Maximum index for augmentation-charges         2130 (set IRDMAX)


--------------------------------------------------------------------------------------------------------


 First call to EWALD:  gamma=   0.138
 Maximum number of real-space cells 4x 4x 2
 Maximum number of reciprocal cells 2x 2x 4

    FEWALD:  cpu time    0.0051: real time    0.0051


--------------------------------------- Iteration      1(   1)  ---------------------------------------


    POTLOK:  cpu time    0.5125: real time    0.5410
    SETDIJ:  cpu time    0.0447: real time    0.0451
     EDDAV:  cpu time   82.7050: real time   82.9454
       DOS:  cpu time    0.0023: real time    0.0024
    --------------------------------------------
      LOOP:  cpu time   83.2645: real time   83.5339

 eigenvalue-minimisations  :  9440
 total energy-change (2. order) : 0.7884366E+04  (-0.3281296E+05)
 number of electron     776.0000000 magnetization     233.0000000
 augmentation part      776.0000000 magnetization     233.0000000

 Free energy of the ion-electron system (eV)
  ---------------------------------------------------
  alpha Z        PSCENC =      2230.33460859
  Ewald energy   TEWEN  =    216882.41091190
  -Hartree energ DENC   =   -288609.65747873
  -exchange      EXHF   =         0.00000000
  -V(xc)+E(xc)   XCENC  =      1359.50664027
  PAW double counting   =     63651.30740739   -65525.53323748
  entropy T*S    EENTRO =         0.00929610
  eigenvalues    EBANDS =      8205.94719718
  atomic energy  EATOM  =     69690.04112127
  Solvation  Ediel_sol  =         0.00000000
  ---------------------------------------------------
  free energy    TOTEN  =      7884.36646650 eV

  energy without entropy =     7884.35717040  energy(sigma->0) =     7884.36336780


--------------------------------------------------------------------------------------------------------




--------------------------------------- Iteration      1(   2)  ---------------------------------------


     EDDAV:  cpu time   83.3250: real time   83.5632
       DOS:  cpu time    0.0024: real time    0.0024
    --------------------------------------------
      LOOP:  cpu time   83.3275: real time   83.5657

 eigenvalue-minimisations  :  9440
 total energy-change (2. order) :-0.7041051E+04  (-0.6289644E+04)
 number of electron     776.0000000 magnetization     233.0000000
 augmentation part      776.0000000 magnetization     233.0000000

 Free energy of the ion-electron system (eV)
  ---------------------------------------------------
  alpha Z        PSCENC =      2230.33460859
  Ewald energy   TEWEN  =    216882.41091190
  -Hartree energ DENC   =   -288609.65747873
  -exchange      EXHF   =         0.00000000
  -V(xc)+E(xc)   XCENC  =      1359.50664027
  PAW double counting   =     63651.30740739   -65525.53323748
  entropy T*S    EENTRO =         0.00547853
  eigenvalues    EBANDS =      1164.89971405
  atomic energy  EATOM  =     69690.04112127
  Solvation  Ediel_sol  =         0.00000000
  ---------------------------------------------------
  free energy    TOTEN  =       843.31516580 eV

  energy without entropy =      843.30968727  energy(sigma->0) =      843.31333962


--------------------------------------------------------------------------------------------------------




--------------------------------------- Iteration      1(   3)  ---------------------------------------


     EDDAV:  cpu time   83.5357: real time   83.7718
       DOS:  cpu time    0.0026: real time    0.0026
    --------------------------------------------
      LOOP:  cpu time   83.5382: real time   83.7744

 eigenvalue-minimisations  :  9440
 total energy-change (2. order) :-0.1221485E+04  (-0.9876253E+03)
 number of electron     776.0000000 magnetization     233.0000000
 augmentation part      776.0000000 magnetization     233.0000000

 Free energy of the ion-electron system (eV)
  ---------------------------------------------------
  alpha Z        PSCENC =      2230.33460859
  Ewald energy   TEWEN  =    216882.41091190
  -Hartree energ DENC   =   -288609.65747873
  -exchange      EXHF   =         0.00000000
  -V(xc)+E(xc)   XCENC  =      1359.50664027
  PAW double counting   =     63651.30740739   -65525.53323748
  entropy T*S    EENTRO =         0.00235933
  eigenvalues    EBANDS =       -56.58257759
  atomic energy  EATOM  =     69690.04112127
  Solvation  Ediel_sol  =         0.00000000
  ---------------------------------------------------
  free energy    TOTEN  =      -378.17024503 eV

  energy without entropy =     -378.17260437  energy(sigma->0) =     -378.17103148


--------------------------------------------------------------------------------------------------------




--------------------------------------- Iteration      1(   4)  ---------------------------------------


     EDDAV:  cpu time   98.1830: real time   98.4629
       DOS:  cpu time    0.0027: real time    0.0027
    --------------------------------------------
      LOOP:  cpu time   98.1858: real time   98.4656

 eigenvalue-minimisations  : 11690
 total energy-change (2. order) :-0.1170524E+03  (-0.1077246E+03)
 number of electron     776.0000000 magnetization     233.0000000
 augmentation part      776.0000000 magnetization     233.0000000

 Free energy of the ion-electron system (eV)
  ---------------------------------------------------
  alpha Z        PSCENC =      2230.33460859
  Ewald energy   TEWEN  =    216882.41091190
  -Hartree energ DENC   =   -288609.65747873
  -exchange      EXHF   =         0.00000000
  -V(xc)+E(xc)   XCENC  =      1359.50664027
  PAW double counting   =     63651.30740739   -65525.53323748
  entropy T*S    EENTRO =        -0.00105891
  eigenvalues    EBANDS =      -173.63153115
  atomic energy  EATOM  =     69690.04112127
  Solvation  Ediel_sol  =         0.00000000
  ---------------------------------------------------
  free energy    TOTEN  =      -495.22261684 eV

  energy without entropy =     -495.22155793  energy(sigma->0) =     -495.22226387


--------------------------------------------------------------------------------------------------------




--------------------------------------- Iteration      1(   5)  ---------------------------------------


     EDDAV:  cpu time   94.9140: real time   95.1955
       DOS:  cpu time    0.0028: real time    0.0028
    CHARGE:  cpu time    4.8472: real time    4.8590
    MIXING:  cpu time    0.0107: real time    0.0114
    --------------------------------------------
      LOOP:  cpu time   99.7748: real time  100.0687

 eigenvalue-minimisations  : 11130
 total energy-change (2. order) :-0.4421033E+01  (-0.4388135E+01)
 number of electron     776.0000022 magnetization     218.1296208
 augmentation part      332.9889479 magnetization     187.1002170

 Broyden mixing:
  rms(total) = 0.11821E+02    rms(broyden)= 0.11820E+02
  rms(prec ) = 0.12123E+02
  weight for this iteration     100.00

 Free energy of the ion-electron system (eV)
  ---------------------------------------------------
  alpha Z        PSCENC =      2230.33460859
  Ewald energy   TEWEN  =    216882.41091190
  -Hartree energ DENC   =   -288609.65747873
  -exchange      EXHF   =         0.00000000
  -V(xc)+E(xc)   XCENC  =      1359.50664027
  PAW double counting   =     63651.30740739   -65525.53323748
  entropy T*S    EENTRO =        -0.00081061
  eigenvalues    EBANDS =      -178.05281235
  atomic energy  EATOM  =     69690.04112127
  Solvation  Ediel_sol  =         0.00000000
  ---------------------------------------------------
  free energy    TOTEN  =      -499.64364974 eV

  energy without entropy =     -499.64283913  energy(sigma->0) =     -499.64337954


--------------------------------------------------------------------------------------------------------




--------------------------------------- Iteration      1(   6)  ---------------------------------------


    POTLOK:  cpu time    0.5022: real time    0.5036
    SETDIJ:  cpu time    0.0453: real time    0.0454
    EDDIAG:  cpu time   13.5586: real time   13.5912
  RMM-DIIS:  cpu time   48.2688: real time   48.4751
    ORTHCH:  cpu time    2.0789: real time    2.0838
       DOS:  cpu time    0.0026: real time    0.0026
    CHARGE:  cpu time    4.6322: real time    4.6432
    MIXING:  cpu time    0.0106: real time    0.0110
    --------------------------------------------
      LOOP:  cpu time   69.0992: real time   69.3559

 eigenvalue-minimisations  :  9532
 total energy-change (2. order) :-0.1335838E+03  (-0.8699830E+02)
 number of electron     776.0000030 magnetization     213.8782717
 augmentation part      401.6093961 magnetization     180.1491407

 Broyden mixing:
  rms(total) = 0.18198E+02    rms(broyden)= 0.18198E+02
  rms(prec ) = 0.24141E+02
  weight for this iteration     100.00

 eigenvalues of (default mixing * dielectric matrix)
  average eigenvalue GAMMA=   0.2544
  0.2544

 Free energy of the ion-electron system (eV)
  ---------------------------------------------------
  alpha Z        PSCENC =      2230.33460859
  Ewald energy   TEWEN  =    216882.41091190
  -Hartree energ DENC   =   -287034.14376649
  -exchange      EXHF   =         0.00000000
  -V(xc)+E(xc)   XCENC  =      1312.47337815
  PAW double counting   =     68776.61398302   -70441.74763625
  entropy T*S    EENTRO =         0.00679639
  eigenvalues    EBANDS =     -2049.21683273
  atomic energy  EATOM  =     69690.04112127
  Solvation  Ediel_sol  =         0.00000000
  ---------------------------------------------------
  free energy    TOTEN  =      -633.22743615 eV

  energy without entropy =     -633.23423254  energy(sigma->0) =     -633.22970162


--------------------------------------------------------------------------------------------------------




--------------------------------------- Iteration      1(   7)  ---------------------------------------


    POTLOK:  cpu time    0.5014: real time    0.5028
    SETDIJ:  cpu time    0.0455: real time    0.0456
    EDDIAG:  cpu time   13.9101: real time   13.9434
  RMM-DIIS:  cpu time   47.5183: real time   47.6310
    ORTHCH:  cpu time    2.0702: real time    2.0752
       DOS:  cpu time    0.0027: real time    0.0027
    CHARGE:  cpu time    4.7023: real time    4.7135
    MIXING:  cpu time    0.0112: real time    0.0113
    --------------------------------------------
      LOOP:  cpu time   68.7617: real time   68.9255

 eigenvalue-minimisations  :  9454
 total energy-change (2. order) : 0.8436343E+02  (-0.1635090E+02)
 number of electron     776.0000023 magnetization     208.1627213
 augmentation part      360.6301224 magnetization     164.5208626

 Broyden mixing:
  rms(total) = 0.15209E+02    rms(broyden)= 0.15209E+02
  rms(prec ) = 0.20195E+02
  weight for this iteration     100.00

 eigenvalues of (default mixing * dielectric matrix)
  average eigenvalue GAMMA=   0.3165
  0.4812  0.1517

 Free energy of the ion-electron system (eV)
  ---------------------------------------------------
  alpha Z        PSCENC =      2230.33460859
  Ewald energy   TEWEN  =    216882.41091190
  -Hartree energ DENC   =   -287786.36810050
  -exchange      EXHF   =         0.00000000
  -V(xc)+E(xc)   XCENC  =      1331.45169193
  PAW double counting   =     69881.90477353   -71715.00492991
  entropy T*S    EENTRO =         0.00759675
  eigenvalues    EBANDS =     -1063.64167567
  atomic energy  EATOM  =     69690.04112127
  Solvation  Ediel_sol  =         0.00000000
  ---------------------------------------------------
  free energy    TOTEN  =      -548.86400210 eV

  energy without entropy =     -548.87159885  energy(sigma->0) =     -548.86653435


--------------------------------------------------------------------------------------------------------




--------------------------------------- Iteration      1(   8)  ---------------------------------------


    POTLOK:  cpu time    0.5023: real time    0.5038
    SETDIJ:  cpu time    0.0457: real time    0.0458
    EDDIAG:  cpu time   13.7246: real time   13.7597
  RMM-DIIS:  cpu time   47.8305: real time   47.9670
    ORTHCH:  cpu time    2.0504: real time    2.0553
       DOS:  cpu time    0.0029: real time    0.0029
    CHARGE:  cpu time    4.6485: real time    4.6595
    MIXING:  cpu time    0.0111: real time    0.0111
    --------------------------------------------
      LOOP:  cpu time   68.8159: real time   69.0052

 eigenvalue-minimisations  :  9457
 total energy-change (2. order) : 0.4469410E+02  (-0.1208083E+02)
 number of electron     776.0000028 magnetization     202.2141633
 augmentation part      365.5349357 magnetization     160.4801327

 Broyden mixing:
  rms(total) = 0.16624E+02    rms(broyden)= 0.16624E+02
  rms(prec ) = 0.19477E+02
  weight for this iteration     100.00

 eigenvalues of (default mixing * dielectric matrix)
  average eigenvalue GAMMA=   0.3186
  0.6277  0.2386  0.0895

 Free energy of the ion-electron system (eV)
  ---------------------------------------------------
  alpha Z        PSCENC =      2230.33460859
  Ewald energy   TEWEN  =    216882.41091190
  -Hartree energ DENC   =   -288060.70304208
  -exchange      EXHF   =         0.00000000
  -V(xc)+E(xc)   XCENC  =      1338.89558534
  PAW double counting   =     71422.98961542   -73344.70248044
  entropy T*S    EENTRO =        -0.00561045
  eigenvalues    EBANDS =      -663.43060736
  atomic energy  EATOM  =     69690.04112127
  Solvation  Ediel_sol  =         0.00000000
  ---------------------------------------------------
  free energy    TOTEN  =      -504.16989780 eV

  energy without entropy =     -504.16428735  energy(sigma->0) =     -504.16802765


--------------------------------------------------------------------------------------------------------




--------------------------------------- Iteration      1(   9)  ---------------------------------------


    POTLOK:  cpu time    0.5025: real time    0.5037
    SETDIJ:  cpu time    0.0458: real time    0.0459
    EDDIAG:  cpu time   13.5474: real time   13.5797
  RMM-DIIS:  cpu time   48.1078: real time   48.2294
    ORTHCH:  cpu time    2.0768: real time    2.0828
       DOS:  cpu time    0.0028: real time    0.0028
    CHARGE:  cpu time    5.2010: real time    5.2155
    MIXING:  cpu time    0.0138: real time    0.0139
    --------------------------------------------
      LOOP:  cpu time   69.4978: real time   69.6736

 eigenvalue-minimisations  :  9476
 total energy-change (2. order) : 0.1161032E+03  (-0.1263499E+02)
 number of electron     776.0000020 magnetization     194.7727257
 augmentation part      368.2914387 magnetization     152.5701590

 Broyden mixing:
  rms(total) = 0.12956E+02    rms(broyden)= 0.12955E+02
  rms(prec ) = 0.15132E+02
  weight for this iteration     100.00

 eigenvalues of (default mixing * dielectric matrix)
  average eigenvalue GAMMA=   0.3805
  0.9643  0.3229  0.1014  0.1333

 Free energy of the ion-electron system (eV)
  ---------------------------------------------------
  alpha Z        PSCENC =      2230.33460859
  Ewald energy   TEWEN  =    216882.41091190
  -Hartree energ DENC   =   -287709.80902285
  -exchange      EXHF   =         0.00000000
  -V(xc)+E(xc)   XCENC  =      1354.18920779
  PAW double counting   =     72689.66874610   -74647.78314887
  entropy T*S    EENTRO =         0.00073599
  eigenvalues    EBANDS =      -877.11982666
  atomic energy  EATOM  =     69690.04112127
  Solvation  Ediel_sol  =         0.00000000
  ---------------------------------------------------
  free energy    TOTEN  =      -388.06666675 eV

  energy without entropy =     -388.06740273  energy(sigma->0) =     -388.06691208


[...]
 -----------------------------------------------------------------------------------------------
   -.328E+02 -.737E+02 -.145E+04   0.318E+02 0.747E+02 0.145E+04   0.110E+01 -.981E+00 0.231E+01   0.433E-03 0.247E-03 0.328E-03
   0.563E+02 -.189E+02 -.142E+04   -.560E+02 0.196E+02 0.141E+04   -.316E+00 -.678E+00 0.268E+01   -.574E-04 0.132E-03 0.168E-03
   -.115E+03 0.101E+02 -.147E+04   0.115E+03 -.104E+02 0.146E+04   0.263E+00 0.227E+00 0.272E+01   0.533E-03 0.156E-03 0.117E-03
   0.245E+01 -.177E+02 -.286E+04   -.235E+01 0.178E+02 0.286E+04   -.937E-01 -.403E-01 0.109E+01   0.193E-04 -.733E-04 -.813E-03
   -.213E+02 -.921E+01 -.295E+04   0.214E+02 0.891E+01 0.295E+04   -.151E+00 0.353E+00 0.104E+01   0.475E-03 0.225E-03 -.639E-03
   0.357E+02 -.447E+01 -.288E+04   -.357E+02 0.430E+01 0.288E+04   -.292E-01 0.136E+00 0.905E+00   -.392E-03 -.332E-03 -.847E-03
   0.307E+02 0.216E+01 -.292E+04   -.307E+02 -.231E+01 0.292E+04   -.198E-01 0.872E-01 0.112E+01   0.117E-03 0.547E-04 -.363E-03
   -.191E+02 0.485E+01 -.286E+04   0.184E+02 -.552E+01 0.286E+04   0.772E+00 0.743E+00 0.213E+01   -.125E-03 -.319E-04 -.596E-03
   0.223E+02 0.234E+02 -.288E+04   -.226E+02 -.231E+02 0.288E+04   0.246E+00 -.291E+00 0.162E+01   -.395E-03 -.634E-03 -.514E-03
   0.262E+02 0.182E+02 -.292E+04   -.262E+02 -.182E+02 0.292E+04   0.127E+00 -.223E-01 0.676E+00   0.620E-04 -.283E-03 -.567E-03
   -.325E+02 0.702E+01 -.288E+04   0.323E+02 -.695E+01 0.288E+04   0.197E+00 -.778E-01 -.594E+00   0.454E-03 0.251E-03 -.705E-03
   0.274E+01 -.379E+02 -.291E+04   -.273E+01 0.378E+02 0.291E+04   0.234E-01 0.662E-01 0.910E+00   0.462E-03 0.526E-03 -.660E-03
   -.301E+02 -.132E+02 -.293E+04   0.301E+02 0.131E+02 0.293E+04   0.506E-02 0.302E-01 -.730E+00   0.415E-03 0.430E-04 -.727E-03
   0.247E+02 0.190E+01 -.295E+04   -.246E+02 -.201E+01 0.295E+04   -.556E-01 0.116E+00 0.952E+00   -.473E-03 0.173E-04 -.807E-03
   0.125E+02 0.334E+02 -.290E+04   -.124E+02 -.334E+02 0.290E+04   -.856E-01 0.151E-01 0.104E+01   -.582E-03 -.131E-03 -.509E-03
   -.693E+01 -.251E+02 -.290E+04   0.699E+01 0.250E+02 0.290E+04   -.785E-01 0.150E+00 0.790E+00   0.647E-04 0.254E-03 -.859E-03
   0.221E+01 0.110E+02 -.283E+04   -.126E+01 -.107E+02 0.283E+04   -.984E+00 -.312E+00 0.149E+01   -.105E-03 -.241E-03 -.663E-03
   0.503E+02 0.485E+02 -.141E+04   -.486E+02 -.496E+02 0.141E+04   -.170E+01 0.111E+01 0.276E+01   -.644E-03 -.515E-04 0.100E-03
   -.849E+02 -.356E+02 -.144E+04   0.845E+02 0.346E+02 0.143E+04   0.328E+00 0.101E+01 0.376E+01   0.292E-03 0.184E-03 0.296E-03
   -.227E+02 -.238E+02 0.300E+04   0.228E+02 0.241E+02 -.299E+04   -.197E-01 -.280E+00 -.197E+01   0.577E-03 0.293E-03 0.620E-03
   -.733E+02 0.226E+02 0.148E+04   0.739E+02 -.222E+02 -.148E+04   -.577E+00 -.329E+00 -.991E-01   0.932E-03 0.190E-03 0.928E-03
   0.998E+02 0.263E+02 -.140E+04   -.100E+03 -.251E+02 0.139E+04   0.606E+00 -.114E+01 0.322E+01   -.317E-03 -.919E-03 0.353E-04
   0.349E+02 0.500E+02 0.303E+04   -.355E+02 -.488E+02 -.303E+04   0.663E+00 -.119E+01 -.216E+01   -.218E-03 -.719E-03 0.226E-03
   0.908E+02 0.300E+01 0.147E+04   -.910E+02 -.426E+01 -.147E+04   0.958E-01 0.126E+01 -.116E+01   -.234E-03 -.107E-03 0.114E-02
   -.184E+02 0.188E+02 -.288E+04   0.182E+02 -.185E+02 0.288E+04   0.268E+00 -.242E+00 0.706E+00   -.142E-04 0.438E-04 -.789E-03
   0.539E+02 0.631E+02 0.228E+02   -.550E+02 -.632E+02 -.244E+02   0.109E+01 -.506E-01 0.169E+01   -.214E-03 -.229E-03 0.450E-04
   -.227E+02 -.143E+02 -.291E+04   0.224E+02 0.144E+02 0.291E+04   0.318E+00 -.588E-01 0.118E+01   -.569E-04 0.263E-03 -.523E-03
   -.626E+02 -.410E+02 0.112E+03   0.630E+02 0.410E+02 -.114E+03   -.437E+00 -.791E-01 0.176E+01   0.238E-03 0.624E-03 0.123E-02
   0.166E+02 -.427E+02 -.149E+04   -.169E+02 0.427E+02 0.149E+04   0.407E+00 -.294E-01 0.233E+01   0.186E-03 0.593E-03 0.174E-03
   0.363E+02 0.573E+02 -.145E+04   -.364E+02 -.565E+02 0.145E+04   0.814E-01 -.730E+00 0.274E+01   -.120E-03 0.109E-03 0.178E-03
   -.836E+02 -.496E+02 0.770E+02   0.838E+02 0.488E+02 -.779E+02   -.145E+00 0.713E+00 0.109E+01   0.706E-03 -.386E-04 0.106E-02
   0.478E+02 0.514E+02 0.126E+02   -.471E+02 -.525E+02 -.134E+02   -.804E+00 0.106E+01 0.862E+00   -.101E-02 0.574E-03 0.387E-03
   -.738E+02 -.723E+02 -.162E+04   0.738E+02 0.719E+02 0.162E+04   0.674E-01 0.487E+00 0.102E+01   0.616E-03 0.518E-03 0.375E-03
   0.102E+02 -.908E+02 0.332E+04   -.106E+02 0.908E+02 -.331E+04   0.326E+00 0.130E-01 -.237E+01   0.435E-03 0.559E-04 0.411E-03
   -.328E+02 -.507E+02 0.328E+04   0.322E+02 0.504E+02 -.328E+04   0.697E+00 0.418E+00 -.292E+01   0.162E-04 0.527E-04 0.180E-03
   -.547E+02 0.439E+02 0.331E+04   0.549E+02 -.436E+02 -.331E+04   -.162E+00 -.313E+00 -.357E+01   0.102E-03 0.361E-03 0.811E-04
   0.524E+02 0.291E+02 0.158E+04   -.523E+02 -.291E+02 -.158E+04   -.754E-01 -.623E-02 -.137E+01   0.265E-04 0.847E-03 0.980E-03
   0.212E+02 -.667E+02 0.167E+04   -.206E+02 0.664E+02 -.167E+04   -.637E+00 0.155E+00 -.907E+00   -.162E-03 -.538E-03 0.145E-02
   0.102E+02 0.188E+02 -.162E+04   -.105E+02 -.192E+02 0.162E+04   0.372E+00 0.345E+00 0.118E+01   0.518E-03 -.944E-04 0.388E-03
   -.320E+02 0.374E+01 0.335E+04   0.305E+02 -.408E+01 -.335E+04   0.153E+01 0.367E+00 -.329E+01   0.465E-03 0.164E-03 -.307E-03
   0.407E+01 0.818E+02 0.162E+04   -.437E+01 -.815E+02 -.162E+04   0.353E+00 -.403E+00 -.115E+01   -.119E-02 -.692E-03 0.139E-02
   -.589E+02 0.171E+02 0.389E+02   0.587E+02 -.167E+02 -.391E+02   0.134E+00 -.394E+00 0.701E-02   0.466E-03 0.625E-03 0.123E-02
   -.815E+02 -.421E+02 -.164E+04   0.816E+02 0.415E+02 0.164E+04   -.231E-01 0.691E+00 0.163E+01   0.874E-04 -.206E-03 0.267E-03
   0.130E+02 0.724E+02 -.163E+04   -.130E+02 -.715E+02 0.163E+04   -.589E-01 -.948E+00 0.905E+00   -.716E-03 0.368E-03 -.126E-03
   -.375E+02 -.253E+01 0.330E+04   0.380E+02 0.205E+01 -.330E+04   -.448E+00 0.468E+00 -.279E+01   -.229E-04 -.158E-03 0.167E-03
   0.206E+02 0.216E+02 0.304E+04   -.205E+02 -.215E+02 -.304E+04   -.126E+00 -.124E+00 -.593E+00   -.693E-03 -.253E-03 0.105E-02
   -.198E+02 0.587E+01 0.297E+04   0.215E+02 -.596E+01 -.297E+04   -.165E+01 0.880E-01 -.216E+01   0.759E-03 0.350E-03 0.725E-03
   -.670E+02 -.116E+03 0.148E+04   0.670E+02 0.115E+03 -.148E+04   -.797E-01 0.524E+00 -.938E+00   0.307E-03 -.409E-05 0.117E-02
   -.693E+02 -.188E+02 -.556E+02   0.687E+02 0.194E+02 0.550E+02   0.732E+00 -.696E+00 0.634E+00   -.176E-03 0.249E-03 0.736E-03
   -.111E+03 -.827E+00 0.148E+04   0.111E+03 0.122E+01 -.148E+04   0.364E-01 -.425E+00 -.447E+00   -.113E-03 0.632E-03 0.722E-03
   0.427E+02 0.332E+02 0.148E+04   -.426E+02 -.328E+02 -.148E+04   -.569E-01 -.366E+00 0.301E-01   -.140E-02 0.204E-03 0.122E-02
   0.739E+02 0.231E+02 -.147E+04   -.736E+02 -.232E+02 0.147E+04   -.454E+00 0.192E+00 0.161E+01   -.370E-03 -.169E-03 0.231E-04
   0.457E+02 -.350E+02 0.303E+04   -.449E+02 0.337E+02 -.303E+04   -.837E+00 0.129E+01 -.199E+01   -.512E-03 -.301E-03 0.361E-03
   0.171E+02 0.356E+02 0.146E+04   -.167E+02 -.355E+02 -.146E+04   -.438E+00 -.167E+00 -.375E+00   -.516E-03 -.131E-03 0.133E-02
   0.792E+02 -.499E+02 0.418E+02   -.790E+02 0.495E+02 -.417E+02   -.183E+00 0.324E+00 -.172E+00   -.310E-03 -.666E-03 0.108E-02
   0.882E+01 0.565E+02 0.244E+04   -.851E+01 -.560E+02 -.244E+04   -.325E+00 -.520E+00 -.280E+01   -.222E-03 0.201E-03 0.107E-02
   -.202E+02 -.502E+02 0.116E+04   0.202E+02 0.506E+02 -.116E+04   -.840E-01 -.332E+00 -.757E+00   0.660E-03 0.242E-03 0.886E-03
   0.219E+02 -.149E+02 0.117E+04   -.215E+02 0.146E+02 -.117E+04   -.413E+00 0.360E+00 -.725E+00   0.426E-03 -.179E-03 0.663E-03
   -.509E+02 -.442E+02 -.263E+02   0.511E+02 0.445E+02 0.260E+02   -.244E+00 -.426E+00 0.370E+00   0.314E-03 0.679E-04 0.691E-03
   0.442E+02 0.148E+02 -.118E+04   -.440E+02 -.146E+02 0.118E+04   -.178E+00 -.218E+00 0.112E+01   -.613E-04 -.543E-03 0.103E-03
   -.818E+02 -.181E+02 -.120E+04   0.817E+02 0.184E+02 0.120E+04   0.193E+00 -.272E+00 0.149E+01   -.393E-04 0.712E-04 -.411E-04
   0.160E+02 -.146E+02 0.243E+04   -.163E+02 0.149E+02 -.243E+04   0.242E+00 -.387E+00 -.325E+01   -.272E-03 -.184E-03 0.451E-03
   -.137E+02 -.510E+02 0.245E+04   0.135E+02 0.499E+02 -.245E+04   0.107E+00 0.115E+01 -.280E+01   0.604E-04 -.184E-03 0.432E-03
   -.333E+02 0.878E+01 0.264E+02   0.338E+02 -.882E+01 -.267E+02   -.562E+00 -.596E-01 0.211E+00   0.625E-03 -.155E-03 0.723E-03
   0.260E+02 0.575E+01 0.336E+02   -.265E+02 -.634E+01 -.336E+02   0.491E+00 0.569E+00 -.285E-01   -.329E-03 -.691E-03 0.889E-03
   -.378E+02 0.571E+01 0.120E+04   0.375E+02 -.545E+01 -.120E+04   0.203E+00 -.272E+00 -.107E+01   0.653E-04 0.303E-03 0.880E-03
   0.520E+02 0.203E+02 -.682E+02   -.519E+02 -.210E+02 0.689E+02   -.121E+00 0.822E+00 -.782E+00   -.472E-03 -.205E-03 0.175E-03
   -.248E+01 -.118E+02 -.114E+02   0.261E+01 0.113E+02 0.110E+02   -.150E+00 0.367E+00 0.456E+00   0.235E-03 0.411E-03 0.405E-03
   -.409E+02 0.287E+02 0.135E+04   0.409E+02 -.286E+02 -.135E+04   0.211E-01 -.213E-01 -.964E-01   -.556E-03 0.563E-03 0.792E-03
   -.241E+02 -.755E+01 0.133E+04   0.244E+02 0.809E+01 -.133E+04   -.241E+00 -.551E+00 -.973E+00   0.975E-04 -.644E-03 0.837E-03
   -.680E+01 -.100E+01 0.272E+04   0.563E+01 0.151E+01 -.271E+04   0.112E+01 -.481E+00 -.241E+01   0.199E-03 0.497E-03 0.116E-03
   0.349E+02 0.199E+02 0.269E+04   -.340E+02 -.202E+02 -.269E+04   -.830E+00 0.341E+00 -.278E+01   0.299E-03 -.259E-03 0.581E-03
   0.715E+02 0.294E+01 0.132E+04   -.718E+02 -.314E+01 -.132E+04   0.269E+00 0.244E+00 -.216E-02   0.199E-03 -.771E-03 0.942E-03
   0.642E+02 0.296E+02 0.130E+04   -.644E+02 -.295E+02 -.130E+04   0.220E+00 -.117E+00 -.941E-01   0.904E-03 -.102E-03 0.102E-02
   0.561E+02 0.292E+02 -.129E+04   -.563E+02 -.297E+02 0.129E+04   0.297E+00 0.541E+00 0.120E+01   -.347E-03 -.300E-03 0.200E-03
   0.499E+02 0.557E+02 0.274E+04   -.506E+02 -.552E+02 -.274E+04   0.651E+00 -.555E+00 -.181E+01   -.830E-03 0.771E-04 0.453E-03
   0.502E+02 0.308E+02 -.184E+01   -.508E+02 -.303E+02 0.182E+01   0.607E+00 -.585E+00 -.313E-01   -.114E-03 -.384E-03 0.873E-03
   0.212E+02 0.758E+02 -.150E+02   -.211E+02 -.748E+02 0.153E+02   -.357E-01 -.104E+01 -.417E+00   -.173E-03 -.186E-03 0.553E-03
   0.102E+03 0.464E+02 0.319E+02   -.101E+03 -.462E+02 -.321E+02   -.588E+00 -.260E+00 0.979E-01   0.922E-04 0.936E-04 0.104E-02
   -.796E+02 -.108E+03 0.909E+01   0.800E+02 0.108E+03 -.925E+01   -.433E+00 0.358E+00 0.138E+00   0.105E-03 -.222E-03 0.799E-03
   0.193E+00 0.308E+01 -.346E+03   -.262E+00 -.322E+01 0.348E+03   0.885E-01 0.144E+00 -.195E+01   0.317E-04 0.537E-05 -.138E-03
 -----------------------------------------------------------------------------------------------
   -.418E+00 -.868E+00 -.112E+01   0.407E-12 -.431E-12 0.116E-10   0.428E+00 0.862E+00 0.110E+01   -.475E-03 -.271E-03 0.268E-01
 
 
 POSITION                                       TOTAL-FORCE (eV/Angst)
 -----------------------------------------------------------------------------------
     12.95799      8.01025      6.97574         0.006736      0.005637     -0.000435
      5.11766      8.05140      6.95411         0.006857      0.025185     -0.004703
      5.02800      3.43228      7.06624        -0.000168      0.009933     -0.005860
     14.32918      8.74793      9.32905         0.007167      0.009993      0.002527
      3.75057      4.17998      9.39622        -0.009394      0.011556     -0.003836
      6.41530      8.76141      9.28342         0.016925      0.005198     -0.000415
     11.68306      4.17933      9.29534        -0.004580     -0.008484      0.000007
      9.02301      8.74275      9.17933         0.029852      0.010126      0.004345
     10.36240      1.90796      9.29072         0.004734     -0.006924     -0.003045
      2.43925      1.89880      9.29568         0.005473      0.006276     -0.015000
     11.68025      8.74872      9.46964        -0.000847      0.004300     -0.022329
     12.99660      6.46158      9.35773         0.009371     -0.000947     -0.004349
      5.05944      1.91228      9.54818         0.013139      0.011526     -0.027524
      7.72824      6.47619      9.38940         0.011762      0.006939     -0.004284
      9.05147      4.19470      9.33658        -0.006402      0.005087     -0.000405
      5.07691      6.47080      9.34977         0.006371     -0.003597      0.005972
      7.74221      1.90765      9.31908         0.011525      0.014592      0.002596
      7.80605      3.38020      6.98592         0.007096      0.000817      0.000325
      6.31642      1.09831      6.94762        -0.001833      0.011966      0.005238
      6.42748      1.11951      0.84379        -0.001157      0.034051      0.009061
      3.74457      4.22498      2.80295         0.002059      0.010159     -0.028125
      1.13454      1.22115      6.89190         0.007175      0.005446      0.001027
      1.05351      1.23301      0.75714        -0.004409      0.008850      0.004505
      6.37970      8.73232      2.89580         0.000106      0.009866      0.016959
      6.40213      4.20352      9.39499         0.017867      0.007142     -0.000784
      7.71519      4.98986      4.84188        -0.012450     -0.047969      0.002919
     10.34421      6.47325      9.31738        -0.002131      0.016831     -0.014211
     14.36690      7.24966      4.78751        -0.045494      0.002679     -0.082554
     11.63206      5.68874      7.01631         0.010819      0.006002     -0.022566
      6.42762      5.76145      7.02326         0.000445      0.004315     -0.000213
      3.72880      2.59487      4.89932         0.062023      0.005361      0.049827
     10.40714      4.90964      4.85294         0.004178     -0.000866      0.009270
      3.72996      5.69905      7.05699         0.006133      0.007240      0.005133
     13.01076      7.95414      0.82285        -0.015229      0.027081     -0.010435
      5.07062      7.97664      0.75916        -0.003087      0.017018     -0.002567
      3.74725      5.77233      0.77268         0.004386      0.004730     -0.010064
      7.73906      1.95923      2.91892         0.011151      0.004046     -0.010686
      9.04575      8.78897      2.87226        -0.002683     -0.010103      0.005329
      2.43067      3.45869      7.05144         0.006290      0.003928     -0.006695
      2.40788      3.44595      0.73676        -0.003513      0.022677     -0.002232
     10.29842      1.96823      2.88139         0.023767     -0.006808     -0.007021
     13.01351      4.98805      4.94410         0.015393     -0.020391     -0.026279
      3.72265      1.09036      7.02684         0.003736      0.001962      0.005650
      9.03571      5.75772      7.06790         0.002792      0.006160     -0.012400
      3.74683      1.15285      0.81959         0.001289      0.002742      0.007356
      9.06513      5.72471      0.92537        -0.014522      0.023353     -0.001539
      5.21212      3.41637      0.86086        -0.011588      0.005807     -0.011913
     11.65625      8.70496      2.91787        -0.018035     -0.014995      0.013197
     11.62151      7.29974      4.90178         0.061725     -0.000969      0.027316
     12.89980      6.49745      2.82364         0.014527     -0.011971     -0.003660
      9.01343      4.18612      2.81919         0.008100      0.018515     -0.015477
      7.79817      7.99843      6.94916        -0.018196     -0.000065      0.016623
      7.81053      7.92859      0.86888        -0.018854     -0.002213      0.011899
     10.31657      6.54831      2.89472         0.013605     -0.003154     -0.011239
      2.46166      0.31661      4.92733        -0.007967     -0.036549     -0.038822
      7.75154      3.52543      0.86333         0.000439      0.003856      0.006743
      5.10291      1.89984      2.87069        -0.001833      0.022308      0.000639
      5.17349      6.40557      2.77226        -0.014098      0.020305      0.036407
      7.65418      0.39388      4.89233        -0.039595     -0.039768      0.111032
      9.05598      1.14129      7.11191         0.002646      0.004859     -0.013384
     10.30495      7.97705      6.98259         0.001509      0.004471      0.011853
      9.02330      1.20380      0.78512        -0.016294     -0.007238      0.008966
     10.37425      7.90856      0.90129        -0.039405      0.012426      0.005266
      5.10488      4.93977      4.94140         0.023950     -0.056239      0.009861
     11.69653      2.64892      4.87494        -0.022264     -0.021641     -0.000048
     14.26247      8.83804      2.80295        -0.028903      0.010227     -0.030890
      9.09183      2.62352      4.93970        -0.013251     -0.018685      0.002555
      6.39598      2.67997      4.92292        -0.023382     -0.083923      0.084138
     11.64052      4.17844      2.78900        -0.015724      0.013074      0.009616
      2.34972      1.92500      2.86197         0.003173      0.007488     -0.021739
     11.59075      5.72177      0.94802        -0.025531      0.004476     -0.007570
      6.50379      5.69604      0.91052        -0.002542      0.010131     -0.001551
      7.71278      6.45493      2.81038        -0.010055      0.013887      0.045445
      6.43155      4.20716      2.83788         0.011263     -0.014670      0.001217
     10.35898      3.37336      7.00354         0.001855      0.011770      0.026013
     10.36553      3.54396      0.90454        -0.019431      0.002809     -0.020804
     10.23662      0.46679      4.91587        -0.044483     -0.039788      0.017604
      9.06408      7.34028      4.95059         0.005626     -0.041637     -0.032838
      6.48344      7.27349      4.94428         0.018749     -0.051403     -0.038323
      5.04827      0.31035      4.87551         0.018680      0.011753      0.035094
      5.65717      0.68365     10.64490         0.016865      0.002066     -0.040716
 -----------------------------------------------------------------------------------
    total drift:                                0.009521     -0.006040      0.006713


--------------------------------------------------------------------------------------------------------



  FREE ENERGIE OF THE ION-ELECTRON SYSTEM (eV)
  ---------------------------------------------------
  free  energy   TOTEN  =      -514.86077736 eV

  energy  without entropy=     -514.86252529  energy(sigma->0) =     -514.86136000
 


--------------------------------------------------------------------------------------------------------


    POTLOK:  cpu time    0.6428: real time    0.6448


--------------------------------------------------------------------------------------------------------




--------------------------------------------------------------------------------------------------------


  
 reached required accuracy - stopping structural energy minimisation
     LOOP+:  cpu time 6285.8170: real time 6303.0704
    4ORBIT:  cpu time    0.0000: real time    0.0000

 total amount of memory used by VASP MPI-rank0   259142. kBytes
=======================================================================

   base      :      30000. kBytes
   nonlr-proj:      34688. kBytes
   fftplans  :      17962. kBytes
   grid      :      55536. kBytes
   one-center:        653. kBytes
   wavefun   :     120303. kBytes
 
  
  
 General timing and accounting informations for this job:
 ========================================================
  
                  Total CPU time used (sec):     6316.732
                            User time (sec):     6306.358
                          System time (sec):       10.375
                         Elapsed time (sec):     6334.869
  
                   Maximum memory used (kb):      752604.
                   Average memory used (kb):           0.
  
                          Minor page faults:      1521522
                          Major page faults:            0
                 Voluntary context switches:         5308
