 vasp.5.4.4.18Apr17-6-g9f103f2a35 (build Nov 30 2020 22:55:02) complex          
  
 executed on             LinuxIFC date 2023.07.29  23:16:57
 running on   40 total cores
 distrk:  each k-point on   40 cores,    1 groups
 distr:  one band on NCORES_PER_BAND=   4 cores,   10 groups


--------------------------------------------------------------------------------------------------------


 INCAR:
 POTCAR:    PAW_PBE Pt 04Feb2005                  
 POTCAR:    PAW_PBE Cu 22Jun2005                  
 POTCAR:    PAW_PBE Ni 02Aug2007                  
 POTCAR:    PAW_PBE Fe 06Sep2000                  
 POTCAR:    PAW_PBE Co 02Aug2007                  
 POTCAR:    PAW_PBE H 15Jun2001                   
 POTCAR:    PAW_PBE Pt 04Feb2005                  
   VRHFIN =Pt: s1d9                                                             
   LEXCH  = PE                                                                  
   EATOM  =   729.1176 eV,   53.5886 Ry                                         
                                                                                
   TITEL  = PAW_PBE Pt 04Feb2005                                                
   LULTRA =        F    use ultrasoft PP ?                                      
   IUNSCR =        1    unscreen: 0-lin 1-nonlin 2-no                           
   RPACOR =    2.330    partial core radius                                     
   POMASS =  195.080; ZVAL   =   10.000    mass and valenz                      
   RCORE  =    2.600    outmost cutoff radius                                   
   RWIGS  =    2.750; RWIGS  =    1.455    wigner-seitz radius (au A)           
   ENMAX  =  230.283; ENMIN  =  172.712 eV                                      
   ICORE  =        3    local potential                                         
   LCOR   =        T    correct aug charges                                     
   LPAW   =        T    paw PP                                                  
   EAUG   =  358.966                                                            
   DEXC   =    0.000                                                            
   RMAX   =    2.658    core radius for proj-oper                               
   RAUG   =    1.300    factor for augmentation sphere                          
   RDEP   =    2.761    radius for radial grids                                 
   RDEPT  =    2.203    core radius for aug-charge                              
                                                                                
   Atomic configuration                                                         
   16 entries                                                                   
     n  l   j            E        occ.                                          
     1  0  0.50    -78401.1885   2.0000                                         
     2  0  0.50    -13770.7750   2.0000                                         
     2  1  1.50    -11931.0468   6.0000                                         
     3  0  0.50     -3234.7234   2.0000                                         
     3  1  1.50     -2699.2216   6.0000                                         
     3  2  2.50     -2119.5714  10.0000                                         
     4  0  0.50      -695.1528   2.0000                                         
     4  1  1.50      -519.6034   6.0000                                         
     4  2  2.50      -306.6786  10.0000                                         
     4  3  3.50       -70.1041  14.0000                                         
     5  0  0.50      -101.7747   2.0000                                         
     5  1  1.50       -55.9873   6.0000                                         
     5  2  2.50        -6.1423   9.0000                                         
     6  0  0.50        -5.6573   1.0000                                         
     6  1  1.50        -6.8029   0.0000                                         
     5  3  2.50        -1.3606   0.0000                                         
   Description                                                                  
     l       E           TYP  RCUT    TYP  RCUT                                 
     2     -6.1423404     23  2.500                                             
     2     -7.5029230     23  2.500                                             
     0     -5.6573207     23  2.500                                             
     0      0.7416693     23  2.500                                             
     1     -2.7211652     23  2.600                                             
     1     20.4087390     23  2.600                                             
     3     -1.3605826     23  2.500                                             
  local pseudopotential read in
  partial core-charges read in
  partial kinetic energy density read in
  atomic valenz-charges read in
  non local Contribution for L=           2  read in
    real space projection operators read in
  non local Contribution for L=           2  read in
    real space projection operators read in
  non local Contribution for L=           0  read in
    real space projection operators read in
  non local Contribution for L=           0  read in
    real space projection operators read in
  non local Contribution for L=           1  read in
    real space projection operators read in
  non local Contribution for L=           1  read in
    real space projection operators read in
    PAW grid and wavefunctions read in
 
   number of l-projection  operators is LMAX  =           6
   number of lm-projection operators is LMMAX =          18
 
 POTCAR:    PAW_PBE Cu 22Jun2005                  
   VRHFIN =Cu: d10 p1                                                           
   LEXCH  = PE                                                                  
   EATOM  =  1390.9808 eV,  102.2342 Ry                                         
                                                                                
   TITEL  = PAW_PBE Cu 22Jun2005                                                
   LULTRA =        F    use ultrasoft PP ?                                      
   IUNSCR =        1    unscreen: 0-lin 1-nonlin 2-no                           
   RPACOR =    2.000    partial core radius                                     
   POMASS =   63.546; ZVAL   =   11.000    mass and valenz                      
   RCORE  =    2.300    outmost cutoff radius                                   
   RWIGS  =    2.200; RWIGS  =    1.164    wigner-seitz radius (au A)           
   ENMAX  =  295.446; ENMIN  =  221.585 eV                                      
   ICORE  =        3    local potential                                         
   LCOR   =        T    correct aug charges                                     
   LPAW   =        T    paw PP                                                  
   EAUG   =  586.980                                                            
   DEXC   =    0.000                                                            
   RMAX   =    2.344    core radius for proj-oper                               
   RAUG   =    1.300    factor for augmentation sphere                          
   RDEP   =    2.302    radius for radial grids                                 
   RDEPT  =    1.771    core radius for aug-charge                              
                                                                                
   Atomic configuration                                                         
    9 entries                                                                   
     n  l   j            E        occ.                                          
     1  0  0.50     -8850.2468   2.0000                                         
     2  0  0.50     -1062.3498   2.0000                                         
     2  1  1.50      -916.8226   6.0000                                         
     3  0  0.50      -114.6929   2.0000                                         
     3  1  1.50       -72.1325   6.0000                                         
     3  2  2.50        -5.0394  10.0000                                         
     4  0  0.50        -4.6097   1.0000                                         
     4  1  0.50        -4.0817   0.0000                                         
     4  3  2.50        -1.3606   0.0000                                         
   Description                                                                  
     l       E           TYP  RCUT    TYP  RCUT                                 
     2     -5.0393973     23  2.200                                             
     2     10.8846608     23  2.200                                             
     0     -4.6097109     23  2.200                                             
     0      8.2520465     23  2.200                                             
     1     -2.7211652     23  2.200                                             
     1     21.7055443     23  2.200                                             
     3      2.7211652     23  2.300                                             
  local pseudopotential read in
  partial core-charges read in
  partial kinetic energy density read in
  atomic valenz-charges read in
  non local Contribution for L=           2  read in
    real space projection operators read in
  non local Contribution for L=           2  read in
    real space projection operators read in
  non local Contribution for L=           0  read in
    real space projection operators read in
  non local Contribution for L=           0  read in
    real space projection operators read in
  non local Contribution for L=           1  read in
    real space projection operators read in
  non local Contribution for L=           1  read in
    real space projection operators read in
    PAW grid and wavefunctions read in
 
   number of l-projection  operators is LMAX  =           6
   number of lm-projection operators is LMMAX =          18
 
 POTCAR:    PAW_PBE Ni 02Aug2007                  
   VRHFIN =Ni:                                                                  
   LEXCH  = PE                                                                  
   EATOM  =  1077.6739 eV,   79.2068 Ry                                         
                                                                                
   TITEL  = PAW_PBE Ni 02Aug2007                                                
   LULTRA =        F    use ultrasoft PP ?                                      
   IUNSCR =        1    unscreen: 0-lin 1-nonlin 2-no                           
   RPACOR =    2.000    partial core radius                                     
   POMASS =   58.690; ZVAL   =   10.000    mass and valenz                      
   RCORE  =    2.300    outmost cutoff radius                                   
   RWIGS  =    2.430; RWIGS  =    1.286    wigner-seitz radius (au A)           
   ENMAX  =  269.532; ENMIN  =  202.149 eV                                      
   RCLOC  =    1.201    cutoff for local pot                                    
   LCOR   =        T    correct aug charges                                     
   LPAW   =        T    paw PP                                                  
   EAUG   =  544.565                                                            
   DEXC   =    0.000                                                            
   RMAX   =    2.357    core radius for proj-oper                               
   RAUG   =    1.300    factor for augmentation sphere                          
   RDEP   =    2.390    radius for radial grids                                 
   RDEPT  =    1.838    core radius for aug-charge                              
                                                                                
   Atomic configuration                                                         
    9 entries                                                                   
     n  l   j            E        occ.                                          
     1  0  0.50     -8206.4253   2.0000                                         
     2  0  0.50      -976.1748   2.0000                                         
     2  1  1.50      -839.0571   6.0000                                         
     3  0  0.50      -105.9991   2.0000                                         
     3  1  1.50       -66.4603   6.0000                                         
     3  2  2.50        -4.6458   9.0000                                         
     4  0  0.50        -4.4926   1.0000                                         
     4  1  1.50        -4.0817   0.0000                                         
     4  3  2.50        -1.3606   0.0000                                         
   Description                                                                  
     l       E           TYP  RCUT    TYP  RCUT                                 
     2     -4.6457903     23  2.300                                             
     2     -6.0063729     23  2.300                                             
     0     -4.4925590     23  2.300                                             
     0      5.0102601     23  2.300                                             
     1     -2.7211652     23  2.300                                             
     1     16.5183231     23  2.300                                             
  local pseudopotential read in
  partial core-charges read in
  partial kinetic energy density read in
  atomic valenz-charges read in
  non local Contribution for L=           2  read in
    real space projection operators read in
  non local Contribution for L=           2  read in
    real space projection operators read in
  non local Contribution for L=           0  read in
    real space projection operators read in
  non local Contribution for L=           0  read in
    real space projection operators read in
  non local Contribution for L=           1  read in
    real space projection operators read in
  non local Contribution for L=           1  read in
    real space projection operators read in
    PAW grid and wavefunctions read in
 
   number of l-projection  operators is LMAX  =           6
   number of lm-projection operators is LMMAX =          18
 
 POTCAR:    PAW_PBE Fe 06Sep2000                  
   VRHFIN =Fe:  d7 s1                                                           
   LEXCH  = PE                                                                  
   EATOM  =   594.3153 eV,   43.6809 Ry                                         
                                                                                
   TITEL  = PAW_PBE Fe 06Sep2000                                                
   LULTRA =        F    use ultrasoft PP ?                                      
   IUNSCR =        1    unscreen: 0-lin 1-nonlin 2-no                           
   RPACOR =    2.000    partial core radius                                     
   POMASS =   55.847; ZVAL   =    8.000    mass and valenz                      
   RCORE  =    2.300    outmost cutoff radius                                   
   RWIGS  =    2.460; RWIGS  =    1.302    wigner-seitz radius (au A)           
   ENMAX  =  267.882; ENMIN  =  200.911 eV                                      
   RCLOC  =    1.701    cutoff for local pot                                    
   LCOR   =        T    correct aug charges                                     
   LPAW   =        T    paw PP                                                  
   EAUG   =  511.368                                                            
   DEXC   =    0.000                                                            
   RMAX   =    2.356    core radius for proj-oper                               
   RAUG   =    1.300    factor for augmentation sphere                          
   RDEP   =    2.442    radius for radial grids                                 
   RDEPT  =    1.890    core radius for aug-charge                              
                                                                                
   Atomic configuration                                                         
    9 entries                                                                   
     n  l   j            E        occ.                                          
     1  0  0.50     -6993.8440   2.0000                                         
     2  0  0.50      -814.6047   2.0000                                         
     2  1  1.50      -693.3689   6.0000                                         
     3  0  0.50       -89.4732   2.0000                                         
     3  1  1.50       -55.6373   6.0000                                         
     3  2  2.50        -3.8151   7.0000                                         
     4  0  0.50        -4.2551   1.0000                                         
     4  1  1.50        -3.4015   0.0000                                         
     4  3  2.50        -1.3606   0.0000                                         
   Description                                                                  
     l       E           TYP  RCUT    TYP  RCUT                                 
     2     -3.8151135     23  2.300                                             
     2     -5.1756961     23  2.300                                             
     0     -4.2550963     23  2.300                                             
     0      7.2035603     23  2.300                                             
     1     -2.7211652     23  2.300                                             
     1     18.4316424     23  2.300                                             
  local pseudopotential read in
  partial core-charges read in
  partial kinetic energy density read in
  atomic valenz-charges read in
  non local Contribution for L=           2  read in
    real space projection operators read in
  non local Contribution for L=           2  read in
    real space projection operators read in
  non local Contribution for L=           0  read in
    real space projection operators read in
  non local Contribution for L=           0  read in
    real space projection operators read in
  non local Contribution for L=           1  read in
    real space projection operators read in
  non local Contribution for L=           1  read in
    real space projection operators read in
    PAW grid and wavefunctions read in
 
   number of l-projection  operators is LMAX  =           6
   number of lm-projection operators is LMMAX =          18
 
 POTCAR:    PAW_PBE Co 02Aug2007                  
   VRHFIN =Co: d8 s1                                                            
   LEXCH  = PE                                                                  
   EATOM  =   813.3670 eV,   59.7808 Ry                                         
                                                                                
   TITEL  = PAW_PBE Co 02Aug2007                                                
   LULTRA =        F    use ultrasoft PP ?                                      
   IUNSCR =        1    unscreen: 0-lin 1-nonlin 2-no                           
   RPACOR =    2.000    partial core radius                                     
   POMASS =   58.933; ZVAL   =    9.000    mass and valenz                      
   RCORE  =    2.300    outmost cutoff radius                                   
   RWIGS  =    2.460; RWIGS  =    1.302    wigner-seitz radius (au A)           
   ENMAX  =  267.968; ENMIN  =  200.976 eV                                      
   RCLOC  =    1.203    cutoff for local pot                                    
   LCOR   =        T    correct aug charges                                     
   LPAW   =        T    paw PP                                                  
   EAUG   =  477.818                                                            
   DEXC   =    0.000                                                            
   RMAX   =    2.360    core radius for proj-oper                               
   RAUG   =    1.300    factor for augmentation sphere                          
   RDEP   =    2.393    radius for radial grids                                 
   RDEPT  =    1.864    core radius for aug-charge                              
                                                                                
   Atomic configuration                                                         
    9 entries                                                                   
     n  l   j            E        occ.                                          
     1  0  0.50     -7587.6674   2.0000                                         
     2  0  0.50      -893.6084   2.0000                                         
     2  1  1.50      -764.5805   6.0000                                         
     3  0  0.50       -97.5973   2.0000                                         
     3  1  1.50       -60.9648   6.0000                                         
     3  2  2.50        -4.2382   8.0000                                         
     4  0  0.50        -4.3746   1.0000                                         
     4  1  1.50        -4.0817   0.0000                                         
     4  3  2.50        -1.3606   0.0000                                         
   Description                                                                  
     l       E           TYP  RCUT    TYP  RCUT                                 
     2     -4.2382362     23  2.300                                             
     2     -5.5988188     23  2.300                                             
     0     -4.3745797     23  2.300                                             
     0      5.7660125     23  2.300                                             
     1     -2.7211652     23  2.300                                             
     1     16.9860234     23  2.300                                             
  local pseudopotential read in
  partial core-charges read in
  partial kinetic energy density read in
  atomic valenz-charges read in
  non local Contribution for L=           2  read in
    real space projection operators read in
  non local Contribution for L=           2  read in
    real space projection operators read in
  non local Contribution for L=           0  read in
    real space projection operators read in
  non local Contribution for L=           0  read in
    real space projection operators read in
  non local Contribution for L=           1  read in
    real space projection operators read in
  non local Contribution for L=           1  read in
    real space projection operators read in
    PAW grid and wavefunctions read in
 
   number of l-projection  operators is LMAX  =           6
   number of lm-projection operators is LMMAX =          18
 
 POTCAR:    PAW_PBE H 15Jun2001                   
   VRHFIN =H: ultrasoft test                                                    
   LEXCH  = PE                                                                  
   EATOM  =    12.4884 eV,    0.9179 Ry                                         
                                                                                
   TITEL  = PAW_PBE H 15Jun2001                                                 
   LULTRA =        F    use ultrasoft PP ?                                      
   IUNSCR =        0    unscreen: 0-lin 1-nonlin 2-no                           
   RPACOR =    0.000    partial core radius                                     
   POMASS =    1.000; ZVAL   =    1.000    mass and valenz                      
   RCORE  =    1.100    outmost cutoff radius                                   
   RWIGS  =    0.700; RWIGS  =    0.370    wigner-seitz radius (au A)           
   ENMAX  =  250.000; ENMIN  =  200.000 eV                                      
   RCLOC  =    0.701    cutoff for local pot                                    
   LCOR   =        T    correct aug charges                                     
   LPAW   =        T    paw PP                                                  
   EAUG   =  400.000                                                            
   RMAX   =    1.123    core radius for proj-oper                               
   RAUG   =    1.200    factor for augmentation sphere                          
   RDEP   =    1.112    radius for radial grids                                 
   RDEPT  =    0.926    core radius for aug-charge                              
                                                                                
   Atomic configuration                                                         
    2 entries                                                                   
     n  l   j            E        occ.                                          
     1  0  0.50        -6.4927   1.0000                                         
     2  1  0.50        -3.4015   0.0000                                         
   Description                                                                  
     l       E           TYP  RCUT    TYP  RCUT                                 
     0     -6.4927494     23  1.100                                             
     0      6.8029130     23  1.100                                             
     1     -4.0817478     23  1.100                                             
  local pseudopotential read in
  atomic valenz-charges read in
  non local Contribution for L=           0  read in
    real space projection operators read in
  non local Contribution for L=           0  read in
    real space projection operators read in
  non local Contribution for L=           1  read in
    real space projection operators read in
    PAW grid and wavefunctions read in
 
   number of l-projection  operators is LMAX  =           3
   number of lm-projection operators is LMMAX =           5
 
 Optimization of the real space projectors (new method)

 maximal supplied QI-value         = 14.36
 optimisation between [QCUT,QGAM] = [ 11.92, 23.98] = [ 39.79,161.09] Ry 
 Optimized for a Real-space Cutoff    1.49 Angstroem

   l    n(q)    QCUT    max X(q) W(low)/X(q) W(high)/X(q)  e(spline) 
   2     10    11.920    66.195    0.79E-04    0.18E-03    0.24E-06
   2     10    11.920    64.643    0.81E-04    0.19E-03    0.24E-06
   0     11    11.920    95.520    0.28E-04    0.54E-04    0.18E-06
   0     11    11.920    63.403    0.27E-04    0.52E-04    0.17E-06
   1     10    11.920    19.961    0.18E-04    0.11E-03    0.23E-06
   1     10    11.920    13.289    0.25E-04    0.87E-04    0.19E-06
 Optimization of the real space projectors (new method)

 maximal supplied QI-value         = 16.25
 optimisation between [QCUT,QGAM] = [ 11.86, 23.89] = [ 39.41,159.82] Ry 
 Optimized for a Real-space Cutoff    1.49 Angstroem

   l    n(q)    QCUT    max X(q) W(low)/X(q) W(high)/X(q)  e(spline) 
   2     10    11.864     4.610    0.10E-03    0.20E-03    0.29E-06
   2     10    11.864     8.522    0.17E-03    0.33E-03    0.50E-06
   0     11    11.864    51.609    0.52E-04    0.55E-04    0.33E-06
   0     11    11.864    27.747    0.46E-04    0.52E-04    0.31E-06
   1     10    11.864    20.408    0.54E-04    0.25E-04    0.21E-06
   1     10    11.864    13.425    0.48E-04    0.22E-04    0.18E-06
 Optimization of the real space projectors (new method)

 maximal supplied QI-value         = 16.25
 optimisation between [QCUT,QGAM] = [ 11.86, 23.89] = [ 39.41,159.82] Ry 
 Optimized for a Real-space Cutoff    1.33 Angstroem

   l    n(q)    QCUT    max X(q) W(low)/X(q) W(high)/X(q)  e(spline) 
   2      9    11.864    60.317    0.21E-03    0.51E-03    0.25E-06
   2      9    11.864    55.921    0.21E-03    0.51E-03    0.26E-06
   0      9    11.864    51.690    0.22E-03    0.30E-04    0.17E-06
   0      9    11.864    30.015    0.20E-03    0.28E-04    0.15E-06
   1      9    11.864    18.849    0.76E-04    0.33E-03    0.17E-06
   1      9    11.864    14.624    0.60E-04    0.28E-03    0.15E-06
 Optimization of the real space projectors (new method)

 maximal supplied QI-value         = 16.25
 optimisation between [QCUT,QGAM] = [ 11.86, 23.89] = [ 39.41,159.82] Ry 
 Optimized for a Real-space Cutoff    1.49 Angstroem

   l    n(q)    QCUT    max X(q) W(low)/X(q) W(high)/X(q)  e(spline) 
   2     10    11.864    80.901    0.13E-03    0.23E-03    0.37E-06
   2     10    11.864    75.754    0.13E-03    0.23E-03    0.38E-06
   0     11    11.864    58.752    0.44E-04    0.11E-04    0.20E-06
   0     11    11.864    30.679    0.36E-04    0.10E-04    0.18E-06
   1     10    11.864    17.977    0.31E-04    0.45E-04    0.10E-06
   1     10    11.864    13.559    0.25E-04    0.37E-04    0.89E-07
 Optimization of the real space projectors (new method)

 maximal supplied QI-value         = 16.25
 optimisation between [QCUT,QGAM] = [ 11.86, 23.89] = [ 39.41,159.82] Ry 
 Optimized for a Real-space Cutoff    1.33 Angstroem

   l    n(q)    QCUT    max X(q) W(low)/X(q) W(high)/X(q)  e(spline) 
   2      9    11.864    65.824    0.22E-03    0.53E-03    0.26E-06
   2      9    11.864    61.429    0.22E-03    0.53E-03    0.26E-06
   0      9    11.864    56.174    0.21E-03    0.32E-04    0.15E-06
   0      9    11.864    31.263    0.19E-03    0.30E-04    0.14E-06
   1      9    11.864    19.828    0.63E-04    0.30E-03    0.16E-06
   1      9    11.864    15.139    0.49E-04    0.25E-03    0.13E-06
 Optimization of the real space projectors (new method)

 maximal supplied QI-value         = 34.20
 optimisation between [QCUT,QGAM] = [ 11.97, 23.94] = [ 40.13,160.53] Ry 
 Optimized for a Real-space Cutoff    1.18 Angstroem

   l    n(q)    QCUT    max X(q) W(low)/X(q) W(high)/X(q)  e(spline) 
   0      8    11.971    19.460    0.15E-03    0.31E-03    0.25E-06
   0      8    11.971    12.209    0.13E-03    0.29E-03    0.25E-06
   1      8    11.971     4.655    0.22E-03    0.24E-03    0.21E-06
  PAW_PBE Pt 04Feb2005                  :
 energy of atom  1       EATOM= -729.1176
 kinetic energy error for atom=    0.0021 (will be added to EATOM!!)
  PAW_PBE Cu 22Jun2005                  :
 energy of atom  2       EATOM=-1390.9808
 kinetic energy error for atom=    0.0036 (will be added to EATOM!!)
  PAW_PBE Ni 02Aug2007                  :
 energy of atom  3       EATOM=-1077.6739
 kinetic energy error for atom=    0.0027 (will be added to EATOM!!)
  PAW_PBE Fe 06Sep2000                  :
 energy of atom  4       EATOM= -594.3153
 kinetic energy error for atom=    0.0024 (will be added to EATOM!!)
  PAW_PBE Co 02Aug2007                  :
 energy of atom  5       EATOM= -813.3670
 kinetic energy error for atom=    0.0026 (will be added to EATOM!!)
  PAW_PBE H 15Jun2001                   :
 energy of atom  6       EATOM=  -12.4884
 kinetic energy error for atom=    0.0008 (will be added to EATOM!!)
 
 
 POSCAR: 10.56                                   
  positions in direct lattice
  velocities in cartesian coordinates
 exchange correlation table for  LEXCH =        8
   RHO(1)=    0.500       N(1)  =     2000
   RHO(2)=  100.500       N(2)  =     4000
 


--------------------------------------------------------------------------------------------------------


 ion  position               nearest neighbor table
   1  0.790  0.877  0.316-  49 2.55  59 2.56  19 2.63  33 2.66  61 2.67  60 2.67  29 2.68  28 2.69
                             2 2.71   4 2.81  11 2.84  12 2.86
   2  0.044  0.882  0.316-  79 2.55  77 2.56  60 2.62  30 2.64  22 2.65  28 2.66  52 2.68   1 2.71
                            33 2.74   6 2.78   4 2.86  16 2.90
   3  0.287  0.379  0.320-  64 2.57  39 2.60  33 2.60  68 2.64  31 2.65  19 2.68  43 2.69  30 2.71
                            18 2.78   5 2.79  25 2.82  13 2.82
   4  0.869  0.962  0.424-  17 2.61  11 2.62  12 2.66  60 2.68   9 2.68  16 2.72   6 2.76   1 2.81
                             2 2.86
   5  0.124  0.459  0.427-  81 1.75  10 2.60  16 2.61   7 2.62  12 2.63  13 2.63  25 2.67  39 2.78
                            33 2.79   3 2.79
   6  0.129  0.964  0.421-   8 2.59  10 2.60  14 2.66   9 2.68  16 2.75   4 2.76   2 2.78  52 2.80
                            22 2.85
   7  0.875  0.460  0.423-   9 2.61  12 2.61   5 2.62  10 2.63  15 2.63  27 2.67  39 2.70  29 2.74
                            75 2.77
   8  0.377  0.960  0.419-   6 2.59  11 2.60  27 2.61  14 2.64  43 2.64  13 2.64  10 2.66  61 2.67
                            52 2.70
   9  0.873  0.214  0.422-   7 2.61  15 2.61  17 2.64  60 2.65  10 2.65   6 2.68  75 2.68   4 2.68
                            22 2.83
  10  0.125  0.212  0.423-   6 2.60   5 2.60  13 2.62   7 2.63   9 2.65   8 2.66  39 2.73  43 2.74
                            22 2.84
  11  0.622  0.961  0.424-   8 2.60   4 2.62  27 2.62  13 2.63  17 2.66  12 2.66  61 2.81  19 2.83
                             1 2.84
  12  0.874  0.708  0.425-  81 1.74   7 2.61   5 2.63  27 2.63  16 2.66   4 2.66  11 2.66  33 2.75
                            29 2.81   1 2.86
  13  0.374  0.210  0.428-  10 2.62  11 2.63   5 2.63   8 2.64  17 2.65  25 2.65   3 2.82  43 2.84
                            19 2.90
  14  0.378  0.710  0.426-  27 2.60  15 2.62   8 2.64  25 2.64   6 2.66  16 2.67  44 2.74  30 2.79
                            52 2.86
  15  0.625  0.461  0.424-   9 2.61  14 2.62   7 2.63  27 2.64  25 2.64  17 2.65  44 2.74  18 2.77
                            75 2.80
  16  0.127  0.705  0.425-  81 1.70  25 2.60   5 2.61  12 2.66  14 2.67   4 2.72   6 2.75  33 2.75
                            30 2.79   2 2.90
  17  0.624  0.211  0.425-   4 2.61  25 2.63   9 2.64  15 2.65  13 2.65  11 2.66  60 2.73  18 2.77
                            19 2.90
  18  0.554  0.371  0.318-  67 2.54  75 2.55  60 2.56  68 2.60  26 2.67  44 2.68  19 2.72  30 2.75
                            15 2.77  17 2.77   3 2.78  25 2.90
  19  0.537  0.122  0.315-  59 2.54  68 2.54  80 2.54  43 2.60  61 2.61   1 2.63   3 2.68  18 2.72
                            60 2.75  11 2.83  13 2.90  17 2.90
  20  0.547  0.122  0.038-  57 2.54  37 2.59  48 2.60  62 2.60  47 2.60  34 2.65  45 2.68  63 2.71
                            56 2.75
  21  0.124  0.462  0.127-  36 2.55  47 2.57  40 2.58  58 2.61  42 2.61  64 2.63  31 2.66  69 2.66
                            50 2.67  74 2.69  70 2.69  57 2.69
  22  0.040  0.135  0.313-  65 2.46  75 2.54  55 2.54  77 2.58  39 2.59  43 2.59  60 2.65   2 2.65
                            52 2.74   9 2.83  10 2.84   6 2.85
  23  0.032  0.135  0.034-  70 2.57  62 2.59  40 2.59  41 2.60  76 2.63  45 2.70  24 2.70  35 2.71
                            53 2.86
  24  0.127  0.955  0.132-  79 2.52  55 2.55  53 2.61  35 2.62  77 2.62  58 2.62  73 2.64  70 2.65
                            38 2.67  66 2.68  23 2.70  41 2.74
  25  0.376  0.461  0.427-  16 2.60  17 2.63  15 2.64  14 2.64  13 2.65   5 2.67   3 2.82  30 2.84
                            18 2.90
  26  0.458  0.546  0.220-  73 2.50  74 2.51  51 2.53  79 2.60  64 2.61  30 2.65  68 2.66  18 2.67
                            32 2.69  44 2.71  78 2.71  67 2.74
  27  0.623  0.712  0.424-  14 2.60   8 2.61  11 2.62  12 2.63  15 2.64   7 2.67  44 2.71  61 2.76
                            29 2.77
  28  0.964  0.793  0.218-  66 2.54  50 2.56  58 2.58  77 2.63  42 2.64  64 2.65   2 2.66  79 2.68
                             1 2.69  59 2.70  33 2.74  49 2.75
  29  0.789  0.624  0.319-  44 2.59  42 2.59  32 2.61  39 2.61  75 2.64  61 2.65  49 2.65  33 2.66
                             1 2.68   7 2.74  27 2.77  12 2.81
  30  0.293  0.632  0.319-  79 2.56  44 2.60  64 2.61  52 2.62   2 2.64  26 2.65  33 2.71   3 2.71
                            18 2.75  14 2.79  16 2.79  25 2.84
  31  0.211  0.284  0.223-  57 2.55  70 2.55  65 2.59  55 2.61  43 2.61  80 2.64   3 2.65  21 2.66
                            68 2.67  39 2.67  42 2.71  64 2.72
  32  0.717  0.537  0.221-  69 2.51  54 2.56  51 2.57  65 2.60  29 2.61  42 2.61  75 2.64  67 2.64
                            49 2.68  26 2.69  44 2.75  78 2.78
  33  0.040  0.625  0.321-  42 2.58  39 2.59   3 2.60  64 2.65   1 2.66  29 2.66  30 2.71   2 2.74
                            28 2.74  12 2.75  16 2.75   5 2.79
  34  0.797  0.870  0.037-  50 2.48  66 2.50  36 2.54  48 2.61  35 2.62  63 2.64  71 2.65  20 2.65
                            62 2.72
  35  0.044  0.872  0.035-  58 2.56  36 2.57  66 2.61  24 2.62  34 2.62  72 2.70  23 2.71  62 2.72
                            53 2.74
  36  0.039  0.631  0.035-  58 2.54  34 2.54  21 2.55  35 2.57  50 2.59  40 2.68  71 2.72  72 2.76
                            47 2.78
  37  0.626  0.214  0.133-  68 2.52  59 2.52  67 2.52  41 2.56  51 2.57  56 2.58  66 2.59  20 2.59
                            74 2.60  62 2.60  57 2.64  48 2.76
  38  0.376  0.961  0.131-  80 2.47  53 2.51  55 2.53  78 2.53  63 2.53  45 2.55  54 2.58  48 2.61
                            57 2.62  24 2.67  70 2.69  73 2.69
  39  0.040  0.380  0.321-  22 2.59  33 2.59   3 2.60  42 2.60  29 2.61  75 2.63  65 2.67  31 2.67
                            43 2.70   7 2.70  10 2.73   5 2.78
  40  0.040  0.377  0.033-  69 2.55  21 2.58  23 2.59  76 2.61  70 2.61  45 2.66  71 2.67  36 2.68
                            47 2.81
  41  0.868  0.215  0.131-  67 2.47  65 2.53  76 2.53  77 2.53  37 2.56  51 2.56  62 2.57  69 2.59
                            23 2.60  70 2.61  66 2.63  24 2.74
  42  0.960  0.545  0.225-  33 2.58  29 2.59  39 2.60  50 2.61  32 2.61  21 2.61  28 2.64  64 2.65
                            69 2.68  65 2.69  49 2.70  31 2.71
  43  0.292  0.121  0.320-  52 2.54  55 2.58  22 2.59  19 2.60  61 2.60  31 2.61   8 2.64  80 2.66
                             3 2.69  39 2.70  10 2.74  13 2.84
  44  0.540  0.632  0.321-  61 2.56  52 2.56  29 2.59  30 2.60  78 2.63  18 2.68  26 2.71  27 2.71
                            75 2.73  14 2.74  15 2.74  32 2.75
  45  0.292  0.126  0.037-  38 2.55  57 2.57  70 2.59  40 2.66  53 2.66  20 2.68  23 2.70  47 2.70
                            63 2.74
  46  0.545  0.626  0.042-  73 2.43  51 2.44  54 2.47  71 2.53  53 2.54  76 2.54  63 2.55  72 2.56
                            56 2.56
  47  0.307  0.374  0.039-  74 2.45  57 2.52  56 2.54  21 2.57  20 2.60  72 2.62  45 2.70  36 2.78
                            40 2.81
  48  0.628  0.952  0.133-  49 2.43  80 2.48  59 2.50  63 2.52  50 2.54  54 2.54  20 2.60  34 2.61
                            66 2.61  38 2.61  57 2.66  37 2.76
  49  0.701  0.798  0.223-  48 2.43  54 2.51  80 2.51   1 2.55  78 2.56  50 2.57  61 2.58  59 2.60
                            29 2.65  32 2.68  42 2.70  28 2.75
  50  0.866  0.710  0.128-  71 2.42  34 2.48  48 2.54  28 2.56  49 2.57  54 2.58  36 2.59  42 2.61
                            69 2.64  21 2.67  66 2.71  58 2.84
  51  0.625  0.458  0.128-  56 2.42  76 2.43  46 2.44  26 2.53  41 2.56  37 2.57  32 2.57  74 2.58
                            73 2.62  69 2.63  67 2.64  54 2.70
  52  0.301  0.876  0.316-  78 2.46  55 2.49  61 2.50  79 2.52  43 2.54  44 2.56  30 2.62   2 2.68
                             8 2.70  22 2.74   6 2.80  14 2.86
  53  0.306  0.867  0.039-  73 2.44  38 2.51  46 2.54  63 2.56  72 2.59  24 2.61  45 2.66  35 2.74
                            23 2.86
  54  0.619  0.716  0.132-  63 2.41  71 2.47  46 2.47  49 2.51  78 2.53  48 2.54  32 2.56  38 2.58
                            50 2.58  73 2.61  51 2.70  69 2.72
  55  0.216  0.035  0.224-  52 2.49  78 2.50  79 2.52  38 2.53  22 2.54  24 2.55  43 2.58  80 2.59
                            31 2.61  70 2.62  65 2.68  77 2.79
  56  0.541  0.385  0.039-  51 2.42  74 2.47  72 2.50  47 2.54  46 2.56  37 2.58  76 2.61  62 2.65
                            20 2.75
  57  0.379  0.208  0.130-  47 2.52  20 2.54  31 2.55  68 2.55  80 2.56  45 2.57  38 2.62  37 2.64
                            74 2.66  48 2.66  21 2.69  70 2.75
  58  0.140  0.700  0.126-  72 2.40  74 2.53  36 2.54  73 2.54  35 2.56  28 2.58  21 2.61  64 2.62
                            24 2.62  79 2.68  50 2.84  66 2.84
  59  0.703  0.043  0.222-  48 2.50  37 2.52  19 2.54   1 2.56  66 2.57  77 2.58  49 2.60  80 2.61
                            68 2.61  67 2.65  28 2.70  60 2.73
  60  0.794  0.127  0.323-  18 2.56  75 2.58  77 2.58  67 2.61   2 2.62  22 2.65   9 2.65   1 2.67
                             4 2.68  17 2.73  59 2.73  19 2.75
  61  0.538  0.874  0.318-  78 2.48  52 2.50  44 2.56  49 2.58  80 2.58  43 2.60  19 2.61  29 2.65
                             1 2.67   8 2.67  27 2.76  11 2.81
  62  0.789  0.132  0.036-  66 2.52  41 2.57  23 2.59  20 2.60  37 2.60  56 2.65  76 2.70  35 2.72
                            34 2.72
  63  0.550  0.865  0.041-  54 2.41  71 2.50  48 2.52  38 2.53  46 2.55  53 2.56  34 2.64  20 2.71
                            45 2.74
  64  0.213  0.540  0.225-   3 2.57  74 2.59  68 2.60  30 2.61  26 2.61  58 2.62  21 2.63  33 2.65
                            42 2.65  28 2.65  79 2.71  31 2.72
  65  0.963  0.290  0.222-  70 2.46  22 2.46  41 2.53  69 2.59  31 2.59  32 2.60  67 2.61  75 2.62
                            77 2.63  39 2.67  55 2.68  42 2.69
  66  0.867  0.966  0.127-  34 2.50  62 2.52  28 2.54  59 2.57  77 2.58  37 2.59  35 2.61  48 2.61
                            41 2.63  24 2.68  50 2.71  58 2.84
  67  0.718  0.287  0.225-  77 2.44  41 2.47  37 2.52  18 2.54  75 2.54  65 2.61  60 2.61  51 2.64
                            32 2.64  59 2.65  68 2.70  26 2.74
  68  0.459  0.293  0.224-  37 2.52  19 2.54  57 2.55  74 2.58  18 2.60  64 2.60  59 2.61   3 2.64
                            26 2.66  31 2.67  67 2.70  80 2.73
  69  0.874  0.457  0.127-  76 2.36  71 2.40  32 2.51  40 2.55  65 2.59  70 2.59  41 2.59  51 2.63
                            50 2.64  21 2.66  42 2.68  54 2.72
  70  0.117  0.210  0.130-  65 2.46  31 2.55  23 2.57  69 2.59  45 2.59  41 2.61  40 2.61  55 2.62
                            24 2.65  38 2.69  21 2.69  57 2.75
  71  0.785  0.626  0.043-  69 2.40  50 2.42  54 2.47  76 2.50  63 2.50  46 2.53  34 2.65  40 2.67
                            36 2.72
  72  0.304  0.623  0.041-  73 2.38  58 2.40  74 2.44  56 2.50  46 2.56  53 2.59  47 2.62  35 2.70
                            36 2.76
  73  0.377  0.706  0.128-  72 2.38  46 2.43  53 2.44  26 2.50  58 2.54  74 2.59  79 2.60  54 2.61
                            51 2.62  24 2.64  78 2.68  38 2.69
  74  0.379  0.460  0.129-  72 2.44  47 2.45  56 2.47  26 2.51  58 2.53  51 2.58  68 2.58  73 2.59
                            64 2.59  37 2.60  57 2.66  21 2.69
  75  0.796  0.370  0.318-  22 2.54  67 2.54  18 2.55  60 2.58  65 2.62  39 2.63  32 2.64  29 2.64
                             9 2.68  44 2.73   7 2.77  15 2.80
  76  0.788  0.388  0.041-  69 2.36  51 2.43  71 2.50  41 2.53  46 2.54  40 2.61  56 2.61  23 2.63
                            62 2.70
  77  0.944  0.051  0.223-  67 2.44  41 2.53   2 2.56  22 2.58  66 2.58  60 2.58  59 2.58  24 2.62
                            65 2.63  28 2.63  55 2.79  79 2.79
  78  0.457  0.803  0.225-  52 2.46  80 2.47  61 2.48  55 2.50  38 2.53  54 2.53  49 2.56  79 2.58
                            44 2.63  73 2.68  26 2.71  32 2.78
  79  0.216  0.795  0.225-  52 2.52  24 2.52  55 2.52   2 2.55  30 2.56  78 2.58  73 2.60  26 2.60
                            58 2.68  28 2.68  64 2.71  77 2.79
  80  0.461  0.034  0.222-  78 2.47  38 2.47  48 2.48  49 2.51  19 2.54  57 2.56  61 2.58  55 2.59
                            59 2.61  31 2.64  43 2.66  68 2.73
  81  0.041  0.630  0.463-  16 1.70  12 1.74   5 1.75
 
  LATTYP: Found a hexagonal cell.
 ALAT       =    10.5600004196
 C/A-ratio  =     2.0833332505
  
  Lattice vectors:
  
 A1 = (   5.2800002098,  -9.1452286274,   0.0000000000)
 A2 = ( -10.5600004196,   0.0000000000,   0.0000000000)
 A3 = (   0.0000000000,   0.0000000000, -22.0000000000)


Analysis of symmetry for initial positions (statically):
=====================================================================
 Subroutine PRICEL returns:
 Original cell was already a primitive cell.
 

 Routine SETGRP: Setting up the symmetry group for a 
 hexagonal supercell.


 Subroutine GETGRP returns: Found  1 space group operations
 (whereof  1 operations were pure point group operations)
 out of a pool of 24 trial point group operations.


The static configuration has the point symmetry C_1 .


Analysis of symmetry for dynamics (positions and initial velocities):
=====================================================================
 Subroutine PRICEL returns:
 Original cell was already a primitive cell.
 

 Routine SETGRP: Setting up the symmetry group for a 
 hexagonal supercell.


 Subroutine GETGRP returns: Found  1 space group operations
 (whereof  1 operations were pure point group operations)
 out of a pool of 24 trial point group operations.


The dynamic configuration has the point symmetry C_1 .


Analysis of constrained symmetry for selective dynamics:
=====================================================================
 Subroutine PRICEL returns:
 Original cell was already a primitive cell.
 

 Routine SETGRP: Setting up the symmetry group for a 
 hexagonal supercell.


 Subroutine GETGRP returns: Found  1 space group operations
 (whereof  1 operations were pure point group operations)
 out of a pool of 24 trial point group operations.


The constrained configuration has the point symmetry C_1 .


Analysis of structural, dynamic, and magnetic symmetry:
=====================================================================
 Subroutine PRICEL returns:
 Original cell was already a primitive cell.
 

 Routine SETGRP: Setting up the symmetry group for a 
 hexagonal supercell.


 Subroutine GETGRP returns: Found  1 space group operations
 (whereof  1 operations were pure point group operations)
 out of a pool of 24 trial point group operations.


The magnetic configuration has the point symmetry C_1 .


 Subroutine INISYM returns: Found  1 space group operations
 (whereof  1 operations are pure point group operations),
 and found     1 'primitive' translations

 
 
 KPOINTS: mesh auto                               

Automatic generation of k-mesh.
Space group operators:
 irot       det(A)        alpha          n_x          n_y          n_z        tau_x        tau_y        tau_z
    1     1.000000     0.000001     1.000000     0.000000     0.000000     0.000000     0.000000     0.000000
 
 Subroutine IBZKPT returns following result:
 ===========================================
 
 Found      4 irreducible k-points:
 
 Following reciprocal coordinates:
            Coordinates               Weight
  0.000000  0.000000  0.000000      1.000000
  0.500000  0.000000  0.000000      1.000000
  0.000000  0.500000  0.000000      1.000000
  0.500000  0.500000  0.000000      1.000000
 
 Following cartesian coordinates:
            Coordinates               Weight
  0.000000  0.000000  0.000000      1.000000
  0.047348 -0.027337  0.000000      1.000000
  0.000000  0.054673  0.000000      1.000000
  0.047348  0.027337  0.000000      1.000000
 


--------------------------------------------------------------------------------------------------------




 Dimension of arrays:
   k-points           NKPTS =      4   k-points in BZ     NKDIM =      4   number of bands    NBANDS=    590
   number of dos      NEDOS =    301   number of ions     NIONS =     81
   non local maximal  LDIM  =      6   non local SUM 2l+1 LMDIM =     18
   total plane-waves  NPLWV = ******
   max r-space proj   IRMAX =   7802   max aug-charges    IRDMAX=  33988
   dimension x,y,z NGX =    84 NGY =   84 NGZ =  168
   dimension x,y,z NGXF=   168 NGYF=  168 NGZF=  336
   support grid    NGXF=   168 NGYF=  168 NGZF=  336
   ions per type =              32  13  10  13  12   1
   NGX,Y,Z   is equivalent  to a cutoff of  13.22, 13.22, 12.70 a.u.
   NGXF,Y,Z  is equivalent  to a cutoff of  26.45, 26.45, 25.39 a.u.

 SYSTEM =  Pt111                                   
 POSCAR =  10.56                                   

 Startparameter for this run:
   NWRITE =      2    write-flag & timer
   PREC   = accura    normal or accurate (medium, high low for compatibility)
   ISTART =      0    job   : 0-new  1-cont  2-samecut
   ICHARG =      2    charge: 1-file 2-atom 10-const
   ISPIN  =      2    spin polarized calculation?
   LNONCOLLINEAR =      F non collinear calculations
   LSORBIT =      F    spin-orbit coupling
   INIWAV =      1    electr: 0-lowe 1-rand  2-diag
   LASPH  =      F    aspherical Exc in radial PAW
   METAGGA=      F    non-selfconsistent MetaGGA calc.

 Electronic Relaxation 1
   ENCUT  =  550.0 eV  40.42 Ry    6.36 a.u.  20.19 20.19 42.07*2*pi/ulx,y,z
   ENINI  =  550.0     initial cutoff
   ENAUG  =  587.0 eV  augmentation charge cutoff
   NELM   =    200;   NELMIN=  2; NELMDL= -5     # of ELM steps 
   EDIFF  = 0.1E-04   stopping-criterion for ELM
   LREAL  =      T    real-space projection
   NLSPLINE    = F    spline interpolate recip. space projectors
   LCOMPAT=      F    compatible to vasp.4.4
   GGA_COMPAT  = T    GGA compatible to vasp.4.4-vasp.4.6
   LMAXPAW     = -100 max onsite density
   LMAXMIX     =    2 max onsite mixed and CHGCAR
   VOSKOWN=      0    Vosko Wilk Nusair interpolation
   ROPT   =   -0.00025  -0.00025  -0.00025  -0.00025
   ROPT   =   -0.00025  -0.00025
 Ionic relaxation
   EDIFFG = -.5E-01   stopping-criterion for IOM
   NSW    =    300    number of steps for IOM
   NBLOCK =      1;   KBLOCK =    300    inner block; outer block 
   IBRION =      2    ionic relax: 0-MD 1-quasi-New 2-CG
   NFREE  =      1    steps in history (QN), initial steepest desc. (CG)
   ISIF   =      2    stress and relaxation
   IWAVPR =     11    prediction:  0-non 1-charg 2-wave 3-comb
   ISYM   =      2    0-nonsym 1-usesym 2-fastsym
   LCORR  =      T    Harris-Foulkes like correction to forces

   POTIM  = 0.5000    time-step for ionic-motion
   TEIN   =    0.0    initial temperature
   TEBEG  =    0.0;   TEEND  =   0.0 temperature during run
   SMASS  =  -3.00    Nose mass-parameter (am)
   estimated Nose-frequenzy (Omega)   =  0.10E-29 period in steps =****** mass=  -0.255E-26a.u.
   SCALEE = 1.0000    scale energy and forces
   NPACO  =    256;   APACO  = 16.0  distance and # of slots for P.C.
   PSTRESS=    0.0 pullay stress

  Mass of Ions in am
   POMASS = 195.08 63.55 58.69 55.85 58.93  1.00
  Ionic Valenz
   ZVAL   =  10.00 11.00 10.00  8.00  9.00  1.00
  Atomic Wigner-Seitz radii
   RWIGS  =  -1.00 -1.00 -1.00 -1.00 -1.00 -1.00
  virtual crystal weights 
   VCA    =   1.00  1.00  1.00  1.00  1.00  1.00
   NELECT =     776.0000    total number of electrons
   NUPDOWN=      -1.0000    fix difference up-down

 DOS related values:
   EMIN   =  10.00;   EMAX   =-10.00  energy-range for DOS
   EFERMI =   0.00
   ISMEAR =     1;   SIGMA  =   0.10  broadening in eV -4-tet -1-fermi 0-gaus

 Electronic relaxation 2 (details)
   IALGO  =     68    algorithm
   LDIAG  =      T    sub-space diagonalisation (order eigenvalues)
   LSUBROT=      F    optimize rotation matrix (better conditioning)
   TURBO    =      0    0=normal 1=particle mesh
   IRESTART =      0    0=no restart 2=restart with 2 vectors
   NREBOOT  =      0    no. of reboots
   NMIN     =      0    reboot dimension
   EREF     =   0.00    reference energy to select bands
   IMIX   =      4    mixing-type and parameters
     AMIX     =   0.40;   BMIX     =  1.00
     AMIX_MAG =   1.60;   BMIX_MAG =  1.00
     AMIN     =   0.10
     WC   =   100.;   INIMIX=   1;  MIXPRE=   1;  MAXMIX= -45

 Intra band minimization:
   WEIMIN = 0.0010     energy-eigenvalue tresh-hold
   EBREAK =  0.42E-08  absolut break condition
   DEPER  =   0.30     relativ break condition  

   TIME   =   0.40     timestep for ELM

  volume/ion in A,a.u.               =      26.23       177.01
  Fermi-wavevector in a.u.,A,eV,Ry     =   1.170222  2.211399 18.632091  1.369420
  Thomas-Fermi vector in A             =   2.306684
 
 Write flags
   LWAVE        =      F    write WAVECAR
   LDOWNSAMPLE  =      F    k-point downsampling of WAVECAR
   LCHARG       =      F    write CHGCAR
   LVTOT        =      F    write LOCPOT, total local potential
   LVHAR        =      F    write LOCPOT, Hartree potential only
   LELF         =      F    write electronic localiz. function (ELF)
   LORBIT       =      0    0 simple, 1 ext, 2 COOP (PROOUT), +10 PAW based schemes


 Dipole corrections
   LMONO  =      F    monopole corrections only (constant potential shift)
   LDIPOL =      F    correct potential (dipole corrections)
   IDIPOL =      0    1-x, 2-y, 3-z, 4-all directions 
   EPSILON=  1.0000000 bulk dielectric constant

 Exchange correlation treatment:
   GGA     =    --    GGA type
   LEXCH   =     8    internal setting for exchange type
   VOSKOWN=      0    Vosko Wilk Nusair interpolation
   LHFCALC =     F    Hartree Fock is set to
   LHFONE  =     F    Hartree Fock one center treatment
   AEXX    =    0.0000 exact exchange contribution

 Linear response parameters
   LEPSILON=     F    determine dielectric tensor
   LRPA    =     F    only Hartree local field effects (RPA)
   LNABLA  =     F    use nabla operator in PAW spheres
   LVEL    =     F    velocity operator in full k-point grid
   LINTERFAST=   F  fast interpolation
   KINTER  =     0    interpolate to denser k-point grid
   CSHIFT  =0.1000    complex shift for real part using Kramers Kronig
   OMEGAMAX=  -1.0    maximum frequency
   DEG_THRESHOLD= 0.2000000E-02 threshold for treating states as degnerate
   RTIME   =   -0.100 relaxation time in fs
  (WPLASMAI=    0.000 imaginary part of plasma frequency in eV, 0.658/RTIME)
   DFIELD  = 0.0000000 0.0000000 0.0000000 field for delta impulse in time
 
 Orbital magnetization related:
   ORBITALMAG=     F  switch on orbital magnetization
   LCHIMAG   =     F  perturbation theory with respect to B field
   DQ        =  0.001000  dq finite difference perturbation B field
   LLRAUG    =     F  two centre corrections for induced B field



--------------------------------------------------------------------------------------------------------


 conjugate gradient relaxation of ions
   using selective dynamics as specified on POSCAR
 charge density and potential will be updated during run
 spin polarized calculation
 RMM-DIIS sequential band-by-band and
  variant of blocked Davidson during initial phase
 perform sub-space diagonalisation
    before iterative eigenvector-optimisation
 modified Broyden-mixing scheme, WC =      100.0
 initial mixing is a Kerker type mixing with AMIX =  0.4000 and BMIX =      1.0000
 Hartree-type preconditioning will be used
 using additional bands          202
 real space projection scheme for non local part
 use partial core corrections
 calculate Harris-corrections to forces 
   (improved forces if not selfconsistent)
 use gradient corrections 
 use of overlap-Matrix (Vanderbilt PP)
 Methfessel and Paxton  Order N= 1 SIGMA  =   0.10


--------------------------------------------------------------------------------------------------------


  energy-cutoff  :      550.00
  volume of cell :     2124.62
      direct lattice vectors                 reciprocal lattice vectors
    10.560000420  0.000000000  0.000000000     0.094696966 -0.054673319  0.000000000
     5.280000210  9.145228627  0.000000000     0.000000000  0.109346638  0.000000000
     0.000000000  0.000000000 22.000000000     0.000000000  0.000000000  0.045454545

  length of vectors
    10.560000420 10.560000420 22.000000000     0.109346638  0.109346638  0.045454545


 
 k-points in units of 2pi/SCALE and weight: mesh auto                               
   0.00000000  0.00000000  0.00000000       0.250
   0.04734848 -0.02733666  0.00000000       0.250
   0.00000000  0.05467332  0.00000000       0.250
   0.04734848  0.02733666  0.00000000       0.250
 
 k-points in reciprocal lattice and weights: mesh auto                               
   0.00000000  0.00000000  0.00000000       0.250
   0.50000000  0.00000000  0.00000000       0.250
   0.00000000  0.50000000  0.00000000       0.250
   0.50000000  0.50000000  0.00000000       0.250
 
 position of ions in fractional coordinates (direct lattice) 
   0.78966075  0.87699132  0.31582816
   0.04393882  0.88214341  0.31605232
   0.28653974  0.37856517  0.32012636
   0.86906542  0.96217151  0.42361237
   0.12373211  0.45939747  0.42724070
   0.12936993  0.96419994  0.42147888
   0.87527689  0.45998313  0.42285094
   0.37659405  0.95980243  0.41936449
   0.87274996  0.21436955  0.42155033
   0.12505156  0.21220861  0.42344352
   0.62198977  0.96051358  0.42437942
   0.87403166  0.70807509  0.42521544
   0.37360580  0.21045533  0.42766717
   0.37760335  0.71005808  0.42622146
   0.62529841  0.46139891  0.42402079
   0.12691430  0.70523647  0.42527692
   0.62393134  0.21127627  0.42457877
   0.55381975  0.37118585  0.31757095
   0.53698848  0.12225337  0.31494777
   0.54745577  0.12241455  0.03835403
   0.12360644  0.46198687  0.12740666
   0.03999045  0.13512898  0.31338525
   0.03235129  0.13482511  0.03441534
   0.12671306  0.95484959  0.13162708
   0.37558044  0.46078793  0.42666899
   0.45779299  0.54562474  0.22008560
   0.62259046  0.71227498  0.42425852
   0.96413863  0.79272622  0.21761397
   0.78890433  0.62385503  0.31886247
   0.29315792  0.63210494  0.31907285
   0.21123592  0.28374023  0.22269626
   0.71709822  0.53685317  0.22058810
   0.04024294  0.62513796  0.32101864
   0.79720004  0.86975892  0.03740235
   0.04406258  0.87221915  0.03450723
   0.03926108  0.63118460  0.03512204
   0.62574752  0.21423502  0.13267817
   0.37608349  0.96104394  0.13055742
   0.03988096  0.37987827  0.32078985
   0.03961706  0.37680314  0.03348892
   0.86761936  0.21521963  0.13097207
   0.95962679  0.54542694  0.22473188
   0.29180541  0.12086216  0.31997602
   0.53973416  0.63166777  0.32130311
   0.29178315  0.12606023  0.03725420
   0.54545151  0.62597825  0.04206242
   0.30678791  0.37356804  0.03912988
   0.62788283  0.95185769  0.13263039
   0.70142059  0.79820208  0.22280830
   0.86633517  0.71047377  0.12834734
   0.62467538  0.45773867  0.12814478
   0.30056912  0.87625620  0.31618976
   0.30615091  0.86696452  0.03949459
   0.61892989  0.71603521  0.13157826
   0.21580132  0.03462027  0.22396955
   0.54130035  0.38549347  0.03924212
   0.37935969  0.20774149  0.13048593
   0.13970060  0.70042731  0.12601187
   0.70329280  0.04306983  0.22237866
   0.79417487  0.12723489  0.32288839
   0.53830947  0.87424721  0.31820141
   0.78866377  0.13163117  0.03568706
   0.55002307  0.86477454  0.04096764
   0.21334288  0.54014670  0.22460931
   0.96280137  0.28964998  0.22158834
   0.86740749  0.96641026  0.12740667
   0.71753219  0.28687300  0.22453182
   0.45915719  0.29304584  0.22376919
   0.87387308  0.45689803  0.12677291
   0.11726506  0.21049175  0.13008946
   0.78478084  0.62565658  0.04309165
   0.30446760  0.62284293  0.04138738
   0.37746416  0.70582480  0.12774454
   0.37902910  0.46003850  0.12899471
   0.79579489  0.37045697  0.31848945
   0.78782398  0.38752064  0.04111567
   0.94385566  0.05104212  0.22344851
   0.45702340  0.80263442  0.22502694
   0.21629647  0.79533135  0.22474012
   0.46108857  0.03393525  0.22161390
   0.04058420  0.62986727  0.46313028
 
 position of ions in cartesian coordinates  (Angst):
  12.96933215  8.02028612  6.94821946
   5.12171136  8.06740315  6.95315098
   5.02468400  3.46206507  7.04277984
  14.25759700  8.79927844  9.31947204
   3.73222993  4.20129493  9.39929530
   6.45712244  8.81782888  9.27253537
  11.67163531  4.20665087  9.30272061
   9.04459036  8.77761264  9.22601888
  10.34811119  1.96045855  9.27410718
   2.44100603  1.94069627  9.31575735
  11.63972415  8.78411628  9.33634725
  12.96841135  6.47550855  9.35473958
   5.05648162  1.92466212  9.40867767
   7.73659834  6.49364348  9.37687203
   9.03933781  4.21959848  9.32845738
   5.06386376  6.44954880  9.35609234
   7.70425395  1.93216976  9.34073294
   7.80819821  3.39457950  6.98656090
   6.31609637  1.11803506  6.92885099
   6.42748199  1.11950902  0.84378857
   3.74457485  4.22497551  2.80294662
   1.13578014  1.23578538  6.89447560
   1.05350625  1.23300646  0.75713746
   6.37969601  8.73231780  2.89579587
   6.39908994  4.21401098  9.38671783
   7.71519296  4.98986301  4.84188323
  10.33536759  6.51391754  9.33368744
  14.36689896  7.24966250  4.78750741
  11.62478471  5.70529691  7.01497445
   6.43326201  5.78074421  7.01960268
   3.72879985  2.59486929  4.89931774
  10.40714241  4.90964500  4.85293829
   3.72569409  5.71702961  7.06241001
  13.01076010  7.95414421  0.82285169
   5.07061818  7.97664351  0.75915899
   3.74725186  5.77232751  0.77268479
   7.73905501  1.95922823  2.91891969
   9.04575401  8.78896659  2.87226322
   2.42690033  3.47407364  7.05737670
   2.40787681  3.44595088  0.73675630
  10.29842047  1.96823277  2.88138548
  13.01351367  4.98805409  4.94410139
   3.71961751  1.10531211  7.03947253
   9.03479888  5.77674615  7.06866837
   3.74682824  1.15284966  0.81959249
   9.06513349  5.72471418  0.92537331
   5.21211980  3.41636512  0.86085731
  11.65625177  8.70495616  2.91786869
  11.62150883  7.29974048  4.90178269
  12.89980144  6.49744505  2.82364142
   9.01343253  4.18612478  2.81918506
   7.80064292  8.01356328  6.95617471
   7.81052654  7.92858872  0.86888091
  10.31656596  6.54830568  2.89472164
   2.46165709  0.31661030  4.92733016
   7.75153750  3.52542591  0.86332671
   5.10291361  1.89984346  2.87069041
   5.17349471  6.40556785  2.77226120
   7.65418102  0.39388344  4.89233061
   9.05828726  1.16359219  7.10354451
  10.30057364  7.99519058  7.00043101
   9.02330237  1.20379713  0.78511532
  10.37425363  7.90856090  0.90128811
   5.10487562  4.93976509  4.94140483
  11.69653478  2.64891530  4.87494337
  14.26246981  8.83804282  2.80294666
   9.09182970  2.62351917  4.93970002
   6.39598222  2.67997121  4.92292219
  11.64052176  4.17843690  2.78900405
   2.34971562  1.92499520  2.86196808
  11.59075286  5.72177244  0.94801637
   6.50378879  5.69604102  0.91052233
   7.71277679  6.45492912  2.81037998
   6.43155077  4.20715724  2.83788366
  10.35960732  3.38791373  7.00676796
  10.36553066  3.54396488  0.90454481
  10.23661853  0.46679185  4.91586728
   9.06407717  7.34027527  4.95059278
   6.48344052  7.27348698  4.94428261
   5.04827358  0.31034563  4.87550584
   3.75426847  5.76028019 10.18886614
 


--------------------------------------------------------------------------------------------------------


 k-point  1 :   0.0000 0.0000 0.0000  plane waves:   62167
 k-point  2 :   0.5000 0.0000 0.0000  plane waves:   62242
 k-point  3 :   0.0000 0.5000 0.0000  plane waves:   62242
 k-point  4 :   0.5000 0.5000 0.0000  plane waves:   62242

 maximum and minimum number of plane-waves per node :     15586    15521

 maximum number of plane-waves:     62242
 maximum index in each direction: 
   IXMAX=   20   IYMAX=   20   IZMAX=   42
   IXMIN=  -20   IYMIN=  -20   IZMIN=  -42


 real space projection operators:
  total allocation   :      77826.26 KBytes
  max/ min on nodes  :      19476.55      19427.45


 parallel 3D FFT for wavefunctions:
    minimum data exchange during FFTs selected (reduces bandwidth)
 parallel 3D FFT for charge:
    minimum data exchange during FFTs selected (reduces bandwidth)


 total amount of memory used by VASP MPI-rank0   259158. kBytes
=======================================================================

   base      :      30000. kBytes
   nonlr-proj:      34704. kBytes
   fftplans  :      17962. kBytes
   grid      :      55536. kBytes
   one-center:        653. kBytes
   wavefun   :     120303. kBytes
 
     INWAV:  cpu time    0.0001: real time    0.0001
 Broyden mixing: mesh for mixing (old mesh)
   NGX = 41   NGY = 41   NGZ = 85
  (NGX  =168   NGY  =168   NGZ  =336)
  gives a total of 142885 points

 initial charge density was supplied:
 charge density of overlapping atoms calculated
 number of electron     776.0000000 magnetization     233.0000000
 keeping initial charge density in first step


--------------------------------------------------------------------------------------------------------


 Maximum index for non-local projection operator         1905
 Maximum index for augmentation-charges         2130 (set IRDMAX)


--------------------------------------------------------------------------------------------------------


 First call to EWALD:  gamma=   0.138
 Maximum number of real-space cells 4x 4x 2
 Maximum number of reciprocal cells 2x 2x 4

    FEWALD:  cpu time    0.0041: real time    0.0041


--------------------------------------- Iteration      1(   1)  ---------------------------------------


    POTLOK:  cpu time    0.4178: real time    0.4385
    SETDIJ:  cpu time    0.0331: real time    0.0335
     EDDAV:  cpu time   68.8254: real time   69.0056
       DOS:  cpu time    0.0018: real time    0.0018
    --------------------------------------------
      LOOP:  cpu time   69.2780: real time   69.4794

 eigenvalue-minimisations  :  9440
 total energy-change (2. order) : 0.7893146E+04  (-0.3281780E+05)
 number of electron     776.0000000 magnetization     233.0000000
 augmentation part      776.0000000 magnetization     233.0000000

 Free energy of the ion-electron system (eV)
  ---------------------------------------------------
  alpha Z        PSCENC =      2230.33460859
  Ewald energy   TEWEN  =    217730.94032093
  -Hartree energ DENC   =   -289449.84778270
  -exchange      EXHF   =         0.00000000
  -V(xc)+E(xc)   XCENC  =      1360.28170962
  PAW double counting   =     63651.30740739   -65525.53323748
  entropy T*S    EENTRO =         0.00622490
  eigenvalues    EBANDS =      8205.61578791
  atomic energy  EATOM  =     69690.04112127
  Solvation  Ediel_sol  =         0.00000000
  ---------------------------------------------------
  free energy    TOTEN  =      7893.14616045 eV

  energy without entropy =     7893.13993554  energy(sigma->0) =     7893.14408548


--------------------------------------------------------------------------------------------------------




--------------------------------------- Iteration      1(   2)  ---------------------------------------


     EDDAV:  cpu time   68.8519: real time   69.0233
       DOS:  cpu time    0.0019: real time    0.0019
    --------------------------------------------
      LOOP:  cpu time   68.8538: real time   69.0252

 eigenvalue-minimisations  :  9440
 total energy-change (2. order) :-0.7047173E+04  (-0.6294690E+04)
 number of electron     776.0000000 magnetization     233.0000000
 augmentation part      776.0000000 magnetization     233.0000000

 Free energy of the ion-electron system (eV)
  ---------------------------------------------------
  alpha Z        PSCENC =      2230.33460859
  Ewald energy   TEWEN  =    217730.94032093
  -Hartree energ DENC   =   -289449.84778270
  -exchange      EXHF   =         0.00000000
  -V(xc)+E(xc)   XCENC  =      1360.28170962
  PAW double counting   =     63651.30740739   -65525.53323748
  entropy T*S    EENTRO =        -0.00407101
  eigenvalues    EBANDS =      1158.45334105
  atomic energy  EATOM  =     69690.04112127
  Solvation  Ediel_sol  =         0.00000000
  ---------------------------------------------------
  free energy    TOTEN  =       845.97341767 eV

  energy without entropy =      845.97748868  energy(sigma->0) =      845.97477468


--------------------------------------------------------------------------------------------------------




--------------------------------------- Iteration      1(   3)  ---------------------------------------


     EDDAV:  cpu time   67.4639: real time   67.6291
       DOS:  cpu time    0.0022: real time    0.0021
    --------------------------------------------
      LOOP:  cpu time   67.4661: real time   67.6312

 eigenvalue-minimisations  :  9440
 total energy-change (2. order) :-0.1223547E+04  (-0.9903347E+03)
 number of electron     776.0000000 magnetization     233.0000000
 augmentation part      776.0000000 magnetization     233.0000000

 Free energy of the ion-electron system (eV)
  ---------------------------------------------------
  alpha Z        PSCENC =      2230.33460859
  Ewald energy   TEWEN  =    217730.94032093
  -Hartree energ DENC   =   -289449.84778270
  -exchange      EXHF   =         0.00000000
  -V(xc)+E(xc)   XCENC  =      1360.28170962
  PAW double counting   =     63651.30740739   -65525.53323748
  entropy T*S    EENTRO =         0.00341089
  eigenvalues    EBANDS =       -65.10122568
  atomic energy  EATOM  =     69690.04112127
  Solvation  Ediel_sol  =         0.00000000
  ---------------------------------------------------
  free energy    TOTEN  =      -377.57366716 eV

  energy without entropy =     -377.57707805  energy(sigma->0) =     -377.57480412


--------------------------------------------------------------------------------------------------------




--------------------------------------- Iteration      1(   4)  ---------------------------------------


     EDDAV:  cpu time   79.8326: real time   80.0611
       DOS:  cpu time    0.0020: real time    0.0020
    --------------------------------------------
      LOOP:  cpu time   79.8347: real time   80.0631

 eigenvalue-minimisations  : 11710
 total energy-change (2. order) :-0.1171436E+03  (-0.1078147E+03)
 number of electron     776.0000000 magnetization     233.0000000
 augmentation part      776.0000000 magnetization     233.0000000

 Free energy of the ion-electron system (eV)
  ---------------------------------------------------
  alpha Z        PSCENC =      2230.33460859
  Ewald energy   TEWEN  =    217730.94032093
  -Hartree energ DENC   =   -289449.84778270
  -exchange      EXHF   =         0.00000000
  -V(xc)+E(xc)   XCENC  =      1360.28170962
  PAW double counting   =     63651.30740739   -65525.53323748
  entropy T*S    EENTRO =         0.00920760
  eigenvalues    EBANDS =      -182.25058626
  atomic energy  EATOM  =     69690.04112127
  Solvation  Ediel_sol  =         0.00000000
  ---------------------------------------------------
  free energy    TOTEN  =      -494.71723103 eV

  energy without entropy =     -494.72643863  energy(sigma->0) =     -494.72030023


--------------------------------------------------------------------------------------------------------




--------------------------------------- Iteration      1(   5)  ---------------------------------------


     EDDAV:  cpu time   76.7279: real time   76.9278
       DOS:  cpu time    0.0023: real time    0.0023
    CHARGE:  cpu time    4.3432: real time    4.3536
    MIXING:  cpu time    0.0089: real time    0.0095
    --------------------------------------------
      LOOP:  cpu time   81.0824: real time   81.2932

 eigenvalue-minimisations  : 11120
 total energy-change (2. order) :-0.4443356E+01  (-0.4409883E+01)
 number of electron     776.0000022 magnetization     218.0964715
 augmentation part      333.0846237 magnetization     187.2317563

 Broyden mixing:
  rms(total) = 0.11904E+02    rms(broyden)= 0.11904E+02
  rms(prec ) = 0.12203E+02
  weight for this iteration     100.00

 Free energy of the ion-electron system (eV)
  ---------------------------------------------------
  alpha Z        PSCENC =      2230.33460859
  Ewald energy   TEWEN  =    217730.94032093
  -Hartree energ DENC   =   -289449.84778270
  -exchange      EXHF   =         0.00000000
  -V(xc)+E(xc)   XCENC  =      1360.28170962
  PAW double counting   =     63651.30740739   -65525.53323748
  entropy T*S    EENTRO =         0.00922331
  eigenvalues    EBANDS =      -186.69395752
  atomic energy  EATOM  =     69690.04112127
  Solvation  Ediel_sol  =         0.00000000
  ---------------------------------------------------
  free energy    TOTEN  =      -499.16058659 eV

  energy without entropy =     -499.16980989  energy(sigma->0) =     -499.16366102


--------------------------------------------------------------------------------------------------------




--------------------------------------- Iteration      1(   6)  ---------------------------------------


    POTLOK:  cpu time    0.3999: real time    0.4009
    SETDIJ:  cpu time    0.0336: real time    0.0336
    EDDIAG:  cpu time   11.8226: real time   11.8512
  RMM-DIIS:  cpu time   40.9048: real time   41.0015
    ORTHCH:  cpu time    1.2796: real time    1.2826
       DOS:  cpu time    0.0021: real time    0.0021
    CHARGE:  cpu time    4.1916: real time    4.2016
    MIXING:  cpu time    0.0096: real time    0.0101
    --------------------------------------------
      LOOP:  cpu time   58.6438: real time   58.7836

 eigenvalue-minimisations  :  9523
 total energy-change (2. order) :-0.1316336E+03  (-0.8674874E+02)
 number of electron     776.0000033 magnetization     213.7988455
 augmentation part      401.4362439 magnetization     179.8065033

 Broyden mixing:
  rms(total) = 0.18148E+02    rms(broyden)= 0.18148E+02
  rms(prec ) = 0.24034E+02
  weight for this iteration     100.00

 eigenvalues of (default mixing * dielectric matrix)
  average eigenvalue GAMMA=   0.2582
  0.2582

 Free energy of the ion-electron system (eV)
  ---------------------------------------------------
  alpha Z        PSCENC =      2230.33460859
  Ewald energy   TEWEN  =    217730.94032093
  -Hartree energ DENC   =   -287885.62048731
  -exchange      EXHF   =         0.00000000
  -V(xc)+E(xc)   XCENC  =      1313.89156781
  PAW double counting   =     68870.99164382   -70536.73660252
  entropy T*S    EENTRO =        -0.01813647
  eigenvalues    EBANDS =     -2044.61821021
  atomic energy  EATOM  =     69690.04112127
  Solvation  Ediel_sol  =         0.00000000
  ---------------------------------------------------
  free energy    TOTEN  =      -630.79417407 eV

  energy without entropy =     -630.77603760  energy(sigma->0) =     -630.78812858


--------------------------------------------------------------------------------------------------------




--------------------------------------- Iteration      1(   7)  ---------------------------------------


    POTLOK:  cpu time    0.3848: real time    0.3857
    SETDIJ:  cpu time    0.0338: real time    0.0339
    EDDIAG:  cpu time   11.8276: real time   11.8556
  RMM-DIIS:  cpu time   40.6280: real time   40.7240
    ORTHCH:  cpu time    1.2769: real time    1.2800
       DOS:  cpu time    0.0019: real time    0.0019
    CHARGE:  cpu time    4.2628: real time    4.2729
    MIXING:  cpu time    0.0106: real time    0.0107
    --------------------------------------------
      LOOP:  cpu time   58.4264: real time   58.5646

 eigenvalue-minimisations  :  9447
 total energy-change (2. order) : 0.7979542E+02  (-0.1661505E+02)
 number of electron     776.0000023 magnetization     208.0936082
 augmentation part      360.4448794 magnetization     164.7109036

 Broyden mixing:
  rms(total) = 0.15382E+02    rms(broyden)= 0.15382E+02
  rms(prec ) = 0.20394E+02
  weight for this iteration     100.00

 eigenvalues of (default mixing * dielectric matrix)
  average eigenvalue GAMMA=   0.3166
  0.4812  0.1519

 Free energy of the ion-electron system (eV)
  ---------------------------------------------------
  alpha Z        PSCENC =      2230.33460859
  Ewald energy   TEWEN  =    217730.94032093
  -Hartree energ DENC   =   -288635.17416679
  -exchange      EXHF   =         0.00000000
  -V(xc)+E(xc)   XCENC  =      1333.09554264
  PAW double counting   =     69995.76726964   -71831.45301037
  entropy T*S    EENTRO =         0.00537826
  eigenvalues    EBANDS =     -1064.55581986
  atomic energy  EATOM  =     69690.04112127
  Solvation  Ediel_sol  =         0.00000000
  ---------------------------------------------------
  free energy    TOTEN  =      -550.99875569 eV

  energy without entropy =     -551.00413395  energy(sigma->0) =     -551.00054844


--------------------------------------------------------------------------------------------------------




--------------------------------------- Iteration      1(   8)  ---------------------------------------


    POTLOK:  cpu time    0.4026: real time    0.4036
    SETDIJ:  cpu time    0.0340: real time    0.0340
    EDDIAG:  cpu time   11.8061: real time   11.8341
  RMM-DIIS:  cpu time   41.0480: real time   41.1451
    ORTHCH:  cpu time    1.2832: real time    1.2863
       DOS:  cpu time    0.0021: real time    0.0021
    CHARGE:  cpu time    4.1520: real time    4.1619
    MIXING:  cpu time    0.0106: real time    0.0106
    --------------------------------------------
      LOOP:  cpu time   58.7386: real time   58.8777

 eigenvalue-minimisations  :  9452
 total energy-change (2. order) : 0.4708338E+02  (-0.1199823E+02)
 number of electron     776.0000027 magnetization     202.0836023
 augmentation part      365.1939815 magnetization     160.1966257

 Broyden mixing:
  rms(total) = 0.16703E+02    rms(broyden)= 0.16703E+02
  rms(prec ) = 0.19558E+02
  weight for this iteration     100.00

 eigenvalues of (default mixing * dielectric matrix)
  average eigenvalue GAMMA=   0.3198
  0.6313  0.2384  0.0897

 Free energy of the ion-electron system (eV)
  ---------------------------------------------------
  alpha Z        PSCENC =      2230.33460859
  Ewald energy   TEWEN  =    217730.94032093
  -Hartree energ DENC   =   -288917.25810197
  -exchange      EXHF   =         0.00000000
  -V(xc)+E(xc)   XCENC  =      1340.50554573
  PAW double counting   =     71540.83886374   -73464.33105922
  entropy T*S    EENTRO =        -0.00753921
  eigenvalues    EBANDS =      -654.97914049
  atomic energy  EATOM  =     69690.04112127
  Solvation  Ediel_sol  =         0.00000000
  ---------------------------------------------------
  free energy    TOTEN  =      -503.91538064 eV

  energy without entropy =     -503.90784143  energy(sigma->0) =     -503.91286757


--------------------------------------------------------------------------------------------------------




--------------------------------------- Iteration      1(   9)  ---------------------------------------


    POTLOK:  cpu time    0.4014: real time    0.4024
    SETDIJ:  cpu time    0.0340: real time    0.0340
    EDDIAG:  cpu time   11.7098: real time   11.7386
  RMM-DIIS:  cpu time   40.7419: real time   40.8417
    ORTHCH:  cpu time    1.2793: real time    1.2823
       DOS:  cpu time    0.0020: real time    0.0020
    CHARGE:  cpu time    4.1507: real time    4.1606
    MIXING:  cpu time    0.0116: real time    0.0116
    --------------------------------------------
      LOOP:  cpu time   58.3307: real time   58.4733

 eigenvalue-minimisations  :  9471
 total energy-change (2. order) : 0.1165905E+03  (-0.1265043E+02)
 number of electron     776.0000021 magnetization     194.6238377
 augmentation part      367.9403069 magnetization     152.3468240

 Broyden mixing:
  rms(total) = 0.13028E+02    rms(broyden)= 0.13028E+02
  rms(prec ) = 0.15260E+02
  weight for this iteration     100.00

 eigenvalues of (default mixing * dielectric matrix)
  average eigenvalue GAMMA=   0.3818
  0.9710  0.3197  0.1001  0.1364

 Free energy of the ion-electron system (eV)
  ---------------------------------------------------
  alpha Z        PSCENC =      2230.33460859
  Ewald energy   TEWEN  =    217730.94032093
  -Hartree energ DENC   =   -288567.42059220
  -exchange      EXHF   =         0.00000000
  -V(xc)+E(xc)   XCENC  =      1355.88746159
  PAW double counting   =     72835.21379005   -74795.32858707
  entropy T*S    EENTRO =        -0.00666740
  eigenvalues    EBANDS =      -866.98636148
  atomic energy  EATOM  =     69690.04112127
  Solvation  Ediel_sol  =         0.00000000
  ---------------------------------------------------
  free energy    TOTEN  =      -387.32490571 eV

[...]
   0.673E+01 -.181E+02 -.285E+04   -.668E+01 0.188E+02 0.285E+04   -.119E-01 -.567E+00 0.120E+01   -.970E-02 -.143E-01 -.244E-01
   -.228E+02 0.129E+02 -.295E+04   0.228E+02 -.138E+02 0.295E+04   0.312E-01 0.980E+00 0.556E+00   -.125E-01 0.232E-01 -.588E-01
   0.331E+02 -.104E+02 -.288E+04   -.330E+02 0.102E+02 0.288E+04   -.918E-01 0.158E+00 0.911E+00   -.985E-02 -.584E-02 0.382E-02
   0.300E+02 0.433E+00 -.291E+04   -.303E+02 -.795E+00 0.291E+04   0.293E+00 0.306E+00 0.130E+01   0.270E-01 0.612E-02 0.613E-02
   -.163E+02 0.387E+01 -.290E+04   0.163E+02 -.408E+01 0.290E+04   -.236E-01 0.253E+00 0.165E+01   0.199E-01 -.784E-02 0.248E-01
   0.252E+02 0.256E+02 -.288E+04   -.256E+02 -.254E+02 0.288E+04   0.339E+00 -.292E+00 0.160E+01   -.868E-03 -.551E-02 0.240E-01
   0.259E+02 0.226E+02 -.293E+04   -.258E+02 -.225E+02 0.293E+04   -.625E-01 -.319E-01 0.740E+00   0.528E-02 0.187E-01 0.625E-02
   -.261E+02 -.160E+02 -.287E+04   0.259E+02 0.160E+02 0.287E+04   0.259E+00 -.551E-02 0.903E+00   -.957E-02 -.101E-01 -.510E-03
   0.201E+02 -.496E+02 -.291E+04   -.207E+02 0.498E+02 0.291E+04   0.593E+00 -.191E+00 0.384E+00   0.227E-01 0.113E-02 -.486E-01
   -.478E+02 0.827E+01 -.292E+04   0.477E+02 -.817E+01 0.292E+04   0.692E-01 -.131E+00 0.683E+00   -.623E-02 -.968E-03 0.901E-03
   0.197E+02 0.232E+01 -.294E+04   -.196E+02 -.235E+01 0.294E+04   -.501E-01 0.332E-01 0.938E+00   -.628E-02 0.406E-02 -.609E-03
   0.146E+02 0.363E+02 -.291E+04   -.145E+02 -.363E+02 0.291E+04   -.836E-01 -.911E-02 0.104E+01   -.185E-01 0.688E-02 0.219E-01
   -.193E+02 -.315E+02 -.290E+04   0.200E+02 0.318E+02 0.290E+04   -.711E+00 -.295E+00 0.232E+00   -.298E-01 -.112E-01 -.600E-01
   0.410E-01 0.116E+02 -.287E+04   0.271E+00 -.117E+02 0.286E+04   -.327E+00 0.560E-01 0.123E+01   -.146E-01 0.576E-02 0.149E-01
   0.483E+02 0.480E+02 -.142E+04   -.464E+02 -.490E+02 0.141E+04   -.178E+01 0.110E+01 0.282E+01   -.178E-01 -.197E-02 0.440E-01
   -.902E+02 -.386E+02 -.141E+04   0.899E+02 0.376E+02 0.141E+04   0.260E+00 0.933E+00 0.361E+01   -.877E-02 -.922E-02 0.391E-01
   -.228E+02 -.238E+02 0.300E+04   0.228E+02 0.241E+02 -.300E+04   -.122E-01 -.267E+00 -.195E+01   0.941E-02 -.352E-02 0.672E-03
   -.729E+02 0.221E+02 0.148E+04   0.734E+02 -.217E+02 -.148E+04   -.567E+00 -.330E+00 -.913E-01   0.106E-01 0.903E-02 0.828E-02
   0.999E+02 0.258E+02 -.140E+04   -.100E+03 -.247E+02 0.139E+04   0.608E+00 -.111E+01 0.322E+01   -.112E-02 -.102E-01 0.411E-01
   0.349E+02 0.500E+02 0.303E+04   -.355E+02 -.488E+02 -.303E+04   0.657E+00 -.118E+01 -.213E+01   -.131E-01 -.175E-01 -.144E-01
   0.908E+02 0.316E+01 0.147E+04   -.909E+02 -.437E+01 -.147E+04   0.813E-01 0.125E+01 -.118E+01   -.234E-01 -.173E-01 0.276E-01
   -.177E+02 0.224E+02 -.288E+04   0.178E+02 -.224E+02 0.288E+04   -.647E-01 0.377E-01 0.823E+00   -.316E-02 0.301E-02 -.755E-02
   0.547E+02 0.619E+02 0.229E+02   -.558E+02 -.619E+02 -.246E+02   0.103E+01 0.536E-02 0.174E+01   -.195E-01 0.164E-01 0.347E-01
   -.212E+02 -.137E+02 -.292E+04   0.209E+02 0.139E+02 0.292E+04   0.258E+00 -.291E+00 0.117E+01   0.527E-02 0.327E-01 0.333E-02
   -.662E+02 -.367E+02 0.113E+03   0.666E+02 0.367E+02 -.115E+03   -.351E+00 -.126E+00 0.178E+01   0.141E-01 0.911E-02 0.241E-01
   0.110E+02 -.410E+02 -.149E+04   -.112E+02 0.410E+02 0.149E+04   0.255E+00 -.541E-01 0.224E+01   0.121E-01 0.286E-01 0.262E-01
   0.413E+02 0.543E+02 -.146E+04   -.415E+02 -.535E+02 0.145E+04   0.193E+00 -.790E+00 0.260E+01   -.111E-01 0.212E-01 0.253E-01
   -.798E+02 -.501E+02 0.787E+02   0.800E+02 0.493E+02 -.797E+02   -.157E+00 0.707E+00 0.106E+01   0.972E-02 -.517E-03 0.356E-01
   0.467E+02 0.534E+02 0.125E+02   -.460E+02 -.544E+02 -.133E+02   -.776E+00 0.106E+01 0.877E+00   0.121E-01 0.101E-01 0.335E-01
   -.723E+02 -.717E+02 -.165E+04   0.723E+02 0.713E+02 0.165E+04   0.205E-01 0.519E+00 0.142E+01   -.145E-02 0.144E-01 0.500E-01
   0.101E+02 -.906E+02 0.332E+04   -.105E+02 0.906E+02 -.331E+04   0.342E+00 0.493E-02 -.234E+01   0.758E-02 0.217E-01 0.669E-02
   -.329E+02 -.507E+02 0.329E+04   0.324E+02 0.503E+02 -.328E+04   0.651E+00 0.460E+00 -.294E+01   -.177E-01 0.144E-01 0.402E-02
   -.547E+02 0.439E+02 0.331E+04   0.549E+02 -.436E+02 -.331E+04   -.169E+00 -.329E+00 -.357E+01   0.274E-02 0.106E-01 -.844E-03
   0.515E+02 0.285E+02 0.158E+04   -.515E+02 -.285E+02 -.158E+04   -.866E-01 -.100E-01 -.132E+01   -.725E-02 -.187E-01 -.128E-01
   0.220E+02 -.664E+02 0.167E+04   -.214E+02 0.661E+02 -.167E+04   -.637E+00 0.163E+00 -.858E+00   0.138E-01 0.104E-01 0.527E-02
   0.789E+01 0.153E+02 -.162E+04   -.811E+01 -.156E+02 0.162E+04   0.243E+00 0.214E+00 0.118E+01   0.212E-01 0.860E-02 0.472E-01
   -.319E+02 0.373E+01 0.335E+04   0.304E+02 -.405E+01 -.335E+04   0.154E+01 0.344E+00 -.326E+01   0.190E-01 -.379E-03 -.179E-01
   0.342E+01 0.816E+02 0.162E+04   -.371E+01 -.812E+02 -.162E+04   0.358E+00 -.409E+00 -.111E+01   -.197E-01 -.310E-01 0.660E-02
   -.615E+02 0.160E+02 0.355E+02   0.612E+02 -.157E+02 -.357E+02   0.233E+00 -.338E+00 0.219E-01   0.326E-02 0.160E-01 0.369E-01
   -.701E+02 -.406E+02 -.164E+04   0.699E+02 0.399E+02 0.163E+04   0.213E+00 0.772E+00 0.178E+01   0.135E-01 0.486E-02 0.407E-01
   0.130E+02 0.733E+02 -.163E+04   -.129E+02 -.724E+02 0.163E+04   -.944E-01 -.987E+00 0.959E+00   -.463E-02 0.177E-01 0.367E-01
   -.373E+02 -.250E+01 0.331E+04   0.378E+02 0.206E+01 -.330E+04   -.433E+00 0.432E+00 -.284E+01   0.187E-01 -.670E-02 -.128E-01
   0.206E+02 0.216E+02 0.304E+04   -.205E+02 -.215E+02 -.304E+04   -.124E+00 -.120E+00 -.594E+00   -.482E-02 0.681E-02 -.205E-01
   -.197E+02 0.568E+01 0.297E+04   0.214E+02 -.577E+01 -.297E+04   -.166E+01 0.113E+00 -.216E+01   0.737E-02 -.107E-01 -.208E-02
   -.668E+02 -.115E+03 0.148E+04   0.668E+02 0.115E+03 -.148E+04   -.936E-01 0.536E+00 -.983E+00   0.130E-01 0.808E-02 0.681E-03
   -.678E+02 -.163E+02 -.529E+02   0.671E+02 0.168E+02 0.522E+02   0.774E+00 -.656E+00 0.618E+00   0.158E-01 0.583E-02 0.378E-01
   -.111E+03 -.227E-01 0.148E+04   0.111E+03 0.388E+00 -.148E+04   0.495E-01 -.424E+00 -.432E+00   0.186E-01 0.219E-01 0.184E-01
   0.423E+02 0.331E+02 0.148E+04   -.422E+02 -.326E+02 -.148E+04   -.638E-01 -.370E+00 0.654E-01   -.157E-01 -.177E-01 0.135E-01
   0.746E+02 0.217E+02 -.147E+04   -.743E+02 -.219E+02 0.147E+04   -.411E+00 0.224E+00 0.164E+01   -.136E-01 -.926E-02 0.220E-01
   0.458E+02 -.350E+02 0.303E+04   -.451E+02 0.337E+02 -.303E+04   -.812E+00 0.130E+01 -.199E+01   -.291E-03 0.176E-01 -.140E-01
   0.173E+02 0.361E+02 0.146E+04   -.169E+02 -.360E+02 -.146E+04   -.424E+00 -.145E+00 -.369E+00   0.193E-01 0.216E-01 0.152E-01
   0.810E+02 -.495E+02 0.415E+02   -.808E+02 0.492E+02 -.415E+02   -.193E+00 0.326E+00 -.169E+00   -.125E-01 -.178E-01 0.286E-01
   0.871E+01 0.564E+02 0.244E+04   -.842E+01 -.558E+02 -.244E+04   -.289E+00 -.557E+00 -.278E+01   -.107E-01 -.224E-01 -.705E-02
   -.196E+02 -.504E+02 0.116E+04   0.197E+02 0.508E+02 -.116E+04   -.903E-01 -.343E+00 -.765E+00   0.119E-01 -.417E-02 0.319E-02
   0.218E+02 -.149E+02 0.117E+04   -.215E+02 0.146E+02 -.117E+04   -.394E+00 0.352E+00 -.793E+00   -.924E-02 0.162E-01 0.221E-01
   -.533E+02 -.443E+02 -.214E+02   0.534E+02 0.448E+02 0.210E+02   -.171E+00 -.536E+00 0.302E+00   0.224E-02 -.139E-01 0.169E-01
   0.425E+02 0.139E+02 -.118E+04   -.423E+02 -.137E+02 0.118E+04   -.276E+00 -.211E+00 0.116E+01   -.381E-02 -.248E-01 0.262E-01
   -.763E+02 -.134E+02 -.120E+04   0.762E+02 0.135E+02 0.120E+04   0.243E+00 -.143E+00 0.149E+01   0.127E-01 0.214E-02 0.334E-01
   0.159E+02 -.146E+02 0.243E+04   -.161E+02 0.150E+02 -.243E+04   0.218E+00 -.345E+00 -.326E+01   -.109E-01 -.121E-01 -.730E-03
   -.136E+02 -.509E+02 0.245E+04   0.134E+02 0.497E+02 -.245E+04   0.938E-01 0.117E+01 -.280E+01   0.869E-02 0.200E-01 -.781E-02
   -.315E+02 0.395E+01 0.267E+02   0.320E+02 -.406E+01 -.269E+02   -.596E+00 0.800E-01 0.677E-01   0.282E-02 0.167E-01 0.259E-01
   0.267E+02 0.502E+01 0.324E+02   -.272E+02 -.556E+01 -.324E+02   0.474E+00 0.553E+00 -.266E-01   0.473E-02 -.251E-02 0.236E-01
   -.385E+02 0.597E+01 0.120E+04   0.383E+02 -.570E+01 -.120E+04   0.222E+00 -.272E+00 -.105E+01   -.756E-03 -.485E-02 0.173E-02
   0.492E+02 0.186E+02 -.684E+02   -.491E+02 -.193E+02 0.691E+02   -.131E+00 0.801E+00 -.806E+00   -.384E-02 -.113E-01 0.165E-01
   -.387E+01 -.150E+02 -.728E+01   0.406E+01 0.145E+02 0.684E+01   -.170E+00 0.502E+00 0.411E+00   -.830E-02 -.464E-02 0.190E-01
   -.410E+02 0.289E+02 0.135E+04   0.409E+02 -.288E+02 -.135E+04   0.202E-01 -.208E-01 -.117E+00   0.115E-01 0.498E-02 0.217E-01
   -.236E+02 -.765E+01 0.134E+04   0.238E+02 0.821E+01 -.133E+04   -.232E+00 -.562E+00 -.958E+00   0.604E-02 -.534E-02 0.113E-01
   -.682E+01 -.889E+00 0.272E+04   0.565E+01 0.136E+01 -.271E+04   0.112E+01 -.461E+00 -.239E+01   0.158E-01 0.183E-01 -.737E-02
   0.349E+02 0.198E+02 0.270E+04   -.340E+02 -.201E+02 -.269E+04   -.828E+00 0.312E+00 -.276E+01   -.138E-01 -.540E-02 -.631E-02
   0.718E+02 0.281E+01 0.132E+04   -.720E+02 -.302E+01 -.132E+04   0.257E+00 0.236E+00 0.595E-02   -.241E-01 0.120E-01 0.290E-01
   0.642E+02 0.289E+02 0.130E+04   -.644E+02 -.287E+02 -.130E+04   0.235E+00 -.114E+00 -.111E+00   -.796E-02 -.124E-01 0.597E-02
   0.553E+02 0.306E+02 -.130E+04   -.556E+02 -.310E+02 0.129E+04   0.273E+00 0.515E+00 0.113E+01   0.522E-02 -.512E-02 0.309E-01
   0.499E+02 0.557E+02 0.274E+04   -.505E+02 -.552E+02 -.274E+04   0.607E+00 -.581E+00 -.177E+01   -.104E-01 -.195E-01 -.115E-01
   0.478E+02 0.308E+02 -.184E+01   -.484E+02 -.301E+02 0.180E+01   0.603E+00 -.597E+00 -.396E-01   0.955E-03 -.297E-01 0.214E-01
   0.227E+02 0.752E+02 -.146E+02   -.226E+02 -.742E+02 0.148E+02   -.726E-01 -.104E+01 -.413E+00   -.857E-02 0.690E-02 0.358E-01
   0.102E+03 0.463E+02 0.307E+02   -.102E+03 -.461E+02 -.309E+02   -.555E+00 -.226E+00 0.108E+00   -.198E-01 0.361E-02 0.281E-01
   -.765E+02 -.107E+03 0.124E+02   0.769E+02 0.106E+03 -.127E+02   -.423E+00 0.353E+00 0.149E+00   0.760E-02 0.132E-02 0.251E-01
   0.260E-01 -.192E+01 -.347E+03   -.295E-01 0.190E+01 0.349E+03   0.937E-02 0.245E-01 -.166E+01   -.563E-03 0.510E-03 -.494E-02
 -----------------------------------------------------------------------------------------------
   0.923E-01 -.420E+00 -.390E+01   0.225E-12 0.327E-12 -.264E-10   -.378E-01 0.313E+00 0.295E+01   -.345E-01 0.726E-01 0.972E+00
 
 
 POSITION                                       TOTAL-FORCE (eV/Angst)
 -----------------------------------------------------------------------------------
     12.97541      8.01469      6.95324        -0.006619      0.022365      0.006998
      5.12200      8.06123      6.95703         0.007514      0.012857     -0.026517
      5.02844      3.46328      7.04375        -0.014558     -0.005200      0.017975
     14.31291      8.78754      9.30782         0.026611      0.009173      0.015680
      3.74773      4.17333      9.46470         0.011633     -0.009639      0.010745
      6.41275      8.78458      9.28096         0.002236     -0.001178      0.001649
     11.66634      4.18989      9.28224        -0.004006     -0.000484      0.006313
      9.03204      8.77426      9.21519        -0.002813     -0.006216     -0.010529
     10.35179      1.93005      9.28822         0.015124     -0.003299     -0.003349
      2.43736      1.91930      9.29282         0.021487     -0.024014      0.002291
     11.65412      8.77751      9.33173         0.002007     -0.003250     -0.000250
     12.97101      6.49269      9.41715        -0.002442     -0.015458     -0.001154
      5.06495      1.91419      9.39288         0.002773     -0.008647      0.006648
      7.72805      6.49995      9.37242         0.015685      0.007963      0.010687
      9.04447      4.21854      9.33575         0.009151     -0.025660     -0.007076
      5.09744      6.50947      9.43926         0.008331     -0.004336      0.003956
      7.71269      1.91311      9.34961        -0.007089     -0.002527     -0.007919
      7.81494      3.39347      6.98791         0.001932     -0.002735      0.015334
      6.32659      1.11686      6.92766        -0.004108     -0.006676      0.013859
      6.42748      1.11951      0.84379        -0.000230      0.036416      0.016527
      3.74457      4.22498      2.80295         0.000299      0.013266     -0.025773
      1.13801      1.23473      6.89265        -0.004888     -0.014488      0.006561
      1.05351      1.23301      0.75714        -0.006252      0.008882      0.013191
      6.37970      8.73232      2.89580         0.004861      0.026194      0.008175
      6.40815      4.20750      9.37470         0.007983     -0.019386      0.011561
      7.71519      4.98986      4.84188        -0.017280     -0.026613     -0.035225
     10.33612      6.50341      9.31799         0.010547      0.002980      0.005645
     14.36690      7.24966      4.78751         0.021670     -0.023262     -0.041656
     11.63539      5.70688      7.01430        -0.013423     -0.021642      0.027044
      6.42660      5.77686      7.02880        -0.000036      0.008366      0.008145
      3.72880      2.59487      4.89932         0.014642      0.002003      0.006503
     10.40714      4.90964      4.85294         0.013648     -0.011782     -0.002898
      3.73554      5.71691      7.08355         0.003064     -0.006437      0.044171
     13.01076      7.95414      0.82285        -0.020678      0.029415     -0.012447
      5.07062      7.97664      0.75916        -0.001469      0.014250     -0.005484
      3.74725      5.77233      0.77268         0.000012      0.006636     -0.012358
      7.73906      1.95923      2.91892         0.007708     -0.004004     -0.002528
      9.04575      8.78897      2.87226        -0.004548     -0.012602      0.003612
      2.43659      3.47757      7.05002        -0.000735     -0.001562      0.020172
      2.40788      3.44595      0.73676        -0.015156      0.026063     -0.007800
     10.29842      1.96823      2.88139         0.023105     -0.014007     -0.006636
     13.01351      4.98805      4.94410         0.031299     -0.005398     -0.004718
      3.72458      1.09738      7.02853         0.003596      0.000168      0.002318
      9.03798      5.77226      7.06013         0.010251      0.001675      0.002205
      3.74683      1.15285      0.81959        -0.002013      0.009762      0.006701
      9.06513      5.72471      0.92537        -0.015930      0.017473      0.000779
      5.21212      3.41637      0.86086         0.000191      0.012693     -0.016483
     11.65625      8.70496      2.91787        -0.021580      0.005765     -0.007618
     11.62151      7.29974      4.90178         0.023747     -0.006226     -0.007047
     12.89980      6.49745      2.82364         0.014669     -0.020665     -0.005251
      9.01343      4.18612      2.81919        -0.010808      0.013372     -0.003033
      7.79976      8.01066      6.95519        -0.005334     -0.004727     -0.004092
      7.81053      7.92859      0.86888        -0.017843     -0.005305      0.015978
     10.31657      6.54831      2.89472         0.025526      0.012650      0.001386
      2.46166      0.31661      4.92733        -0.009402     -0.024754     -0.022444
      7.75154      3.52543      0.86333         0.007656      0.011192      0.005351
      5.10291      1.89984      2.87069         0.003123      0.009279      0.000363
      5.17349      6.40557      2.77226        -0.035275      0.035219     -0.000168
      7.65418      0.39388      4.89233         0.016761     -0.031850     -0.021426
      9.06159      1.16200      7.10673        -0.001174     -0.017610     -0.003721
     10.30591      7.99190      6.98992         0.005224     -0.006583     -0.002032
      9.02330      1.20380      0.78512        -0.018746     -0.011688      0.004936
     10.37425      7.90856      0.90129        -0.037524      0.010138      0.011931
      5.10488      4.93977      4.94140        -0.005760      0.019494      0.032998
     11.69653      2.64892      4.87494        -0.035367      0.007561     -0.026482
     14.26247      8.83804      2.80295        -0.029851      0.012447     -0.012941
      9.09183      2.62352      4.93970        -0.007025     -0.003223     -0.008098
      6.39598      2.67997      4.92292         0.009006     -0.006393     -0.021651
     11.64052      4.17844      2.78900        -0.001918      0.007807      0.008649
      2.34972      1.92500      2.86197         0.007200      0.008023     -0.011957
     11.59075      5.72177      0.94802        -0.020426      0.003254     -0.017346
      6.50379      5.69604      0.91052         0.006725      0.004624      0.009418
      7.71278      6.45493      2.81038        -0.012561      0.011689      0.036779
      6.43155      4.20716      2.83788         0.021438     -0.012361      0.001846
     10.36476      3.39233      7.01945         0.001973      0.003590     -0.003045
     10.36553      3.54396      0.90454        -0.010725      0.004388     -0.012778
     10.23662      0.46679      4.91587        -0.033003      0.034493      0.013813
      9.06408      7.34028      4.95059         0.000505     -0.034757     -0.015739
      6.48344      7.27349      4.94428         0.022767     -0.028117     -0.006831
      5.04827      0.31035      4.87551         0.010217      0.012988     -0.001671
      3.75235      5.75730     10.46060         0.004696     -0.001813      0.007282
 -----------------------------------------------------------------------------------
    total drift:                                0.020115     -0.034606      0.013376


--------------------------------------------------------------------------------------------------------



  FREE ENERGIE OF THE ION-ELECTRON SYSTEM (eV)
  ---------------------------------------------------
  free  energy   TOTEN  =      -514.82968071 eV

  energy  without entropy=     -514.83353164  energy(sigma->0) =     -514.83096435
 
 d Force = 0.2120636E-02[ 0.952E-03, 0.329E-02]  d Energy = 0.1968615E-02 0.152E-03
 d Force = 0.1081435E+03[ 0.108E+03, 0.108E+03]  d Ewald  = 0.1081435E+03 0.425E-05


--------------------------------------------------------------------------------------------------------


    POTLOK:  cpu time    0.4436: real time    0.4446


--------------------------------------------------------------------------------------------------------


 Conjugate gradient step on ions:
 trial-energy change:   -0.001969  1 .order   -0.002121   -0.003289   -0.000952
  (g-gl).g = 0.250E-02      g.g   = 0.254E-02  gl.gl    = 0.344E-02
 g(Force)  = 0.254E-02   g(Stress)= 0.000E+00 ortho     = 0.820E-04
 gamma     =   0.72717
 trial     =   1.26657
 opt step  =   1.78282  (harmonic =   1.78282) maximal distance =0.01323695
 next E    =  -514.830027   (d E  =  -0.00231)


--------------------------------------------------------------------------------------------------------


  
 reached required accuracy - stopping structural energy minimisation
     LOOP+:  cpu time  849.0484: real time  851.4189
    4ORBIT:  cpu time    0.0000: real time    0.0000

 total amount of memory used by VASP MPI-rank0   259158. kBytes
=======================================================================

   base      :      30000. kBytes
   nonlr-proj:      34704. kBytes
   fftplans  :      17962. kBytes
   grid      :      55536. kBytes
   one-center:        653. kBytes
   wavefun   :     120303. kBytes
 
  
  
 General timing and accounting informations for this job:
 ========================================================
  
                  Total CPU time used (sec):    18745.711
                            User time (sec):    18733.550
                          System time (sec):       12.161
                         Elapsed time (sec):    18852.636
  
                   Maximum memory used (kb):     1038496.
                   Average memory used (kb):           0.
  
                          Minor page faults:      3352502
                          Major page faults:            0
                 Voluntary context switches:         4286
