 vasp.5.4.4.18Apr17-6-g9f103f2a35 (build Nov 30 2020 22:55:02) complex          
  
 executed on             LinuxIFC date 2023.07.28  22:34:39
 running on   40 total cores
 distrk:  each k-point on   40 cores,    1 groups
 distr:  one band on NCORES_PER_BAND=   4 cores,   10 groups


--------------------------------------------------------------------------------------------------------


 INCAR:
 POTCAR:    PAW_PBE Pt 04Feb2005                  
 POTCAR:    PAW_PBE H 15Jun2001                   
 POTCAR:    PAW_PBE Pt 04Feb2005                  
   VRHFIN =Pt: s1d9                                                             
   LEXCH  = PE                                                                  
   EATOM  =   729.1176 eV,   53.5886 Ry                                         
                                                                                
   TITEL  = PAW_PBE Pt 04Feb2005                                                
   LULTRA =        F    use ultrasoft PP ?                                      
   IUNSCR =        1    unscreen: 0-lin 1-nonlin 2-no                           
   RPACOR =    2.330    partial core radius                                     
   POMASS =  195.080; ZVAL   =   10.000    mass and valenz                      
   RCORE  =    2.600    outmost cutoff radius                                   
   RWIGS  =    2.750; RWIGS  =    1.455    wigner-seitz radius (au A)           
   ENMAX  =  230.283; ENMIN  =  172.712 eV                                      
   ICORE  =        3    local potential                                         
   LCOR   =        T    correct aug charges                                     
   LPAW   =        T    paw PP                                                  
   EAUG   =  358.966                                                            
   DEXC   =    0.000                                                            
   RMAX   =    2.658    core radius for proj-oper                               
   RAUG   =    1.300    factor for augmentation sphere                          
   RDEP   =    2.761    radius for radial grids                                 
   RDEPT  =    2.203    core radius for aug-charge                              
                                                                                
   Atomic configuration                                                         
   16 entries                                                                   
     n  l   j            E        occ.                                          
     1  0  0.50    -78401.1885   2.0000                                         
     2  0  0.50    -13770.7750   2.0000                                         
     2  1  1.50    -11931.0468   6.0000                                         
     3  0  0.50     -3234.7234   2.0000                                         
     3  1  1.50     -2699.2216   6.0000                                         
     3  2  2.50     -2119.5714  10.0000                                         
     4  0  0.50      -695.1528   2.0000                                         
     4  1  1.50      -519.6034   6.0000                                         
     4  2  2.50      -306.6786  10.0000                                         
     4  3  3.50       -70.1041  14.0000                                         
     5  0  0.50      -101.7747   2.0000                                         
     5  1  1.50       -55.9873   6.0000                                         
     5  2  2.50        -6.1423   9.0000                                         
     6  0  0.50        -5.6573   1.0000                                         
     6  1  1.50        -6.8029   0.0000                                         
     5  3  2.50        -1.3606   0.0000                                         
   Description                                                                  
     l       E           TYP  RCUT    TYP  RCUT                                 
     2     -6.1423404     23  2.500                                             
     2     -7.5029230     23  2.500                                             
     0     -5.6573207     23  2.500                                             
     0      0.7416693     23  2.500                                             
     1     -2.7211652     23  2.600                                             
     1     20.4087390     23  2.600                                             
     3     -1.3605826     23  2.500                                             
  local pseudopotential read in
  partial core-charges read in
  partial kinetic energy density read in
  atomic valenz-charges read in
  non local Contribution for L=           2  read in
    real space projection operators read in
  non local Contribution for L=           2  read in
    real space projection operators read in
  non local Contribution for L=           0  read in
    real space projection operators read in
  non local Contribution for L=           0  read in
    real space projection operators read in
  non local Contribution for L=           1  read in
    real space projection operators read in
  non local Contribution for L=           1  read in
    real space projection operators read in
    PAW grid and wavefunctions read in
 
   number of l-projection  operators is LMAX  =           6
   number of lm-projection operators is LMMAX =          18
 
 POTCAR:    PAW_PBE H 15Jun2001                   
   VRHFIN =H: ultrasoft test                                                    
   LEXCH  = PE                                                                  
   EATOM  =    12.4884 eV,    0.9179 Ry                                         
                                                                                
   TITEL  = PAW_PBE H 15Jun2001                                                 
   LULTRA =        F    use ultrasoft PP ?                                      
   IUNSCR =        0    unscreen: 0-lin 1-nonlin 2-no                           
   RPACOR =    0.000    partial core radius                                     
   POMASS =    1.000; ZVAL   =    1.000    mass and valenz                      
   RCORE  =    1.100    outmost cutoff radius                                   
   RWIGS  =    0.700; RWIGS  =    0.370    wigner-seitz radius (au A)           
   ENMAX  =  250.000; ENMIN  =  200.000 eV                                      
   RCLOC  =    0.701    cutoff for local pot                                    
   LCOR   =        T    correct aug charges                                     
   LPAW   =        T    paw PP                                                  
   EAUG   =  400.000                                                            
   RMAX   =    1.123    core radius for proj-oper                               
   RAUG   =    1.200    factor for augmentation sphere                          
   RDEP   =    1.112    radius for radial grids                                 
   RDEPT  =    0.926    core radius for aug-charge                              
                                                                                
   Atomic configuration                                                         
    2 entries                                                                   
     n  l   j            E        occ.                                          
     1  0  0.50        -6.4927   1.0000                                         
     2  1  0.50        -3.4015   0.0000                                         
   Description                                                                  
     l       E           TYP  RCUT    TYP  RCUT                                 
     0     -6.4927494     23  1.100                                             
     0      6.8029130     23  1.100                                             
     1     -4.0817478     23  1.100                                             
  local pseudopotential read in
  atomic valenz-charges read in
  non local Contribution for L=           0  read in
    real space projection operators read in
  non local Contribution for L=           0  read in
    real space projection operators read in
  non local Contribution for L=           1  read in
    real space projection operators read in
    PAW grid and wavefunctions read in
 
   number of l-projection  operators is LMAX  =           3
   number of lm-projection operators is LMMAX =           5
 
 Optimization of the real space projectors (new method)

 maximal supplied QI-value         = 14.36
 optimisation between [QCUT,QGAM] = [ 11.92, 23.98] = [ 39.79,161.09] Ry 
 Optimized for a Real-space Cutoff    1.49 Angstroem

   l    n(q)    QCUT    max X(q) W(low)/X(q) W(high)/X(q)  e(spline) 
   2     10    11.920    66.195    0.79E-04    0.18E-03    0.24E-06
   2     10    11.920    64.643    0.81E-04    0.19E-03    0.24E-06
   0     11    11.920    95.520    0.28E-04    0.54E-04    0.18E-06
   0     11    11.920    63.403    0.27E-04    0.52E-04    0.17E-06
   1     10    11.920    19.961    0.18E-04    0.11E-03    0.23E-06
   1     10    11.920    13.289    0.25E-04    0.87E-04    0.19E-06
 Optimization of the real space projectors (new method)

 maximal supplied QI-value         = 34.20
 optimisation between [QCUT,QGAM] = [ 11.97, 23.94] = [ 40.13,160.53] Ry 
 Optimized for a Real-space Cutoff    1.18 Angstroem

   l    n(q)    QCUT    max X(q) W(low)/X(q) W(high)/X(q)  e(spline) 
   0      8    11.971    19.460    0.15E-03    0.31E-03    0.25E-06
   0      8    11.971    12.209    0.13E-03    0.29E-03    0.25E-06
   1      8    11.971     4.655    0.22E-03    0.24E-03    0.21E-06
  PAW_PBE Pt 04Feb2005                  :
 energy of atom  1       EATOM= -729.1176
 kinetic energy error for atom=    0.0021 (will be added to EATOM!!)
  PAW_PBE H 15Jun2001                   :
 energy of atom  2       EATOM=  -12.4884
 kinetic energy error for atom=    0.0008 (will be added to EATOM!!)
 
 
 POSCAR: Pt111\(1\1\1)\(2)                       
  positions in cartesian coordinates
  No initial velocities read in
 exchange correlation table for  LEXCH =        8
   RHO(1)=    0.500       N(1)  =     2000
   RHO(2)=  100.500       N(2)  =     4000
 


--------------------------------------------------------------------------------------------------------


 ion  position               nearest neighbor table
   1  1.000  0.000  0.056-   5 2.64   9 2.64  13 2.64  29 2.64  57 2.64  37 2.64  42 2.87  14 2.87
                            54 2.87
   2  0.333  0.167  0.178-  30 2.64  26 2.64  38 2.64  42 2.64  14 2.64   6 2.64  15 2.84   7 2.84
                            11 2.84   9 2.87  21 2.87  13 2.87
   3  0.167  0.333  0.297-  39 2.64  27 2.64  43 2.64   7 2.64  15 2.64  31 2.64  14 2.84   6 2.84
                            10 2.84  12 2.87   8 2.87  48 2.87
   4  0.000  1.000  0.419-   8 2.64  12 2.64  16 2.64  32 2.64  40 2.64  60 2.64  27 2.87   7 2.87
                            63 2.87
   5  1.000  0.250  0.056-   1 2.64  45 2.64  33 2.64   9 2.64  29 2.64  25 2.64  14 2.87  10 2.87
                            18 2.87
   6  0.333  0.417  0.178-  26 2.64  62 2.64  10 2.64  34 2.64  14 2.64   2 2.64  43 2.84   3 2.84
                            15 2.84  45 2.87  49 2.87   9 2.87
   7  0.167  0.083  0.297-  27 2.64  15 2.64   3 2.64  63 2.64  11 2.64  35 2.64  42 2.84   2 2.84
                            14 2.84  16 2.87   4 2.87  12 2.87
   8  0.000  0.250  0.419-   4 2.64  48 2.64  36 2.64  12 2.64  32 2.64  28 2.64  31 2.87   3 2.87
                            27 2.87
   9  0.250  0.250  0.056-  21 2.64  13 2.64   1 2.64  49 2.64  45 2.64   5 2.64   2 2.87  14 2.87
                             6 2.87
  10  0.083  0.417  0.178-  34 2.64   6 2.64  46 2.64  14 2.64  18 2.64  22 2.64  39 2.84  31 2.84
                             3 2.84  33 2.87  45 2.87   5 2.87
  11  0.417  0.083  0.297-  19 2.64  15 2.64   7 2.64  47 2.64  35 2.64  23 2.64  30 2.84  38 2.84
                             2 2.84  20 2.87  16 2.87  24 2.87
  12  0.250  0.250  0.419-  65 1.82  24 2.64  16 2.64   4 2.64  52 2.64  48 2.64   8 2.64   3 2.87
                            15 2.87   7 2.87
  13  0.250  0.000  0.056-  21 2.64   9 2.64  17 2.64   1 2.64  37 2.64  41 2.64  38 2.87   2 2.87
                            42 2.87
  14  0.083  0.167  0.178-  42 2.64  54 2.64   6 2.64   2 2.64  10 2.64  18 2.64  27 2.84   3 2.84
                             7 2.84   5 2.87   1 2.87   9 2.87
  15  0.417  0.333  0.297-  43 2.64   7 2.64   3 2.64  11 2.64  55 2.64  19 2.64  26 2.84   2 2.84
                             6 2.84  24 2.87  12 2.87  52 2.87
  16  0.250  1.000  0.419-  24 2.64  12 2.64  20 2.64   4 2.64  40 2.64  44 2.64   7 2.87  11 2.87
                            35 2.87
  17  0.500  0.000  0.056-  29 2.64  25 2.64  13 2.64  21 2.64  41 2.64  53 2.64  58 2.87  30 2.87
                            38 2.87
  18  0.833  0.167  0.178-  54 2.64  58 2.64  22 2.64  10 2.64  30 2.64  14 2.64  23 2.84  31 2.84
                            27 2.84  25 2.87  29 2.87   5 2.87
  19  0.667  0.333  0.297-  55 2.64  31 2.64  59 2.64  11 2.64  23 2.64  15 2.64  22 2.84  30 2.84
                            26 2.84  28 2.87  64 2.87  24 2.87
  20  0.500  1.000  0.419-  32 2.64  28 2.64  16 2.64  24 2.64  44 2.64  56 2.64  11 2.87  23 2.87
                            47 2.87
  21  0.500  0.250  0.056-  25 2.64  61 2.64   9 2.64  13 2.64  49 2.64  17 2.64  30 2.87   2 2.87
                            26 2.87
  22  0.833  0.417  0.178-  50 2.64  26 2.64  30 2.64  18 2.64  46 2.64  10 2.64  19 2.84  59 2.84
                            31 2.84  61 2.87  25 2.87  33 2.87
  23  0.667  0.083  0.297-  27 2.64  31 2.64  19 2.64  51 2.64  47 2.64  11 2.64  18 2.84  58 2.84
                            30 2.84  32 2.87  28 2.87  20 2.87
  24  0.500  0.250  0.419-  65 1.63  28 2.64  64 2.64  12 2.64  16 2.64  52 2.64  20 2.64  15 2.87
                            11 2.87  19 2.87
  25  0.750  0.250  0.056-  17 2.64  21 2.64  29 2.64  61 2.64  33 2.64   5 2.64  18 2.87  22 2.87
                            30 2.87
  26  0.583  0.417  0.178-   6 2.64   2 2.64  22 2.64  30 2.64  62 2.64  50 2.64  55 2.84  15 2.84
                            19 2.84  49 2.87  61 2.87  21 2.87
  27  0.917  0.083  0.297-  23 2.64   7 2.64   3 2.64  51 2.64  31 2.64  63 2.64  54 2.84  14 2.84
                            18 2.84   4 2.87   8 2.87  32 2.87
  28  0.750  0.250  0.419-  20 2.64  24 2.64  32 2.64  64 2.64  36 2.64   8 2.64  19 2.87  23 2.87
                            31 2.87
  29  0.750  0.000  0.056-  17 2.64  25 2.64   5 2.64  53 2.64   1 2.64  57 2.64  54 2.87  18 2.87
                            58 2.87
  30  0.583  0.167  0.178-   2 2.64  38 2.64  58 2.64  26 2.64  22 2.64  18 2.64  11 2.84  19 2.84
                            23 2.84  21 2.87  17 2.87  25 2.87
  31  0.917  0.333  0.297-  59 2.64  19 2.64  23 2.64  39 2.64   3 2.64  27 2.64  18 2.84  10 2.84
                            22 2.84   8 2.87  36 2.87  28 2.87
  32  0.750  1.000  0.419-  20 2.64  28 2.64   8 2.64  56 2.64   4 2.64  60 2.64  23 2.87  27 2.87
                            51 2.87
  33  1.000  0.500  0.056-  37 2.64  41 2.64   5 2.64  45 2.64  25 2.64  61 2.64  10 2.87  46 2.87
                            22 2.87
  34  0.333  0.667  0.178-  62 2.64  10 2.64  58 2.64  46 2.64   6 2.64  38 2.64  47 2.84  39 2.84
                            43 2.84  41 2.87  45 2.87  53 2.87
  35  0.167  0.833  0.297-  63 2.64  59 2.64   7 2.64  11 2.64  47 2.64  39 2.64  46 2.84  38 2.84
                            42 2.84  44 2.87  40 2.87  16 2.87
  36  0.000  0.500  0.419-  40 2.64  44 2.64   8 2.64  48 2.64  28 2.64  64 2.64  59 2.87  39 2.87
                            31 2.87
  37  1.000  0.750  0.056-  33 2.64  41 2.64  61 2.64  57 2.64  13 2.64   1 2.64  46 2.87  50 2.87
                            42 2.87
  38  0.333  0.917  0.178-  58 2.64  30 2.64   2 2.64  42 2.64  34 2.64  46 2.64  11 2.84  35 2.84
                            47 2.84  13 2.87  17 2.87  41 2.87
  39  0.167  0.583  0.297-   3 2.64  31 2.64  59 2.64  43 2.64  47 2.64  35 2.64  10 2.84  34 2.84
                            46 2.84  48 2.87  36 2.87  44 2.87
  40  0.000  0.750  0.419-  36 2.64  44 2.64  64 2.64  60 2.64  16 2.64   4 2.64  63 2.87  35 2.87
                            59 2.87
  41  0.250  0.750  0.056-  45 2.64  33 2.64  37 2.64  53 2.64  17 2.64  13 2.64  34 2.87  46 2.87
                            38 2.87
  42  0.083  0.917  0.178-  14 2.64   2 2.64  38 2.64  46 2.64  50 2.64  54 2.64   7 2.84  63 2.84
                            35 2.84   1 2.87  13 2.87  37 2.87
  43  0.417  0.583  0.297-  15 2.64   3 2.64  39 2.64  51 2.64  47 2.64  55 2.64  62 2.84   6 2.84
                            34 2.84  52 2.87  56 2.87  48 2.87
  44  0.250  0.750  0.419-  48 2.64  36 2.64  40 2.64  56 2.64  20 2.64  16 2.64  35 2.87  39 2.87
                            47 2.87
  45  0.250  0.500  0.056-  41 2.64  53 2.64   5 2.64   9 2.64  49 2.64  33 2.64   6 2.87  10 2.87
                            34 2.87
  46  0.083  0.667  0.178-  34 2.64  50 2.64  10 2.64  42 2.64  22 2.64  38 2.64  59 2.84  35 2.84
                            39 2.84  37 2.87  33 2.87  41 2.87
  47  0.417  0.833  0.297-  39 2.64  43 2.64  11 2.64  23 2.64  35 2.64  51 2.64  58 2.84  34 2.84
                            38 2.84  56 2.87  44 2.87  20 2.87
  48  0.250  0.500  0.419-  44 2.64  56 2.64   8 2.64  12 2.64  52 2.64  36 2.64  39 2.87   3 2.87
                            43 2.87
  49  0.500  0.500  0.056-  61 2.64  53 2.64  57 2.64  21 2.64   9 2.64  45 2.64  26 2.87   6 2.87
                            62 2.87
  50  0.833  0.667  0.178-  22 2.64  46 2.64  26 2.64  42 2.64  54 2.64  62 2.64  55 2.84  63 2.84
                            59 2.84  57 2.87  61 2.87  37 2.87
  51  0.667  0.833  0.297-  63 2.64  27 2.64  43 2.64  55 2.64  23 2.64  47 2.64  54 2.84  62 2.84
                            58 2.84  60 2.87  32 2.87  56 2.87
  52  0.500  0.500  0.419-  65 1.77  64 2.64  56 2.64  60 2.64  24 2.64  12 2.64  48 2.64  43 2.87
                            15 2.87  55 2.87
  53  0.500  0.750  0.056-  49 2.64  57 2.64  45 2.64  41 2.64  29 2.64  17 2.64  62 2.87  34 2.87
                            58 2.87
  54  0.833  0.917  0.178-  18 2.64  14 2.64  50 2.64  58 2.64  42 2.64  62 2.64  51 2.84  27 2.84
                            63 2.84  29 2.87   1 2.87  57 2.87
  55  0.667  0.583  0.297-  19 2.64  59 2.64  63 2.64  15 2.64  51 2.64  43 2.64  50 2.84  26 2.84
                            62 2.84  64 2.87  60 2.87  52 2.87
  56  0.500  0.750  0.419-  52 2.64  60 2.64  48 2.64  44 2.64  32 2.64  20 2.64  47 2.87  43 2.87
                            51 2.87
  57  0.750  0.750  0.056-  61 2.64  49 2.64  53 2.64  37 2.64   1 2.64  29 2.64  50 2.87  62 2.87
                            54 2.87
  58  0.583  0.917  0.178-  38 2.64  30 2.64  18 2.64  34 2.64  62 2.64  54 2.64  47 2.84  23 2.84
                            51 2.84  17 2.87  29 2.87  53 2.87
  59  0.917  0.583  0.297-  31 2.64  55 2.64  19 2.64  39 2.64  35 2.64  63 2.64  22 2.84  46 2.84
                            50 2.84  36 2.87  40 2.87  64 2.87
  60  0.750  0.750  0.419-  64 2.64  52 2.64  56 2.64  40 2.64   4 2.64  32 2.64  51 2.87  55 2.87
                            63 2.87
  61  0.750  0.500  0.056-  49 2.64  57 2.64  21 2.64  25 2.64  37 2.64  33 2.64  22 2.87  26 2.87
                            50 2.87
  62  0.583  0.667  0.178-  34 2.64   6 2.64  26 2.64  58 2.64  54 2.64  50 2.64  43 2.84  51 2.84
                            55 2.84  53 2.87  49 2.87  57 2.87
  63  0.917  0.833  0.297-  51 2.64  35 2.64  55 2.64   7 2.64  59 2.64  27 2.64  50 2.84  42 2.84
                            54 2.84  40 2.87   4 2.87  60 2.87
  64  0.750  0.500  0.419-  52 2.64  60 2.64  24 2.64  28 2.64  40 2.64  36 2.64  55 2.87  19 2.87
                            59 2.87
  65  0.426  0.330  0.461-  24 1.63  52 1.77  12 1.82
 
  LATTYP: Found a hexagonal cell.
 ALAT       =    10.5600004196
 C/A-ratio  =     1.8939393187
  
  Lattice vectors:
  
 A1 = (  10.5600004196,   0.0000000000,   0.0000000000)
 A2 = (  -5.2800002098,   9.1452286274,   0.0000000000)
 A3 = (   0.0000000000,   0.0000000000,  20.0000000000)


Analysis of symmetry for initial positions (statically):
=====================================================================
 Subroutine PRICEL returns:
 Original cell was already a primitive cell.
 

 Routine SETGRP: Setting up the symmetry group for a 
 hexagonal supercell.


 Subroutine GETGRP returns: Found  1 space group operations
 (whereof  1 operations were pure point group operations)
 out of a pool of 24 trial point group operations.


The static configuration has the point symmetry C_1 .


Analysis of symmetry for dynamics (positions and initial velocities):
=====================================================================
 Subroutine PRICEL returns:
 Original cell was already a primitive cell.
 

 Routine SETGRP: Setting up the symmetry group for a 
 hexagonal supercell.


 Subroutine GETGRP returns: Found  1 space group operations
 (whereof  1 operations were pure point group operations)
 out of a pool of 24 trial point group operations.


The dynamic configuration has the point symmetry C_1 .


Analysis of constrained symmetry for selective dynamics:
=====================================================================
 Subroutine PRICEL returns:
 Original cell was already a primitive cell.
 

 Routine SETGRP: Setting up the symmetry group for a 
 hexagonal supercell.


 Subroutine GETGRP returns: Found  1 space group operations
 (whereof  1 operations were pure point group operations)
 out of a pool of 24 trial point group operations.


The constrained configuration has the point symmetry C_1 .


Analysis of structural, dynamic, and magnetic symmetry:
=====================================================================
 Subroutine PRICEL returns:
 Original cell was already a primitive cell.
 

 Routine SETGRP: Setting up the symmetry group for a 
 hexagonal supercell.


 Subroutine GETGRP returns: Found  1 space group operations
 (whereof  1 operations were pure point group operations)
 out of a pool of 24 trial point group operations.


The magnetic configuration has the point symmetry C_1 .


 Subroutine INISYM returns: Found  1 space group operations
 (whereof  1 operations are pure point group operations),
 and found     1 'primitive' translations

 
 
 KPOINTS: mesh auto                               

Automatic generation of k-mesh.
Space group operators:
 irot       det(A)        alpha          n_x          n_y          n_z        tau_x        tau_y        tau_z
    1     1.000000     0.000000     1.000000     0.000000     0.000000     0.000000     0.000000     0.000000
 
 Subroutine IBZKPT returns following result:
 ===========================================
 
 Found      4 irreducible k-points:
 
 Following reciprocal coordinates:
            Coordinates               Weight
  0.000000  0.000000  0.000000      1.000000
  0.500000 -0.000000  0.000000      1.000000
  0.000000  0.500000  0.000000      1.000000
  0.500000  0.500000  0.000000      1.000000
 
 Following cartesian coordinates:
            Coordinates               Weight
  0.000000  0.000000  0.000000      1.000000
  0.047348  0.027337  0.000000      1.000000
  0.000000  0.054673  0.000000      1.000000
  0.047348  0.082010  0.000000      1.000000
 


--------------------------------------------------------------------------------------------------------




 Dimension of arrays:
   k-points           NKPTS =      4   k-points in BZ     NKDIM =      4   number of bands    NBANDS=    420
   number of dos      NEDOS =    301   number of ions     NIONS =     65
   non local maximal  LDIM  =      6   non local SUM 2l+1 LMDIM =     18
   total plane-waves  NPLWV = ******
   max r-space proj   IRMAX =   8171   max aug-charges    IRDMAX=  35597
   dimension x,y,z NGX =    84 NGY =   84 NGZ =  160
   dimension x,y,z NGXF=   168 NGYF=  168 NGZF=  320
   support grid    NGXF=   168 NGYF=  168 NGZF=  320
   ions per type =              64   1
   NGX,Y,Z   is equivalent  to a cutoff of  13.22, 13.22, 13.30 a.u.
   NGXF,Y,Z  is equivalent  to a cutoff of  26.45, 26.45, 26.60 a.u.

 SYSTEM =  Pt111                                   
 POSCAR =  Pt111\(1\1\1)\(2)                       

 Startparameter for this run:
   NWRITE =      2    write-flag & timer
   PREC   = accura    normal or accurate (medium, high low for compatibility)
   ISTART =      0    job   : 0-new  1-cont  2-samecut
   ICHARG =      2    charge: 1-file 2-atom 10-const
   ISPIN  =      2    spin polarized calculation?
   LNONCOLLINEAR =      F non collinear calculations
   LSORBIT =      F    spin-orbit coupling
   INIWAV =      1    electr: 0-lowe 1-rand  2-diag
   LASPH  =      F    aspherical Exc in radial PAW
   METAGGA=      F    non-selfconsistent MetaGGA calc.

 Electronic Relaxation 1
   ENCUT  =  550.0 eV  40.42 Ry    6.36 a.u.  20.19 20.19 38.24*2*pi/ulx,y,z
   ENINI  =  550.0     initial cutoff
   ENAUG  =  400.0 eV  augmentation charge cutoff
   NELM   =    200;   NELMIN=  2; NELMDL= -5     # of ELM steps 
   EDIFF  = 0.1E-04   stopping-criterion for ELM
   LREAL  =      T    real-space projection
   NLSPLINE    = F    spline interpolate recip. space projectors
   LCOMPAT=      F    compatible to vasp.4.4
   GGA_COMPAT  = T    GGA compatible to vasp.4.4-vasp.4.6
   LMAXPAW     = -100 max onsite density
   LMAXMIX     =    2 max onsite mixed and CHGCAR
   VOSKOWN=      0    Vosko Wilk Nusair interpolation
   ROPT   =   -0.00025  -0.00025
 Ionic relaxation
   EDIFFG = -.5E-01   stopping-criterion for IOM
   NSW    =    300    number of steps for IOM
   NBLOCK =      1;   KBLOCK =    300    inner block; outer block 
   IBRION =      2    ionic relax: 0-MD 1-quasi-New 2-CG
   NFREE  =      1    steps in history (QN), initial steepest desc. (CG)
   ISIF   =      2    stress and relaxation
   IWAVPR =     11    prediction:  0-non 1-charg 2-wave 3-comb
   ISYM   =      2    0-nonsym 1-usesym 2-fastsym
   LCORR  =      T    Harris-Foulkes like correction to forces

   POTIM  = 0.5000    time-step for ionic-motion
   TEIN   =    0.0    initial temperature
   TEBEG  =    0.0;   TEEND  =   0.0 temperature during run
   SMASS  =  -3.00    Nose mass-parameter (am)
   estimated Nose-frequenzy (Omega)   =  0.10E-29 period in steps =****** mass=  -0.255E-26a.u.
   SCALEE = 1.0000    scale energy and forces
   NPACO  =    256;   APACO  = 16.0  distance and # of slots for P.C.
   PSTRESS=    0.0 pullay stress

  Mass of Ions in am
   POMASS = 195.08  1.00
  Ionic Valenz
   ZVAL   =  10.00  1.00
  Atomic Wigner-Seitz radii
   RWIGS  =  -1.00 -1.00
  virtual crystal weights 
   VCA    =   1.00  1.00
   NELECT =     641.0000    total number of electrons
   NUPDOWN=      -1.0000    fix difference up-down

 DOS related values:
   EMIN   =  10.00;   EMAX   =-10.00  energy-range for DOS
   EFERMI =   0.00
   ISMEAR =     1;   SIGMA  =   0.10  broadening in eV -4-tet -1-fermi 0-gaus

 Electronic relaxation 2 (details)
   IALGO  =     68    algorithm
   LDIAG  =      T    sub-space diagonalisation (order eigenvalues)
   LSUBROT=      F    optimize rotation matrix (better conditioning)
   TURBO    =      0    0=normal 1=particle mesh
   IRESTART =      0    0=no restart 2=restart with 2 vectors
   NREBOOT  =      0    no. of reboots
   NMIN     =      0    reboot dimension
   EREF     =   0.00    reference energy to select bands
   IMIX   =      4    mixing-type and parameters
     AMIX     =   0.40;   BMIX     =  1.00
     AMIX_MAG =   1.60;   BMIX_MAG =  1.00
     AMIN     =   0.10
     WC   =   100.;   INIMIX=   1;  MIXPRE=   1;  MAXMIX= -45

 Intra band minimization:
   WEIMIN = 0.0010     energy-eigenvalue tresh-hold
   EBREAK =  0.60E-08  absolut break condition
   DEPER  =   0.30     relativ break condition  

   TIME   =   0.40     timestep for ELM

  volume/ion in A,a.u.               =      29.71       200.53
  Fermi-wavevector in a.u.,A,eV,Ry     =   1.133439  2.141888 17.479175  1.284683
  Thomas-Fermi vector in A             =   2.270141
 
 Write flags
   LWAVE        =      F    write WAVECAR
   LDOWNSAMPLE  =      F    k-point downsampling of WAVECAR
   LCHARG       =      F    write CHGCAR
   LVTOT        =      F    write LOCPOT, total local potential
   LVHAR        =      F    write LOCPOT, Hartree potential only
   LELF         =      F    write electronic localiz. function (ELF)
   LORBIT       =      0    0 simple, 1 ext, 2 COOP (PROOUT), +10 PAW based schemes


 Dipole corrections
   LMONO  =      F    monopole corrections only (constant potential shift)
   LDIPOL =      F    correct potential (dipole corrections)
   IDIPOL =      0    1-x, 2-y, 3-z, 4-all directions 
   EPSILON=  1.0000000 bulk dielectric constant

 Exchange correlation treatment:
   GGA     =    --    GGA type
   LEXCH   =     8    internal setting for exchange type
   VOSKOWN=      0    Vosko Wilk Nusair interpolation
   LHFCALC =     F    Hartree Fock is set to
   LHFONE  =     F    Hartree Fock one center treatment
   AEXX    =    0.0000 exact exchange contribution

 Linear response parameters
   LEPSILON=     F    determine dielectric tensor
   LRPA    =     F    only Hartree local field effects (RPA)
   LNABLA  =     F    use nabla operator in PAW spheres
   LVEL    =     F    velocity operator in full k-point grid
   LINTERFAST=   F  fast interpolation
   KINTER  =     0    interpolate to denser k-point grid
   CSHIFT  =0.1000    complex shift for real part using Kramers Kronig
   OMEGAMAX=  -1.0    maximum frequency
   DEG_THRESHOLD= 0.2000000E-02 threshold for treating states as degnerate
   RTIME   =   -0.100 relaxation time in fs
  (WPLASMAI=    0.000 imaginary part of plasma frequency in eV, 0.658/RTIME)
   DFIELD  = 0.0000000 0.0000000 0.0000000 field for delta impulse in time
 
 Orbital magnetization related:
   ORBITALMAG=     F  switch on orbital magnetization
   LCHIMAG   =     F  perturbation theory with respect to B field
   DQ        =  0.001000  dq finite difference perturbation B field
   LLRAUG    =     F  two centre corrections for induced B field



--------------------------------------------------------------------------------------------------------


 conjugate gradient relaxation of ions
   using selective dynamics as specified on POSCAR
   WARNING: If single coordinates had been selected the selection of coordinates
            is made according to the corresponding   d i r e c t   coordinates!
            Don't support selection of single cartesian coordinates -- sorry ...
  !
 charge density and potential will be updated during run
 spin polarized calculation
 RMM-DIIS sequential band-by-band and
  variant of blocked Davidson during initial phase
 perform sub-space diagonalisation
    before iterative eigenvector-optimisation
 modified Broyden-mixing scheme, WC =      100.0
 initial mixing is a Kerker type mixing with AMIX =  0.4000 and BMIX =      1.0000
 Hartree-type preconditioning will be used
 using additional bands           99
 real space projection scheme for non local part
 use partial core corrections
 calculate Harris-corrections to forces 
   (improved forces if not selfconsistent)
 use gradient corrections 
 use of overlap-Matrix (Vanderbilt PP)
 Methfessel and Paxton  Order N= 1 SIGMA  =   0.10


--------------------------------------------------------------------------------------------------------


  energy-cutoff  :      550.00
  volume of cell :     1931.47
      direct lattice vectors                 reciprocal lattice vectors
    10.560000420  0.000000000  0.000000000     0.094696966  0.054673319  0.000000000
    -5.280000210  9.145228627  0.000000000     0.000000000  0.109346638  0.000000000
     0.000000000  0.000000000 20.000000000     0.000000000  0.000000000  0.050000000

  length of vectors
    10.560000420 10.560000420 20.000000000     0.109346638  0.109346638  0.050000000


 
 k-points in units of 2pi/SCALE and weight: mesh auto                               
   0.00000000  0.00000000  0.00000000       0.250
   0.04734848  0.02733666  0.00000000       0.250
   0.00000000  0.05467332  0.00000000       0.250
   0.04734848  0.08200998  0.00000000       0.250
 
 k-points in reciprocal lattice and weights: mesh auto                               
   0.00000000  0.00000000  0.00000000       0.250
   0.50000000 -0.00000000  0.00000000       0.250
   0.00000000  0.50000000  0.00000000       0.250
   0.50000000  0.50000000  0.00000000       0.250
 
 position of ions in fractional coordinates (direct lattice) 
   0.99999844  0.00000156  0.05579229
   0.33333173  0.16666826  0.17752397
   0.16666826  0.33333171  0.29729603
   0.00000156  0.99999844  0.41902774
   0.99999844  0.25000155  0.05579229
   0.33333172  0.41666827  0.17752397
   0.16666826  0.08333172  0.29729603
   0.00000155  0.24999844  0.41902774
   0.24999844  0.25000155  0.05579229
   0.08333172  0.41666827  0.17752397
   0.41666827  0.08333172  0.29729603
   0.25000155  0.24999844  0.41902774
   0.24999844  0.00000156  0.05579229
   0.08333172  0.16666826  0.17752397
   0.41666826  0.33333171  0.29729603
   0.25000156  0.99999844  0.41902774
   0.49999844  0.00000156  0.05579229
   0.83333168  0.16666826  0.17752397
   0.66666828  0.33333171  0.29729603
   0.50000156  0.99999844  0.41902774
   0.49999843  0.25000155  0.05579229
   0.83333168  0.41666827  0.17752397
   0.66666830  0.08333172  0.29729603
   0.50000154  0.24999844  0.41902774
   0.74999841  0.25000155  0.05579229
   0.58333168  0.41666827  0.17752397
   0.91666827  0.08333172  0.29729603
   0.75000152  0.24999844  0.41902774
   0.74999842  0.00000156  0.05579229
   0.58333166  0.16666826  0.17752397
   0.91666826  0.33333171  0.29729603
   0.75000153  0.99999844  0.41902774
   0.99999844  0.50000154  0.05579229
   0.33333171  0.66666826  0.17752397
   0.16666825  0.83333170  0.29729603
   0.00000155  0.49999843  0.41902774
   0.99999843  0.75000151  0.05579229
   0.33333173  0.91666828  0.17752397
   0.16666826  0.58333168  0.29729603
   0.00000154  0.74999840  0.41902774
   0.24999843  0.75000151  0.05579229
   0.08333173  0.91666828  0.17752397
   0.41666828  0.58333168  0.29729603
   0.25000154  0.74999840  0.41902774
   0.24999844  0.50000154  0.05579229
   0.08333171  0.66666826  0.17752397
   0.41666827  0.83333170  0.29729603
   0.25000155  0.49999843  0.41902774
   0.49999844  0.50000154  0.05579229
   0.83333171  0.66666826  0.17752397
   0.66666830  0.83333170  0.29729603
   0.50000155  0.49999843  0.41902774
   0.49999843  0.75000151  0.05579229
   0.83333170  0.91666828  0.17752397
   0.66666830  0.58333168  0.29729603
   0.50000154  0.74999840  0.41902774
   0.74999841  0.75000151  0.05579229
   0.58333168  0.91666828  0.17752397
   0.91666828  0.58333168  0.29729603
   0.75000152  0.74999840  0.41902774
   0.74999839  0.50000154  0.05579229
   0.58333166  0.66666826  0.17752397
   0.91666827  0.83333170  0.29729603
   0.75000150  0.49999843  0.41902774
   0.42630000  0.33000000  0.46067000
 
 position of ions in cartesian coordinates  (Angst):
  10.55997578  0.00001422  1.11584590
   2.63997474  1.52421935  3.55047947
   0.00002535  3.04839473  5.94592065
  -5.27997557  9.14521440  8.38055470
   9.23997574  2.28632132  1.11584590
   1.31997457  3.81052657  3.55047947
   1.32002541  0.76208763  5.94592065
  -1.31997541  2.28629287  8.38055470
   1.31997542  2.28632132  1.11584590
  -1.32002553  3.81052657  3.55047947
   3.96002563  0.76208763  5.94592065
   1.32002469  2.28629287  8.38055470
   2.63997547  0.00001422  1.11584590
  -0.00002541  1.52421935  3.55047947
   2.64002545  3.04839473  5.94592065
  -2.63997547  9.14521440  8.38055470
   5.27997557  0.00001422  1.11584590
   7.91997448  1.52421935  3.55047947
   5.28002580  3.04839473  5.94592065
   0.00002464  9.14521440  8.38055470
   3.95997540  2.28632132  1.11584590
   6.59997431  3.81052657  3.55047947
   6.60002598  0.76208763  5.94592065
   3.96002467  2.28629287  8.38055470
   6.59997527  2.28632132  1.11584590
   3.95997420  3.81052657  3.55047947
   9.24002584  0.76208763  5.94592065
   6.60002455  2.28629287  8.38055470
   7.91997543  0.00001422  1.11584590
   5.27997414  1.52421935  3.55047947
   7.92002566  3.04839473  5.94592065
   2.64002450  9.14521440  8.38055470
   7.91997567  4.57262842  1.11584590
  -0.00002559  6.09683366  3.55047947
  -2.63997474  7.62100892  5.94592065
  -2.63997547  4.57259997  8.38055470
   6.59997574  6.85893527  1.11584590
  -1.32002553  8.38314100  3.55047947
  -1.31997445  5.33470159  5.94592065
  -3.95997540  6.85890683  8.38055470
  -1.32002457  6.85893527  1.11584590
  -3.96002563  8.38314100  3.55047947
   1.32002577  5.33470159  5.94592065
  -1.31997530  6.85890683  8.38055470
  -0.00002464  4.57262842  1.11584590
  -2.64002570  6.09683366  3.55047947
   0.00002559  7.62100892  5.94592065
   0.00002463  4.57259997  8.38055470
   2.63997546  4.57262842  1.11584590
   5.27997462  6.09683366  3.55047947
   2.64002594  7.62100892  5.94592065
   2.64002474  4.57259997  8.38055470
   1.31997553  6.85893527  1.11584590
   3.95997444  8.38314100  3.55047947
   3.96002611  5.33470159  5.94592065
   1.32002481  6.85890683  8.38055470
   3.95997540  6.85893527  1.11584590
   1.31997410  8.38314100  3.55047947
   6.60002598  5.33470159  5.94592065
   3.96002468  6.85890683  8.38055470
   5.27997509  4.57262842  1.11584590
   2.63997404  6.09683366  3.55047947
   5.28002580  7.62100892  5.94592065
   5.28002437  4.57259997  8.38055470
   2.75932811  3.01792545  9.21340000
 


--------------------------------------------------------------------------------------------------------


 k-point  1 :   0.0000 0.0000 0.0000  plane waves:   56579
 k-point  2 :   0.5000-0.0000 0.0000  plane waves:   56606
 k-point  3 :   0.0000 0.5000 0.0000  plane waves:   56606
 k-point  4 :   0.5000 0.5000 0.0000  plane waves:   56606

 maximum and minimum number of plane-waves per node :     14185    14108

 maximum number of plane-waves:     56606
 maximum index in each direction: 
   IXMAX=   20   IYMAX=   20   IZMAX=   38
   IXMIN=  -20   IYMIN=  -20   IZMIN=  -38


 real space projection operators:
  total allocation   :      71197.33 KBytes
  max/ min on nodes  :      17799.82      17798.96


 parallel 3D FFT for wavefunctions:
    minimum data exchange during FFTs selected (reduces bandwidth)
 parallel 3D FFT for charge:
    minimum data exchange during FFTs selected (reduces bandwidth)


 total amount of memory used by VASP MPI-rank0   200562. kBytes
=======================================================================

   base      :      30000. kBytes
   nonlr-proj:      30904. kBytes
   fftplans  :      17093. kBytes
   grid      :      44247. kBytes
   one-center:        528. kBytes
   wavefun   :      77790. kBytes
 
     INWAV:  cpu time    0.0000: real time    0.0000
 Broyden mixing: mesh for mixing (old mesh)
   NGX = 41   NGY = 41   NGZ = 77
  (NGX  =168   NGY  =168   NGZ  =320)
  gives a total of 129437 points

 initial charge density was supplied:
 charge density of overlapping atoms calculated
 number of electron     641.0000000 magnetization      65.0000000
 keeping initial charge density in first step


--------------------------------------------------------------------------------------------------------


 Maximum index for non-local projection operator         2015
 Maximum index for augmentation-charges         2177 (set IRDMAX)


--------------------------------------------------------------------------------------------------------


 First call to EWALD:  gamma=   0.142
 Maximum number of real-space cells 4x 4x 2
 Maximum number of reciprocal cells 2x 2x 4

    FEWALD:  cpu time    0.0039: real time    0.0039


--------------------------------------- Iteration      1(   1)  ---------------------------------------


    POTLOK:  cpu time    0.3551: real time    0.3663
    SETDIJ:  cpu time    0.0322: real time    0.0325
     EDDAV:  cpu time   40.5431: real time   40.7832
       DOS:  cpu time    0.0016: real time    0.0017
    --------------------------------------------
      LOOP:  cpu time   40.9321: real time   41.1837

 eigenvalue-minimisations  :  6720
 total energy-change (2. order) : 0.4506673E+04  (-0.3121306E+05)
 number of electron     641.0000000 magnetization      65.0000000
 augmentation part      641.0000000 magnetization      65.0000000

 Free energy of the ion-electron system (eV)
  ---------------------------------------------------
  alpha Z        PSCENC =      2019.82280658
  Ewald energy   TEWEN  =    126229.65868759
  -Hartree energ DENC   =   -177306.58834240
  -exchange      EXHF   =         0.00000000
  -V(xc)+E(xc)   XCENC  =       245.79326563
  PAW double counting   =     44548.75599742   -42738.90423410
  entropy T*S    EENTRO =        -0.00070498
  eigenvalues    EBANDS =      4832.25284730
  atomic energy  EATOM  =     46675.88275157
  Solvation  Ediel_sol  =         0.00000000
  ---------------------------------------------------
  free energy    TOTEN  =      4506.67307461 eV

  energy without entropy =     4506.67377959  energy(sigma->0) =     4506.67330960


--------------------------------------------------------------------------------------------------------




--------------------------------------- Iteration      1(   2)  ---------------------------------------


     EDDAV:  cpu time   44.5921: real time   44.6978
       DOS:  cpu time    0.0016: real time    0.0016
    --------------------------------------------
      LOOP:  cpu time   44.5937: real time   44.6994

 eigenvalue-minimisations  :  7550
 total energy-change (2. order) :-0.4642888E+04  (-0.4252751E+04)
 number of electron     641.0000000 magnetization      65.0000000
 augmentation part      641.0000000 magnetization      65.0000000

 Free energy of the ion-electron system (eV)
  ---------------------------------------------------
  alpha Z        PSCENC =      2019.82280658
  Ewald energy   TEWEN  =    126229.65868759
  -Hartree energ DENC   =   -177306.58834240
  -exchange      EXHF   =         0.00000000
  -V(xc)+E(xc)   XCENC  =       245.79326563
  PAW double counting   =     44548.75599742   -42738.90423410
  entropy T*S    EENTRO =        -0.00641175
  eigenvalues    EBANDS =       189.37028508
  atomic energy  EATOM  =     46675.88275157
  Solvation  Ediel_sol  =         0.00000000
  ---------------------------------------------------
  free energy    TOTEN  =      -136.21519438 eV

  energy without entropy =     -136.20878263  energy(sigma->0) =     -136.21305713


--------------------------------------------------------------------------------------------------------




--------------------------------------- Iteration      1(   3)  ---------------------------------------


     EDDAV:  cpu time   44.5807: real time   44.6906
       DOS:  cpu time    0.0016: real time    0.0016
    --------------------------------------------
      LOOP:  cpu time   44.5823: real time   44.6922

 eigenvalue-minimisations  :  7610
 total energy-change (2. order) :-0.2456620E+03  (-0.2277564E+03)
 number of electron     641.0000000 magnetization      65.0000000
 augmentation part      641.0000000 magnetization      65.0000000

 Free energy of the ion-electron system (eV)
  ---------------------------------------------------
  alpha Z        PSCENC =      2019.82280658
  Ewald energy   TEWEN  =    126229.65868759
  -Hartree energ DENC   =   -177306.58834240
  -exchange      EXHF   =         0.00000000
  -V(xc)+E(xc)   XCENC  =       245.79326563
  PAW double counting   =     44548.75599742   -42738.90423410
  entropy T*S    EENTRO =         0.02255186
  eigenvalues    EBANDS =       -56.32068905
  atomic energy  EATOM  =     46675.88275157
  Solvation  Ediel_sol  =         0.00000000
  ---------------------------------------------------
  free energy    TOTEN  =      -381.87720489 eV

  energy without entropy =     -381.89975675  energy(sigma->0) =     -381.88472218


--------------------------------------------------------------------------------------------------------




--------------------------------------- Iteration      1(   4)  ---------------------------------------


     EDDAV:  cpu time   45.8059: real time   45.9408
       DOS:  cpu time    0.0015: real time    0.0015
    --------------------------------------------
      LOOP:  cpu time   45.8074: real time   45.9423

 eigenvalue-minimisations  :  7890
 total energy-change (2. order) :-0.6379374E+01  (-0.6318067E+01)
 number of electron     641.0000000 magnetization      65.0000000
 augmentation part      641.0000000 magnetization      65.0000000

 Free energy of the ion-electron system (eV)
  ---------------------------------------------------
  alpha Z        PSCENC =      2019.82280658
  Ewald energy   TEWEN  =    126229.65868759
  -Hartree energ DENC   =   -177306.58834240
  -exchange      EXHF   =         0.00000000
  -V(xc)+E(xc)   XCENC  =       245.79326563
  PAW double counting   =     44548.75599742   -42738.90423410
  entropy T*S    EENTRO =         0.01682066
  eigenvalues    EBANDS =       -62.69433189
  atomic energy  EATOM  =     46675.88275157
  Solvation  Ediel_sol  =         0.00000000
  ---------------------------------------------------
  free energy    TOTEN  =      -388.25657894 eV

  energy without entropy =     -388.27339960  energy(sigma->0) =     -388.26218583


--------------------------------------------------------------------------------------------------------




--------------------------------------- Iteration      1(   5)  ---------------------------------------


     EDDAV:  cpu time   46.1445: real time   46.2799
       DOS:  cpu time    0.0016: real time    0.0016
    CHARGE:  cpu time    2.9861: real time    2.9933
    MIXING:  cpu time    0.0089: real time    0.0097
    --------------------------------------------
      LOOP:  cpu time   49.1411: real time   49.2846

 eigenvalue-minimisations  :  7970
 total energy-change (2. order) :-0.2324243E+00  (-0.2318369E+00)
 number of electron     641.0000123 magnetization      58.8092341
 augmentation part      185.7480059 magnetization      46.8865134

 Broyden mixing:
  rms(total) = 0.10624E+02    rms(broyden)= 0.10624E+02
  rms(prec ) = 0.10730E+02
  weight for this iteration     100.00

 Free energy of the ion-electron system (eV)
  ---------------------------------------------------
  alpha Z        PSCENC =      2019.82280658
  Ewald energy   TEWEN  =    126229.65868759
  -Hartree energ DENC   =   -177306.58834240
  -exchange      EXHF   =         0.00000000
  -V(xc)+E(xc)   XCENC  =       245.79326563
  PAW double counting   =     44548.75599742   -42738.90423410
  entropy T*S    EENTRO =         0.01765083
  eigenvalues    EBANDS =       -62.92758641
  atomic energy  EATOM  =     46675.88275157
  Solvation  Ediel_sol  =         0.00000000
  ---------------------------------------------------
  free energy    TOTEN  =      -388.48900329 eV

  energy without entropy =     -388.50665411  energy(sigma->0) =     -388.49488689


--------------------------------------------------------------------------------------------------------




--------------------------------------- Iteration      1(   6)  ---------------------------------------


    POTLOK:  cpu time    0.3830: real time    0.3839
    SETDIJ:  cpu time    0.0350: real time    0.0351
    EDDIAG:  cpu time    7.2030: real time    7.2229
  RMM-DIIS:  cpu time   26.0564: real time   26.1182
    ORTHCH:  cpu time    0.6615: real time    0.6631
       DOS:  cpu time    0.0018: real time    0.0018
    CHARGE:  cpu time    2.9466: real time    2.9536
    MIXING:  cpu time    0.0087: real time    0.0795
    --------------------------------------------
      LOOP:  cpu time   37.2960: real time   37.4580

 eigenvalue-minimisations  :  6759
 total energy-change (2. order) : 0.2568470E+02  (-0.6305824E+01)
 number of electron     641.0000130 magnetization      51.4815699
 augmentation part      195.1680010 magnetization      38.3931886

 Broyden mixing:
  rms(total) = 0.69106E+01    rms(broyden)= 0.69106E+01
  rms(prec ) = 0.72381E+01
  weight for this iteration     100.00

 eigenvalues of (default mixing * dielectric matrix)
  average eigenvalue GAMMA=   1.2330
  1.2330

 Free energy of the ion-electron system (eV)
  ---------------------------------------------------
  alpha Z        PSCENC =      2019.82280658
  Ewald energy   TEWEN  =    126229.65868759
  -Hartree energ DENC   =   -176618.88405619
  -exchange      EXHF   =         0.00000000
  -V(xc)+E(xc)   XCENC  =       235.45164279
  PAW double counting   =     50934.71829089   -49232.52126717
  entropy T*S    EENTRO =        -0.07696363
  eigenvalues    EBANDS =      -606.85619707
  atomic energy  EATOM  =     46675.88275157
  Solvation  Ediel_sol  =         0.00000000
  ---------------------------------------------------
  free energy    TOTEN  =      -362.80430463 eV

  energy without entropy =     -362.72734100  energy(sigma->0) =     -362.77865008


--------------------------------------------------------------------------------------------------------




--------------------------------------- Iteration      1(   7)  ---------------------------------------


    POTLOK:  cpu time    0.3621: real time    0.3630
    SETDIJ:  cpu time    0.0312: real time    0.0313
    EDDIAG:  cpu time    7.1507: real time    7.1676
  RMM-DIIS:  cpu time   25.4413: real time   25.5025
    ORTHCH:  cpu time    0.6627: real time    0.6642
       DOS:  cpu time    0.0017: real time    0.0017
    CHARGE:  cpu time    3.0046: real time    3.0117
    MIXING:  cpu time    0.0082: real time    0.0083
    --------------------------------------------
      LOOP:  cpu time   36.6625: real time   36.7503

 eigenvalue-minimisations  :  6730
 total energy-change (2. order) :-0.1144299E+03  (-0.1291925E+02)
 number of electron     641.0000136 magnetization      45.4693477
 augmentation part      192.3282928 magnetization      34.0553375

 Broyden mixing:
  rms(total) = 0.99644E+01    rms(broyden)= 0.99644E+01
  rms(prec ) = 0.12355E+02
  weight for this iteration     100.00

 eigenvalues of (default mixing * dielectric matrix)
  average eigenvalue GAMMA=   1.0395
  1.7565  0.3225

 Free energy of the ion-electron system (eV)
  ---------------------------------------------------
  alpha Z        PSCENC =      2019.82280658
  Ewald energy   TEWEN  =    126229.65868759
  -Hartree energ DENC   =   -177176.40565583
  -exchange      EXHF   =         0.00000000
  -V(xc)+E(xc)   XCENC  =       229.57393911
  PAW double counting   =     56397.53170349   -54755.18122810
  entropy T*S    EENTRO =         0.02676214
  eigenvalues    EBANDS =       -98.14393928
  atomic energy  EATOM  =     46675.88275157
  Solvation  Ediel_sol  =         0.00000000
  ---------------------------------------------------
  free energy    TOTEN  =      -477.23417274 eV

  energy without entropy =     -477.26093487  energy(sigma->0) =     -477.24309345


--------------------------------------------------------------------------------------------------------




--------------------------------------- Iteration      1(   8)  ---------------------------------------


    POTLOK:  cpu time    0.3600: real time    0.3608
    SETDIJ:  cpu time    0.0313: real time    0.0313
    EDDIAG:  cpu time    7.1543: real time    7.1712
  RMM-DIIS:  cpu time   25.6759: real time   25.7367
    ORTHCH:  cpu time    0.6631: real time    0.6646
       DOS:  cpu time    0.0018: real time    0.0018
    CHARGE:  cpu time    2.9462: real time    2.9532
    MIXING:  cpu time    0.0086: real time    0.0086
    --------------------------------------------
      LOOP:  cpu time   36.8411: real time   36.9283

 eigenvalue-minimisations  :  6744
 total energy-change (2. order) : 0.1134179E+03  (-0.5062764E+01)
 number of electron     641.0000135 magnetization      43.2331432
 augmentation part      198.4548566 magnetization      31.6253696

 Broyden mixing:
  rms(total) = 0.41060E+01    rms(broyden)= 0.41060E+01
  rms(prec ) = 0.51180E+01
  weight for this iteration     100.00

 eigenvalues of (default mixing * dielectric matrix)
  average eigenvalue GAMMA=   0.9753
  2.0787  0.5181  0.3290

 Free energy of the ion-electron system (eV)
  ---------------------------------------------------
  alpha Z        PSCENC =      2019.82280658
  Ewald energy   TEWEN  =    126229.65868759
  -Hartree energ DENC   =   -176668.06628890
  -exchange      EXHF   =         0.00000000
  -V(xc)+E(xc)   XCENC  =       231.75211510
  PAW double counting   =     60172.34669265   -58575.56161741
  entropy T*S    EENTRO =        -0.08803038
  eigenvalues    EBANDS =      -449.56343037
  atomic energy  EATOM  =     46675.88275157
  Solvation  Ediel_sol  =         0.00000000
  ---------------------------------------------------
  free energy    TOTEN  =      -363.81631356 eV

  energy without entropy =     -363.72828318  energy(sigma->0) =     -363.78697010


--------------------------------------------------------------------------------------------------------




--------------------------------------- Iteration      1(   9)  ---------------------------------------


    POTLOK:  cpu time    0.3610: real time    0.3618
    SETDIJ:  cpu time    0.0314: real time    0.0314
    EDDIAG:  cpu time    7.1573: real time    7.1743
  RMM-DIIS:  cpu time   25.5921: real time   25.6696
    ORTHCH:  cpu time    0.6641: real time    0.6662
       DOS:  cpu time    0.0018: real time    0.0018
    CHARGE:  cpu time    2.9538: real time    2.9626
    MIXING:  cpu time    0.0092: real time    0.0092
    --------------------------------------------
      LOOP:  cpu time   36.7707: real time   36.8770

 eigenvalue-minimisations  :  6731
 total energy-change (2. order) :-0.1703190E+02  (-0.3486512E+01)
 number of electron     641.0000136 magnetization      40.8271157
 augmentation part      198.2281124 magnetization      33.6264385

 Broyden mixing:
  rms(total) = 0.52975E+01    rms(broyden)= 0.52975E+01
  rms(prec ) = 0.79452E+01
  weight for this iteration     100.00

 eigenvalues of (default mixing * dielectric matrix)
  average eigenvalue GAMMA=   0.8558
  2.2514  0.6805  0.3209  0.1703

 Free energy of the ion-electron system (eV)
  ---------------------------------------------------
  alpha Z        PSCENC =      2019.82280658
  Ewald energy   TEWEN  =    126229.65868759
  -Hartree energ DENC   =   -176587.48810583
  -exchange      EXHF   =         0.00000000
  -V(xc)+E(xc)   XCENC  =       231.48837064
  PAW double counting   =     60670.15555452   -59075.75387042
  entropy T*S    EENTRO =         0.01703148
  eigenvalues    EBANDS =      -544.63144070
  atomic energy  EATOM  =     46675.88275157
  Solvation  Ediel_sol  =         0.00000000
  ---------------------------------------------------
  free energy    TOTEN  =      -380.84821457 eV

  energy without entropy =     -380.86524605  energy(sigma->0) =     -380.85389173


--------------------------------------------------------------------------------------------------------




--------------------------------------- Iteration      1(  10)  ---------------------------------------


    POTLOK:  cpu time    0.3605: real time    0.3614
    SETDIJ:  cpu time    0.0315: real time    0.0316
    EDDIAG:  cpu time    7.2511: real time    7.2733
  RMM-DIIS:  cpu time   25.8129: real time   25.8901
    ORTHCH:  cpu time    0.6978: real time    0.6997
       DOS:  cpu time    0.0018: real time    0.0018
    CHARGE:  cpu time    2.9389: real time    2.9476
    MIXING:  cpu time    0.0091: real time    0.0091
    --------------------------------------------
      LOOP:  cpu time   37.1037: real time   37.2146

 eigenvalue-minimisations  :  6739
 total energy-change (2. order) : 0.1200346E+02  (-0.1123716E+01)
 number of electron     641.0000132 magnetization      38.6707544
 augmentation part      197.7076517 magnetization      29.2139281

 Broyden mixing:
  rms(total) = 0.41166E+01    rms(broyden)= 0.41166E+01
  rms(prec ) = 0.53249E+01
  weight for this iteration     100.00

 eigenvalues of (default mixing * dielectric matrix)
  average eigenvalue GAMMA=   0.7416
  2.3123  0.7110  0.2762  0.2762  0.1325

 Free energy of the ion-electron system (eV)
  ---------------------------------------------------
  alpha Z        PSCENC =      2019.82280658
  Ewald energy   TEWEN  =    126229.65868759
  -Hartree energ DENC   =   -176657.75762518
  -exchange      EXHF   =         0.00000000
  -V(xc)+E(xc)   XCENC  =       231.03434848
  PAW double counting   =     61037.85904925   -59444.40118070
  entropy T*S    EENTRO =         0.03735789
  eigenvalues    EBANDS =      -460.98095379
  atomic energy  EATOM  =     46675.88275157
  Solvation  Ediel_sol  =         0.00000000
  ---------------------------------------------------
  free energy    TOTEN  =      -368.84475832 eV

  energy without entropy =     -368.88211620  energy(sigma->0) =     -368.85721094


--------------------------------------------------------------------------------------------------------




--------------------------------------- Iteration      1(  11)  ---------------------------------------


    POTLOK:  cpu time    0.3586: real time    0.3627
    SETDIJ:  cpu time    0.0313: real time    0.0314
    EDDIAG:  cpu time    7.1453: real time    7.1624
  RMM-DIIS:  cpu time   25.8133: real time   25.8747
    ORTHCH:  cpu time    0.6647: real time    0.6663
       DOS:  cpu time    0.0018: real time    0.0018
    CHARGE:  cpu time    2.9536: real time    2.9606
    MIXING:  cpu time    0.0098: real time    0.0098
    --------------------------------------------
      LOOP:  cpu time   36.9785: real time   37.0696

 eigenvalue-minimisations  :  6740
 total energy-change (2. order) : 0.1388779E+02  (-0.4755805E+00)
 number of electron     641.0000130 magnetization      37.1218088
 augmentation part      197.6497384 magnetization      27.9885572

 Broyden mixing:
  rms(total) = 0.19232E+01    rms(broyden)= 0.19232E+01
  rms(prec ) = 0.21601E+01
  weight for this iteration     100.00

 eigenvalues of (default mixing * dielectric matrix)
  average eigenvalue GAMMA=   0.7026
  2.1906  0.6191  0.6191  0.3325  0.3325  0.1218

 Free energy of the ion-electron system (eV)
  ---------------------------------------------------
  alpha Z        PSCENC =      2019.82280658
  Ewald energy   TEWEN  =    126229.65868759
  -Hartree energ DENC   =   -176662.13984215
  -exchange      EXHF   =         0.00000000
  -V(xc)+E(xc)   XCENC  =       230.56568109
  PAW double counting   =     61314.53387549   -59723.07396181
  entropy T*S    EENTRO =        -0.02975298
  eigenvalues    EBANDS =      -440.17721868
  atomic energy  EATOM  =     46675.88275157
  Solvation  Ediel_sol  =         0.00000000
  ---------------------------------------------------
  free energy    TOTEN  =      -354.95697331 eV

  energy without entropy =     -354.92722033  energy(sigma->0) =     -354.94705565


--------------------------------------------------------------------------------------------------------




--------------------------------------- Iteration      1(  12)  ---------------------------------------


    POTLOK:  cpu time    0.3623: real time    0.3631
    SETDIJ:  cpu time    0.0315: real time    0.0316
    EDDIAG:  cpu time    7.1554: real time    7.1726
  RMM-DIIS:  cpu time   25.7523: real time   25.8132
    ORTHCH:  cpu time    0.6615: real time    0.6631
       DOS:  cpu time    0.0017: real time    0.0017
    CHARGE:  cpu time    2.9661: real time    2.9731
    MIXING:  cpu time    0.0096: real time    0.0097
    --------------------------------------------
      LOOP:  cpu time   36.9405: real time   37.0281

 eigenvalue-minimisations  :  6757
 total energy-change (2. order) :-0.8545004E-01  (-0.1763196E+00)
 number of electron     641.0000130 magnetization      34.5597295
 augmentation part      197.6037665 magnetization      24.5911383

 Broyden mixing:
  rms(total) = 0.12661E+01    rms(broyden)= 0.12661E+01
  rms(prec ) = 0.14341E+01
  weight for this iteration     100.00

 eigenvalues of (default mixing * dielectric matrix)
  average eigenvalue GAMMA=   0.7227
  2.2323  0.7302  0.7302  0.6375  0.3032  0.3032  0.1223

 Free energy of the ion-electron system (eV)
  ---------------------------------------------------
  alpha Z        PSCENC =      2019.82280658
  Ewald energy   TEWEN  =    126229.65868759
  -Hartree energ DENC   =   -176655.88208633
  -exchange      EXHF   =         0.00000000
  -V(xc)+E(xc)   XCENC  =       230.02735296
  PAW double counting   =     60957.35762111   -59362.67424773
  entropy T*S    EENTRO =         0.06248590
  eigenvalues    EBANDS =      -449.29779500
  atomic energy  EATOM  =     46675.88275157
  Solvation  Ediel_sol  =         0.00000000
  ---------------------------------------------------
  free energy    TOTEN  =      -355.04242335 eV

  energy without entropy =     -355.10490925  energy(sigma->0) =     -355.06325199


--------------------------------------------------------------------------------------------------------




--------------------------------------- Iteration      1(  13)  ---------------------------------------


    POTLOK:  cpu time    0.3626: real time    0.3634
    SETDIJ:  cpu time    0.0315: real time    0.0315
    EDDIAG:  cpu time    7.1710: real time    7.1882
  RMM-DIIS:  cpu time   25.8681: real time   25.9335
    ORTHCH:  cpu time    0.6620: real time    0.6635
       DOS:  cpu time    0.0018: real time    0.0018
    CHARGE:  cpu time    2.9588: real time    2.9658
    MIXING:  cpu time    0.0101: real time    0.0101
    --------------------------------------------
      LOOP:  cpu time   37.0658: real time   37.1578

 eigenvalue-minimisations  :  6762
 total energy-change (2. order) :-0.2343632E+01  (-0.1523186E+00)
 number of electron     641.0000130 magnetization      31.9597672
 augmentation part      197.4117628 magnetization      21.7514151

 Broyden mixing:
  rms(total) = 0.11296E+01    rms(broyden)= 0.11296E+01
  rms(prec ) = 0.12644E+01
  weight for this iteration     100.00

 eigenvalues of (default mixing * dielectric matrix)
  average eigenvalue GAMMA=   0.7030
  2.2172  0.8762  0.8762  0.5687  0.3383  0.3125  0.3125  0.1225

 Free energy of the ion-electron system (eV)
  ---------------------------------------------------
  alpha Z        PSCENC =      2019.82280658
  Ewald energy   TEWEN  =    126229.65868759
  -Hartree energ DENC   =   -176693.14412760
  -exchange      EXHF   =         0.00000000
  -V(xc)+E(xc)   XCENC  =       228.46022268
  PAW double counting   =     61042.54156631   -59448.99201088
  entropy T*S    EENTRO =        -0.01772698
  eigenvalues    EBANDS =      -411.59822485
  atomic energy  EATOM  =     46675.88275157
  Solvation  Ediel_sol  =         0.00000000
  ---------------------------------------------------
  free energy    TOTEN  =      -357.38605558 eV

  energy without entropy =     -357.36832860  energy(sigma->0) =     -357.38014659


--------------------------------------------------------------------------------------------------------




--------------------------------------- Iteration      1(  14)  ---------------------------------------


    POTLOK:  cpu time    0.3611: real time    0.3620
    SETDIJ:  cpu time    0.0314: real time    0.0315
    EDDIAG:  cpu time    7.2593: real time    7.2802
  RMM-DIIS:  cpu time   25.7073: real time   25.7844
    ORTHCH:  cpu time    0.7245: real time    0.7267
       DOS:  cpu time    0.0019: real time    0.0019
    CHARGE:  cpu time    2.9650: real time    2.9737
    MIXING:  cpu time    0.0110: real time    0.0111
    --------------------------------------------
      LOOP:  cpu time   37.0615: real time   37.1715

 eigenvalue-minimisations  :  6751
 total energy-change (2. order) :-0.2613958E+01  (-0.1215042E+00)
 number of electron     641.0000131 magnetization      29.2088864
 augmentation part      197.2391003 magnetization      18.3385870

 Broyden mixing:
  rms(total) = 0.10235E+01    rms(broyden)= 0.10235E+01
  rms(prec ) = 0.11990E+01
  weight for this iteration     100.00

 eigenvalues of (default mixing * dielectric matrix)
  average eigenvalue GAMMA=   0.7210
  1.8757  1.4537  1.0201  0.5989  0.5989  0.2966  0.2966  0.1224  0.2260

 Free energy of the ion-electron system (eV)
  ---------------------------------------------------
  alpha Z        PSCENC =      2019.82280658
  Ewald energy   TEWEN  =    126229.65868759
  -Hartree energ DENC   =   -176719.52115216
  -exchange      EXHF   =         0.00000000
  -V(xc)+E(xc)   XCENC  =       226.91408208
  PAW double counting   =     61033.67737134   -59440.06050925
  entropy T*S    EENTRO =        -0.04442590
  eigenvalues    EBANDS =      -386.32962516
  atomic energy  EATOM  =     46675.88275157
  Solvation  Ediel_sol  =         0.00000000
  ---------------------------------------------------
  free energy    TOTEN  =      -360.00001330 eV

  energy without entropy =     -359.95558740  energy(sigma->0) =     -359.98520467


--------------------------------------------------------------------------------------------------------




--------------------------------------- Iteration      1(  15)  ---------------------------------------


    POTLOK:  cpu time    0.3619: real time    0.3628
    SETDIJ:  cpu time    0.0318: real time    0.0318
    EDDIAG:  cpu time    7.1525: real time    7.1741
  RMM-DIIS:  cpu time   25.8445: real time   25.9221
    ORTHCH:  cpu time    0.6695: real time    0.6716
       DOS:  cpu time    0.0019: real time    0.0019
    CHARGE:  cpu time    2.9648: real time    2.9735
    MIXING:  cpu time    0.0119: real time    0.0120
    --------------------------------------------
      LOOP:  cpu time   37.0389: real time   37.1497

 eigenvalue-minimisations  :  6746
 total energy-change (2. order) :-0.3359903E+01  (-0.1765128E+00)
 number of electron     641.0000130 magnetization      26.2581148
 augmentation part      197.0698106 magnetization      16.1852400

 Broyden mixing:
  rms(total) = 0.80695E+00    rms(broyden)= 0.80695E+00
  rms(prec ) = 0.10217E+01
  weight for this iteration     100.00

 eigenvalues of (default mixing * dielectric matrix)
  average eigenvalue GAMMA=   0.7653
  2.0970  2.0970  0.7923  0.5639  0.5639  0.5956  0.3005  0.3005  0.1224  0.2204

 Free energy of the ion-electron system (eV)
  ---------------------------------------------------
  alpha Z        PSCENC =      2019.82280658
  Ewald energy   TEWEN  =    126229.65868759
  -Hartree energ DENC   =   -176720.48018871
  -exchange      EXHF   =         0.00000000
  -V(xc)+E(xc)   XCENC  =       225.02336553
  PAW double counting   =     60794.40459027   -59198.15580355
  entropy T*S    EENTRO =        -0.00759825
  eigenvalues    EBANDS =      -389.50852682
  atomic energy  EATOM  =     46675.88275157
  Solvation  Ediel_sol  =         0.00000000
  ---------------------------------------------------
  free energy    TOTEN  =      -363.35991580 eV

  energy without entropy =     -363.35231755  energy(sigma->0) =     -363.35738305


--------------------------------------------------------------------------------------------------------




--------------------------------------- Iteration      1(  16)  ---------------------------------------


    POTLOK:  cpu time    0.3661: real time    0.3670
    SETDIJ:  cpu time    0.0329: real time    0.0330
    EDDIAG:  cpu time    7.2328: real time    7.2543
  RMM-DIIS:  cpu time   26.1659: real time   26.2444
    ORTHCH:  cpu time    0.6638: real time    0.6654
       DOS:  cpu time    0.0019: real time    0.0019
    CHARGE:  cpu time    2.9358: real time    2.9445
    MIXING:  cpu time    0.0124: real time    0.0124
    --------------------------------------------
      LOOP:  cpu time   37.4115: real time   37.5228

 eigenvalue-minimisations  :  6745
 total energy-change (2. order) :-0.2427658E+01  (-0.1207452E+00)
 number of electron     641.0000130 magnetization      24.3291690
 augmentation part      197.0122182 magnetization      15.4662085

 Broyden mixing:
  rms(total) = 0.64885E+00    rms(broyden)= 0.64885E+00
  rms(prec ) = 0.80747E+00
  weight for this iteration     100.00

 eigenvalues of (default mixing * dielectric matrix)
  average eigenvalue GAMMA=   0.7754
  2.2054  2.2054  0.8575  0.8575  0.5497  0.5497  0.3645  0.3004  0.3004  0.1224
  0.2158

 Free energy of the ion-electron system (eV)
  ---------------------------------------------------
  alpha Z        PSCENC =      2019.82280658
  Ewald energy   TEWEN  =    126229.65868759
  -Hartree energ DENC   =   -176710.59786494
  -exchange      EXHF   =         0.00000000
  -V(xc)+E(xc)   XCENC  =       223.45105118
  PAW double counting   =     60697.69769896   -59100.66787662
  entropy T*S    EENTRO =        -0.00520725
  eigenvalues    EBANDS =      -401.02962111
  atomic energy  EATOM  =     46675.88275157
  Solvation  Ediel_sol  =         0.00000000
  ---------------------------------------------------
  free energy    TOTEN  =      -365.78757403 eV

  energy without entropy =     -365.78236678  energy(sigma->0) =     -365.78583828


--------------------------------------------------------------------------------------------------------




--------------------------------------- Iteration      1(  17)  ---------------------------------------


    POTLOK:  cpu time    0.3603: real time    0.3618
    SETDIJ:  cpu time    0.0331: real time    0.0332
    EDDIAG:  cpu time    7.1505: real time    7.1719
  RMM-DIIS:  cpu time   25.8801: real time   25.9581
    ORTHCH:  cpu time    0.6627: real time    0.6647
       DOS:  cpu time    0.0018: real time    0.0018
    CHARGE:  cpu time    2.9375: real time    2.9459
    MIXING:  cpu time    0.0114: real time    0.0114
    --------------------------------------------
      LOOP:  cpu time   37.0374: real time   37.1489

 eigenvalue-minimisations  :  6750
 total energy-change (2. order) :-0.8521112E+00  (-0.3267664E-01)
 number of electron     641.0000130 magnetization      22.3746588
 augmentation part      197.0292795 magnetization      13.6173329

 Broyden mixing:
  rms(total) = 0.37719E+00    rms(broyden)= 0.37719E+00
  rms(prec ) = 0.39793E+00
  weight for this iteration     100.00

 eigenvalues of (default mixing * dielectric matrix)
  average eigenvalue GAMMA=   0.7852
  2.4165  2.4165  0.8338  0.8338  0.5815  0.5815  0.4690  0.1224  0.3016  0.3016
  0.3481  0.2159

 Free energy of the ion-electron system (eV)
  ---------------------------------------------------
  alpha Z        PSCENC =      2019.82280658
  Ewald energy   TEWEN  =    126229.65868759
  -Hartree energ DENC   =   -176704.70577331
  -exchange      EXHF   =         0.00000000
  -V(xc)+E(xc)   XCENC  =       222.57642076
  PAW double counting   =     60771.11099567   -59175.13882922
  entropy T*S    EENTRO =        -0.01344741
  eigenvalues    EBANDS =      -405.83329746
  atomic energy  EATOM  =     46675.88275157
  Solvation  Ediel_sol  =         0.00000000
  ---------------------------------------------------
  free energy    TOTEN  =      -366.63968523 eV

  energy without entropy =     -366.62623781  energy(sigma->0) =     -366.63520276


--------------------------------------------------------------------------------------------------------




--------------------------------------- Iteration      1(  18)  ---------------------------------------


    POTLOK:  cpu time    0.3614: real time    0.3628
    SETDIJ:  cpu time    0.0330: real time    0.0331
    EDDIAG:  cpu time    7.2368: real time    7.2584
  RMM-DIIS:  cpu time   25.8224: real time   25.8999
    ORTHCH:  cpu time    0.6704: real time    0.6726
       DOS:  cpu time    0.0018: real time    0.0018
    CHARGE:  cpu time    2.9775: real time    2.9863
    MIXING:  cpu time    0.0135: real time    0.0135
    --------------------------------------------
      LOOP:  cpu time   37.1169: real time   37.2285

 eigenvalue-minimisations  :  6736
 total energy-change (2. order) :-0.1030403E+01  (-0.2991698E-01)
 number of electron     641.0000130 magnetization      20.5768249
 augmentation part      197.0553268 magnetization      12.0046392

 Broyden mixing:
  rms(total) = 0.32145E+00    rms(broyden)= 0.32145E+00
  rms(prec ) = 0.34195E+00
  weight for this iteration     100.00

 eigenvalues of (default mixing * dielectric matrix)
  average eigenvalue GAMMA=   0.8223
  3.0091  2.3670  0.7046  0.7046  0.6454  0.6454  0.7242  0.6627  0.1224  0.3003
  0.3003  0.2871  0.2165

 Free energy of the ion-electron system (eV)
  ---------------------------------------------------
  alpha Z        PSCENC =      2019.82280658
  Ewald energy   TEWEN  =    126229.65868759
  -Hartree energ DENC   =   -176695.16254054
  -exchange      EXHF   =         0.00000000
  -V(xc)+E(xc)   XCENC  =       221.74222675
  PAW double counting   =     60769.83050840   -59174.12182049
  entropy T*S    EENTRO =        -0.00477670
  eigenvalues    EBANDS =      -415.31793185
  atomic energy  EATOM  =     46675.88275157
  Solvation  Ediel_sol  =         0.00000000
  ---------------------------------------------------
  free energy    TOTEN  =      -367.67008869 eV

  energy without entropy =     -367.66531199  energy(sigma->0) =     -367.66849646


--------------------------------------------------------------------------------------------------------




--------------------------------------- Iteration      1(  19)  ---------------------------------------


    POTLOK:  cpu time    0.3716: real time    0.3726
    SETDIJ:  cpu time    0.0329: real time    0.0330
    EDDIAG:  cpu time    7.1483: real time    7.1697
  RMM-DIIS:  cpu time   25.8597: real time   25.9374
    ORTHCH:  cpu time    0.6719: real time    0.6740
       DOS:  cpu time    0.0019: real time    0.0019
    CHARGE:  cpu time    2.9601: real time    2.9688
    MIXING:  cpu time    0.0125: real time    0.0126
    --------------------------------------------
      LOOP:  cpu time   37.0589: real time   37.1700

 eigenvalue-minimisations  :  6740
 total energy-change (2. order) :-0.8189836E+00  (-0.3014720E-01)
 number of electron     641.0000130 magnetization      17.9937305
 augmentation part      197.0851466 magnetization       9.6697950

 Broyden mixing:
  rms(total) = 0.31507E+00    rms(broyden)= 0.31507E+00
  rms(prec ) = 0.34374E+00
  weight for this iteration     100.00

 eigenvalues of (default mixing * dielectric matrix)
  average eigenvalue GAMMA=   0.9124
  4.3660  2.2099  1.0363  1.0363  0.8117  0.5915  0.5915  0.6236  0.1224  0.3007
  0.3007  0.3203  0.2160  0.2473

 Free energy of the ion-electron system (eV)
  ---------------------------------------------------
  alpha Z        PSCENC =      2019.82280658
  Ewald energy   TEWEN  =    126229.65868759
  -Hartree energ DENC   =   -176683.32893253
  -exchange      EXHF   =         0.00000000
  -V(xc)+E(xc)   XCENC  =       221.07119968
  PAW double counting   =     60747.28740515   -59151.54397079
  entropy T*S    EENTRO =         0.00081085
  eigenvalues    EBANDS =      -427.33983044
  atomic energy  EATOM  =     46675.88275157
  Solvation  Ediel_sol  =         0.00000000
  ---------------------------------------------------
  free energy    TOTEN  =      -368.48907234 eV

  energy without entropy =     -368.48988319  energy(sigma->0) =     -368.48934262


--------------------------------------------------------------------------------------------------------




--------------------------------------- Iteration      1(  20)  ---------------------------------------


    POTLOK:  cpu time    0.3618: real time    0.3627
    SETDIJ:  cpu time    0.0330: real time    0.0331
    EDDIAG:  cpu time    7.1469: real time    7.1684
  RMM-DIIS:  cpu time   25.8789: real time   25.9566
    ORTHCH:  cpu time    0.6622: real time    0.6642
       DOS:  cpu time    0.0018: real time    0.0018
    CHARGE:  cpu time    2.9064: real time    2.9150
    MIXING:  cpu time    0.0118: real time    0.0118
    --------------------------------------------
      LOOP:  cpu time   37.0028: real time   37.1137

 eigenvalue-minimisations  :  6741
 total energy-change (2. order) :-0.5541384E+00  (-0.3227577E-01)
 number of electron     641.0000131 magnetization      16.6841445
 augmentation part      197.1328635 magnetization       8.6749121

 Broyden mixing:
  rms(total) = 0.23720E+00    rms(broyden)= 0.23720E+00
  rms(prec ) = 0.26320E+00
  weight for this iteration     100.00

 eigenvalues of (default mixing * dielectric matrix)
  average eigenvalue GAMMA=   0.9463
  5.1910  2.1851  1.1960  1.1960  0.7411  0.6036  0.6036  0.5034  0.5034  0.1224
  0.3009  0.3009  0.3058  0.2159  0.2259

 Free energy of the ion-electron system (eV)
  ---------------------------------------------------
  alpha Z        PSCENC =      2019.82280658
  Ewald energy   TEWEN  =    126229.65868759
  -Hartree energ DENC   =   -176664.42799631
  -exchange      EXHF   =         0.00000000
  -V(xc)+E(xc)   XCENC  =       220.46544792
  PAW double counting   =     60751.56388683   -59156.08459575
  entropy T*S    EENTRO =        -0.00447765
  eigenvalues    EBANDS =      -445.91972152
  atomic energy  EATOM  =     46675.88275157
  Solvation  Ediel_sol  =         0.00000000
  ---------------------------------------------------
  free energy    TOTEN  =      -369.04321074 eV

  energy without entropy =     -369.03873309  energy(sigma->0) =     -369.04171819


--------------------------------------------------------------------------------------------------------




--------------------------------------- Iteration      1(  21)  ---------------------------------------


    POTLOK:  cpu time    0.3610: real time    0.3619
    SETDIJ:  cpu time    0.0330: real time    0.0331
    EDDIAG:  cpu time    7.1438: real time    7.1653
  RMM-DIIS:  cpu time   25.7509: real time   25.8279
    ORTHCH:  cpu time    0.6610: real time    0.6632
       DOS:  cpu time    0.0018: real time    0.0018
    CHARGE:  cpu time    2.8891: real time    2.8978
    MIXING:  cpu time    0.0130: real time    0.0130
    --------------------------------------------
      LOOP:  cpu time   36.8536: real time   36.9639

 eigenvalue-minimisations  :  6751
 total energy-change (2. order) :-0.1236051E+00  (-0.9415014E-02)
 number of electron     641.0000131 magnetization      15.4488466
 augmentation part      197.1595105 magnetization       7.6773468

 Broyden mixing:
  rms(total) = 0.17771E+00    rms(broyden)= 0.17771E+00
  rms(prec ) = 0.20179E+00
  weight for this iteration     100.00

 eigenvalues of (default mixing * dielectric matrix)
  average eigenvalue GAMMA=   0.9959
  6.0277  2.1510  1.3847  1.3847  0.7352  0.6548  0.6548  0.5919  0.5919  0.1224
  0.3005  0.3005  0.3316  0.2752  0.2175  0.2100

 Free energy of the ion-electron system (eV)
  ---------------------------------------------------
  alpha Z        PSCENC =      2019.82280658
  Ewald energy   TEWEN  =    126229.65868759
  -Hartree energ DENC   =   -176653.33110816
  -exchange      EXHF   =         0.00000000
  -V(xc)+E(xc)   XCENC  =       220.23801159
  PAW double counting   =     60763.68962056   -59168.37550237
  entropy T*S    EENTRO =        -0.01025019
  eigenvalues    EBANDS =      -456.74183298
  atomic energy  EATOM  =     46675.88275157
  Solvation  Ediel_sol  =         0.00000000
  ---------------------------------------------------
  free energy    TOTEN  =      -369.16681582 eV

  energy without entropy =     -369.15656562  energy(sigma->0) =     -369.16339909


--------------------------------------------------------------------------------------------------------




[...]


------------------------ aborting loop because EDIFF is reached ----------------------------------------


    CHARGE:  cpu time    2.9853: real time    2.9941
    FORLOC:  cpu time    0.0715: real time    0.0716
    FORNL :  cpu time   11.5447: real time   11.5784
    STRESS:  cpu time   34.6730: real time   34.7749
    FORCOR:  cpu time    0.3938: real time    0.3950
    FORHAR:  cpu time    0.1031: real time    0.1036
    MIXING:  cpu time    0.0103: real time    0.0103
    OFIELD:  cpu time    0.0001: real time    0.0001

 ---------------------------------------------------------------------------------------------

         DFTD3 V3.0 Rev 1        
 Edisp (eV)  -38.71098

 E6    (eV) :   -14.2847
 E8    (eV) :   -24.4263
 % E8        : 63.10
    FORVDW:  cpu time    0.3109: real time    0.3132

  FORCE on cell =-STRESS in cart. coord.  units (eV):
  Direction    XX          YY          ZZ          XY          YZ          ZX
  --------------------------------------------------------------------------------------
  Alpha Z  2019.82281  2019.82281  2019.82281
  Ewald  162315.26711162318.83160************     3.31200     0.23714    -1.36886
  Hartree173219.44296173220.53159************     0.97972     0.09748    -0.33474
  E(xc)   -2858.86844 -2858.85065 -2884.65400     0.02105     0.00845    -0.02275
  Local  ************************357650.53697    -3.60498    -0.19085     1.12168
  n-local   574.35592   574.57518   314.17069     0.22941    -0.04705     0.05560
  augment  3253.00982  3252.75388  3534.52046    -0.28673    -0.05917     0.22019
  Kinetic  9157.23646  9156.57312  9753.97100    -0.70328    -0.09606     0.43528
  Fock        0.00000     0.00000     0.00000     0.00000     0.00000     0.00000
  vdW       -53.57072   -53.59304   -28.80632    -0.03040     0.00403    -0.01029
  -------------------------------------------------------------------------------------
  Total      80.96247    80.93585    -0.80662    -0.08321    -0.04603     0.09612
  in kB      67.15925    67.13717    -0.66910    -0.06902    -0.03818     0.07973
  external pressure =       44.54 kB  Pullay stress =        0.00 kB


 VOLUME and BASIS-vectors are now :
 -----------------------------------------------------------------------------
  energy-cutoff  :      550.00
  volume of cell :     1931.47
      direct lattice vectors                 reciprocal lattice vectors
    10.560000420  0.000000000  0.000000000     0.094696966  0.054673319  0.000000000
    -5.280000210  9.145228627  0.000000000     0.000000000  0.109346638  0.000000000
     0.000000000  0.000000000 20.000000000     0.000000000  0.000000000  0.050000000

  length of vectors
    10.560000420 10.560000420 20.000000000     0.109346638  0.109346638  0.050000000


 FORCES acting on ions
    electron-ion (+dipol)            ewald-force                    non-local-force                 convergence-correction
 -----------------------------------------------------------------------------------------------
   -.423E+00 -.343E+00 0.231E+04   0.394E+00 0.360E+00 -.231E+04   0.331E-02 -.182E-01 -.984E-01   0.201E-01 0.649E-02 -.618E-01
   0.139E+00 -.542E+01 0.774E+03   -.170E+00 0.543E+01 -.774E+03   0.293E-02 0.662E-01 -.233E+00   0.258E-01 0.287E-01 -.673E-01
   -.648E+01 0.197E+01 -.776E+03   0.674E+01 -.206E+01 0.776E+03   -.285E+00 0.884E-01 0.277E+00   0.217E-01 -.221E-02 0.255E-01
   0.461E+01 0.750E+01 -.229E+04   -.455E+01 -.740E+01 0.229E+04   -.662E-01 -.111E+00 0.666E-01   0.808E-02 0.143E-01 0.653E-01
   -.509E+00 -.207E+00 0.231E+04   0.519E+00 0.174E+00 -.231E+04   -.130E-01 0.974E-02 -.962E-01   0.420E-02 0.173E-01 -.585E-01
   -.460E+01 0.264E+01 0.774E+03   0.460E+01 -.264E+01 -.774E+03   0.589E-01 -.333E-01 -.239E+00   0.362E-01 -.161E-01 -.731E-01
   -.138E+01 -.671E+01 -.776E+03   0.140E+01 0.698E+01 0.776E+03   -.617E-01 -.284E+00 0.278E+00   0.261E-01 0.265E-01 0.234E-01
   0.871E+01 0.361E+00 -.229E+04   -.859E+01 -.353E+00 0.229E+04   -.114E+00 -.426E-02 0.593E-01   0.105E-01 -.349E-02 0.627E-01
   -.590E+00 -.356E+00 0.231E+04   0.584E+00 0.359E+00 -.231E+04   -.315E-02 -.286E-02 -.515E-01   0.204E-01 0.817E-02 -.384E-01
   -.294E+01 0.612E+00 0.780E+03   0.292E+01 -.618E+00 -.780E+03   0.243E-01 -.472E-02 -.360E+00   0.767E-02 0.388E-02 -.829E-01
   0.143E+01 -.623E+01 -.775E+03   -.150E+01 0.648E+01 0.775E+03   0.693E-01 -.277E+00 0.285E+00   0.847E-02 0.318E-01 0.222E-01
   0.213E+02 0.127E+02 -.233E+04   -.218E+02 -.130E+02 0.233E+04   0.491E+00 0.300E+00 -.430E+00   0.221E-03 -.693E-02 0.678E-02
   0.111E-02 -.766E+00 0.231E+04   -.185E-01 0.738E+00 -.231E+04   0.184E-02 -.627E-02 -.950E-01   0.138E-01 0.117E-01 -.437E-01
   -.328E+01 -.190E+01 0.780E+03   0.330E+01 0.191E+01 -.780E+03   -.374E-02 -.510E-02 -.422E+00   0.376E-01 0.235E-01 -.773E-01
   0.271E+00 -.254E+00 -.821E+03   -.303E+00 0.270E+00 0.821E+03   0.197E-01 -.113E-01 0.684E+00   0.228E-01 -.101E-01 -.154E-01
   -.301E+00 0.710E+01 -.226E+04   0.286E+00 -.726E+01 0.226E+04   -.774E-03 0.159E+00 0.412E-01   0.181E-01 0.275E-01 0.402E-01
   0.413E+00 -.317E+00 0.231E+04   -.389E+00 0.329E+00 -.231E+04   -.422E-03 -.175E-01 -.988E-01   -.202E-01 0.102E-01 -.457E-01
   -.103E+00 -.655E+00 0.782E+03   0.127E+00 0.646E+00 -.782E+03   0.444E-02 -.105E-01 -.376E+00   -.266E-01 0.205E-01 -.744E-01
   0.611E+01 0.193E+01 -.775E+03   -.635E+01 -.201E+01 0.774E+03   0.276E+00 0.789E-01 0.285E+00   -.259E-01 -.224E-01 0.202E-01
   -.426E+01 0.710E+01 -.229E+04   0.422E+01 -.704E+01 0.229E+04   0.449E-01 -.950E-01 0.694E-01   -.177E-01 0.292E-01 0.396E-01
   0.610E+00 -.346E+00 0.231E+04   -.627E+00 0.355E+00 -.231E+04   0.562E-02 -.287E-02 -.490E-01   -.319E-02 0.253E-02 -.264E-01
   0.262E+01 0.639E+00 0.781E+03   -.258E+01 -.628E+00 -.780E+03   -.153E-01 -.575E-02 -.368E+00   -.316E-01 -.123E-01 -.767E-01
   0.195E+01 -.119E+01 -.768E+03   -.194E+01 0.119E+01 0.767E+03   0.364E-01 -.194E-01 0.390E+00   -.409E-01 0.232E-01 0.190E-01
   -.208E+02 0.120E+02 -.232E+04   0.213E+02 -.123E+02 0.232E+04   -.596E+00 0.344E+00 -.310E+00   0.167E-01 -.105E-01 -.110E-01
   0.479E+00 -.192E+00 0.231E+04   -.476E+00 0.166E+00 -.231E+04   0.150E-01 0.908E-02 -.983E-01   -.214E-01 0.116E-01 -.463E-01
   0.481E+01 0.260E+01 0.774E+03   -.483E+01 -.258E+01 -.774E+03   -.553E-01 -.346E-01 -.234E+00   -.122E-01 -.320E-01 -.662E-01
   -.193E+01 -.113E+01 -.768E+03   0.197E+01 0.114E+01 0.767E+03   -.439E-01 -.261E-01 0.386E+00   0.120E-02 0.102E-01 0.304E-01
   -.818E+01 0.730E-01 -.229E+04   0.812E+01 -.724E-01 0.229E+04   0.100E+00 0.109E-01 0.686E-01   -.349E-01 0.427E-03 0.399E-01
   -.212E-02 -.490E-03 0.231E+04   0.141E-01 -.418E-02 -.231E+04   0.459E-03 -.351E-04 -.641E-01   -.137E-01 0.516E-02 -.639E-01
   0.309E+01 -.176E+01 0.780E+03   -.312E+01 0.177E+01 -.780E+03   0.139E-01 -.767E-02 -.429E+00   -.368E-01 0.211E-01 -.672E-01
   0.120E+00 -.478E+00 -.768E+03   -.877E-01 0.515E+00 0.768E+03   -.118E-01 -.354E-01 0.419E+00   -.240E-01 -.183E-02 0.126E-01
   0.150E+00 -.654E-01 -.230E+04   -.132E+00 0.585E-01 0.230E+04   -.999E-02 0.543E-02 0.472E-01   -.995E-02 0.421E-02 0.106E+00
   -.274E-01 0.156E+00 0.231E+04   0.269E-01 -.111E+00 -.231E+04   0.121E-02 -.709E-02 -.138E+00   -.357E-02 0.172E-02 -.561E-01
   -.201E+01 0.225E+01 0.780E+03   0.200E+01 -.223E+01 -.780E+03   0.173E-01 -.173E-01 -.359E+00   0.465E-02 -.536E-02 -.822E-01
   -.132E+00 0.869E+00 -.768E+03   0.125E+00 -.830E+00 0.768E+03   -.789E-03 -.595E-01 0.422E+00   0.125E-01 0.183E-01 0.132E-01
   0.434E+00 -.190E+00 -.231E+04   -.416E+00 0.239E+00 0.231E+04   -.100E-01 -.458E-01 0.128E+00   -.109E-01 -.939E-02 0.934E-01
   0.125E+00 -.800E-01 0.231E+04   -.961E-01 0.639E-01 -.231E+04   -.694E-02 0.389E-02 -.137E+00   0.112E-01 -.704E-02 -.594E-01
   0.836E+00 -.261E+01 0.781E+03   -.831E+00 0.257E+01 -.780E+03   -.267E-02 0.171E-01 -.367E+00   -.704E-03 0.307E-01 -.774E-01
   0.657E+00 -.425E+00 -.769E+03   -.610E+00 0.395E+00 0.768E+03   -.499E-01 0.296E-01 0.422E+00   0.697E-02 -.421E-03 0.134E-01
   -.171E+00 0.224E+00 -.231E+04   0.210E+00 -.242E+00 0.231E+04   -.381E-01 0.199E-01 0.122E+00   0.726E-03 -.269E-02 0.961E-01
   -.150E+00 -.624E-01 0.231E+04   0.106E+00 0.383E-01 -.231E+04   0.791E-02 0.307E-02 -.139E+00   -.865E-03 0.304E-02 -.555E-01
   -.907E+00 -.280E+01 0.780E+03   0.864E+00 0.277E+01 -.780E+03   0.126E-01 0.175E-01 -.360E+00   0.296E-01 0.176E-01 -.798E-01
   -.503E+01 0.463E+01 -.776E+03   0.525E+01 -.481E+01 0.776E+03   -.220E+00 0.207E+00 0.273E+00   0.152E-01 -.127E-01 0.253E-01
   0.249E+00 -.225E+00 -.231E+04   -.287E+00 0.188E+00 0.231E+04   0.396E-01 0.306E-01 0.126E+00   0.662E-02 0.141E-01 0.926E-01
   -.665E+00 0.382E+00 0.231E+04   0.646E+00 -.374E+00 -.231E+04   -.625E-02 0.366E-02 -.961E-01   0.558E-02 -.451E-03 -.509E-01
   -.156E+00 0.829E-02 0.782E+03   0.150E+00 -.638E-02 -.782E+03   0.437E-02 -.521E-03 -.473E+00   0.197E-02 -.688E-03 -.842E-01
   0.595E+00 0.225E+00 -.768E+03   -.612E+00 -.267E+00 0.767E+03   0.221E-01 0.248E-01 0.419E+00   -.942E-02 0.172E-01 0.105E-01
   0.621E+01 -.354E+01 -.226E+04   -.635E+01 0.362E+01 0.226E+04   0.141E+00 -.848E-01 0.354E-01   0.178E-01 -.877E-02 0.567E-01
   0.188E-01 0.689E+00 0.231E+04   -.247E-01 -.690E+00 -.231E+04   0.126E-02 0.456E-02 -.519E-01   0.373E-02 -.187E-01 -.364E-01
   0.199E+01 0.212E+01 0.780E+03   -.199E+01 -.206E+01 -.780E+03   -.895E-02 -.178E-01 -.360E+00   -.483E-02 -.364E-01 -.780E-01
   -.143E-01 0.230E+01 -.767E+03   0.244E-01 -.233E+01 0.767E+03   0.690E-03 0.469E-01 0.384E+00   -.794E-02 -.130E-01 0.274E-01
   -.348E+00 -.251E+02 -.233E+04   0.352E+00 0.257E+02 0.233E+04   -.128E-01 -.553E+00 -.451E+00   0.615E-02 0.722E-02 0.527E-02
   -.711E-01 0.544E+00 0.231E+04   0.104E+00 -.536E+00 -.231E+04   -.148E-01 0.680E-02 -.958E-01   -.124E-01 -.126E-01 -.558E-01
   -.603E+00 0.301E+00 0.782E+03   0.607E+00 -.299E+00 -.782E+03   -.461E-02 0.424E-02 -.381E+00   0.240E-02 -.674E-02 -.762E-01
   0.524E+01 0.455E+01 -.776E+03   -.545E+01 -.472E+01 0.776E+03   0.219E+00 0.200E+00 0.277E+00   -.116E-01 -.319E-01 0.213E-01
   0.406E+01 -.772E+01 -.229E+04   -.401E+01 0.762E+01 0.229E+04   -.567E-01 0.101E+00 0.580E-01   0.848E-02 -.963E-02 0.595E-01
   0.869E-01 0.532E+00 0.231E+04   -.114E+00 -.514E+00 -.231E+04   0.172E-01 0.666E-02 -.974E-01   0.203E-02 -.227E-01 -.599E-01
   0.517E+00 0.378E+00 0.782E+03   -.498E+00 -.389E+00 -.782E+03   0.118E-01 0.310E-02 -.378E+00   -.314E-01 0.732E-02 -.743E-01
   -.795E+00 -.381E+00 -.768E+03   0.763E+00 0.366E+00 0.767E+03   0.489E-01 0.320E-01 0.424E+00   -.143E-01 -.176E-01 0.114E-01
   -.418E+01 -.765E+01 -.229E+04   0.414E+01 0.755E+01 0.229E+04   0.635E-01 0.110E+00 0.645E-01   -.106E-01 -.184E-01 0.613E-01
   0.665E+00 0.381E+00 0.231E+04   -.648E+00 -.354E+00 -.231E+04   0.710E-02 0.204E-02 -.942E-01   -.572E-02 -.165E-01 -.423E-01
   0.363E-01 0.380E+01 0.780E+03   -.374E-01 -.383E+01 -.780E+03   0.278E-02 0.710E-02 -.422E+00   -.166E-02 -.438E-01 -.755E-01
   -.325E+00 0.190E+00 -.768E+03   0.350E+00 -.197E+00 0.767E+03   -.274E-01 0.144E-01 0.415E+00   0.477E-02 -.943E-02 0.206E-01
   -.635E+01 -.331E+01 -.226E+04   0.648E+01 0.340E+01 0.226E+04   -.137E+00 -.786E-01 0.432E-01   -.154E-01 -.267E-01 0.351E-01
   -.686E+00 0.544E+00 -.293E+03   0.757E+00 -.601E+00 0.295E+03   -.634E-01 0.509E-01 -.170E+01   0.334E-03 -.205E-03 0.196E-02
 -----------------------------------------------------------------------------------------------
   0.216E+00 -.161E+00 0.405E+01   -.457E-12 0.762E-12 0.398E-12   -.155E+00 0.141E+00 -.318E+01   -.200E-01 0.581E-02 -.881E+00
 
 
 POSITION                                       TOTAL-FORCE (eV/Angst)
 -----------------------------------------------------------------------------------
     10.55998      0.00001      1.11585        -0.007144      0.005006      0.000968
      2.63997      1.52422      3.55048        -0.002879      0.098236      0.155720
      0.01695      3.04081      5.95898         0.004927      0.000269      0.003527
      0.00622     -0.00170      8.37673         0.008782      0.004292     -0.003298
      9.23998      2.28632      1.11585         0.000203     -0.006090      0.002025
      1.31997      3.81053      3.55048         0.086685     -0.049664      0.167452
      1.32498      0.77500      5.95915         0.003512      0.010524      0.001563
     -1.31375      2.28412      8.37510         0.010691      0.002784     -0.004138
      1.31998      2.28632      1.11585         0.010880      0.007927     -0.061215
     -1.32003      3.81053      3.55048         0.009178     -0.005268     -0.062950
      3.96252      0.77492      5.95700         0.001795      0.006848      0.002660
      1.30682      2.27225      8.55001        -0.010144     -0.003897      0.010022
      2.63998      0.00001      1.11585        -0.002356     -0.022859      0.005330
     -0.00003      1.52422      3.55048         0.059430      0.034186      0.085637
      2.64264      3.04772      6.01426         0.009804     -0.004938     -0.031989
     -2.63367      9.13663      8.32933         0.001444      0.019558      0.007487
      5.27998      0.00001      1.11585         0.003268      0.005501      0.001855
      7.91997      1.52422      3.55048         0.001304      0.003264     -0.016387
      5.27083      3.04094      5.95656        -0.004278     -0.006175      0.003442
      5.28664     -0.00186      8.37558        -0.013991      0.000162     -0.001049
      3.95998      2.28632      1.11585        -0.015396      0.008759     -0.056516
      6.59997      3.81053      3.55048        -0.006894     -0.005648     -0.066742
      6.60267      0.76138      5.94647        -0.003615      0.004308     -0.004499
      3.98514      2.27324      8.53540         0.009971     -0.008252      0.006849
      6.59998      2.28632      1.11585        -0.003546     -0.005760      0.001861
      3.95997      3.81053      3.55048        -0.088014     -0.047107      0.156261
      9.24577      0.76164      5.94663         0.000475     -0.000824     -0.006139
      6.60627      2.28334      8.37547        -0.006809      0.013688     -0.001584
      7.91998      0.00001      1.11585        -0.001874      0.000678      0.002211
      5.27997      1.52422      3.55048        -0.055491      0.031818      0.076860
      7.92439      3.05061      5.94386        -0.003582     -0.003555      0.002206
      2.64657      9.14293      8.36437        -0.002930      0.002920     -0.012728
      7.91998      4.57263      1.11585        -0.003449      0.040691     -0.037789
     -0.00003      6.09683      3.55048         0.008938     -0.005310     -0.063666
     -2.63583      7.62030      5.94709         0.003990     -0.005136     -0.004707
     -2.63351      4.57091      8.40392        -0.003137     -0.007856     -0.016326
      6.59998      6.85894      1.11585         0.032874     -0.018994     -0.038275
     -1.32003      8.38314      3.55048         0.000041      0.008829     -0.064334
     -1.31540      5.33295      5.94757         0.000211      0.002001     -0.006509
     -3.95346      6.85640      8.39962         0.000168      0.000168     -0.016812
     -1.32002      6.85894      1.11585        -0.037861     -0.017862     -0.037737
     -3.96003      8.38314      3.55048        -0.000261      0.009443     -0.065543
      1.33582      5.32484      5.95931         0.002793     -0.002159      0.002116
     -1.31437      6.85604      8.40389         0.008309      0.007704     -0.017990
     -0.00002      4.57263      1.11585        -0.020291      0.011383      0.006596
     -2.64003      6.09683      3.55048         0.000580      0.000837      0.032919
      0.00117      7.61759      5.94343        -0.001562      0.001836      0.003044
      0.00142      4.57353      8.33050         0.016112     -0.010221      0.002827
      2.63998      4.57263      1.11585        -0.001566     -0.013628     -0.062562
      5.27997      6.09683      3.55048        -0.008563     -0.003281     -0.068861
      2.64409      7.61780      5.94615         0.002257     -0.002562     -0.006630
      2.64695      4.59372      8.55347        -0.002531      0.010377      0.009833
      1.31998      6.85894      1.11585         0.005119      0.002005      0.002628
      3.95997      8.38314      3.55048         0.003253     -0.001072     -0.019532
      3.95176      5.32505      5.95892        -0.006793     -0.005133      0.002429
      1.32634      6.85708      8.37397         0.001486     -0.011779     -0.002705
      3.95998      6.85894      1.11585        -0.008005      0.002498      0.001432
      1.31997      8.38314      3.55048        -0.002006     -0.001992     -0.018982
      6.60361      5.33277      5.94624         0.005425      0.001652     -0.003397
      3.96588      6.85679      8.37537         0.002178     -0.010773     -0.002241
      5.27998      4.57263      1.11585         0.017870      0.012779      0.005607
      2.63997      6.09683      3.55048        -0.000298     -0.069284      0.086585
      5.28690      7.61799      5.94342        -0.001869     -0.000060      0.000651
      5.29162      4.57340      8.32751        -0.014558     -0.009273      0.011554
      2.62964      3.05876      9.57591         0.007740     -0.006521      0.021673
 -----------------------------------------------------------------------------------
    total drift:                                0.041333     -0.014327     -0.012916


--------------------------------------------------------------------------------------------------------



  FREE ENERGIE OF THE ION-ELECTRON SYSTEM (eV)
  ---------------------------------------------------
  free  energy   TOTEN  =      -408.83505627 eV

  energy  without entropy=     -408.79888861  energy(sigma->0) =     -408.82300039
 
 d Force = 0.9697995E-03[ 0.373E-03, 0.157E-02]  d Energy = 0.9589015E-03 0.109E-04
 d Force =-0.2629726E+01[-0.262E+01,-0.263E+01]  d Ewald  =-0.2629725E+01-0.100E-05


--------------------------------------------------------------------------------------------------------


    POTLOK:  cpu time    0.3943: real time    0.3953


--------------------------------------------------------------------------------------------------------


 Conjugate gradient step on ions:
 trial-energy change:   -0.000959  1 .order   -0.000970   -0.001567   -0.000373
  (g-gl).g = 0.852E-03      g.g   = 0.937E-03  gl.gl    = 0.193E-02
 g(Force)  = 0.937E-03   g(Stress)= 0.000E+00 ortho     = 0.959E-04
 gamma     =   0.44094
 trial     =   1.59956
 opt step  =   2.09846  (harmonic =   2.09846) maximal distance =0.01343381
 next E    =  -408.835125   (d E  =  -0.00103)


--------------------------------------------------------------------------------------------------------


  
 reached required accuracy - stopping structural energy minimisation
     LOOP+:  cpu time  339.6279: real time  340.5419
    4ORBIT:  cpu time    0.0000: real time    0.0000

 total amount of memory used by VASP MPI-rank0   200562. kBytes
=======================================================================

   base      :      30000. kBytes
   nonlr-proj:      30904. kBytes
   fftplans  :      17093. kBytes
   grid      :      44247. kBytes
   one-center:        528. kBytes
   wavefun   :      77790. kBytes
 
  
  
 General timing and accounting informations for this job:
 ========================================================
  
                  Total CPU time used (sec):    11064.482
                            User time (sec):    11049.908
                          System time (sec):       14.574
                         Elapsed time (sec):    11098.777
  
                   Maximum memory used (kb):      805532.
                   Average memory used (kb):           0.
  
                          Minor page faults:      3598462
                          Major page faults:            0
                 Voluntary context switches:         5281
