 vasp.5.4.4.18Apr17-6-g9f103f2a35 (build Nov 30 2020 22:55:02) complex          
  
 executed on             LinuxIFC date 2023.09.15  11:00:37
 running on   40 total cores
 distrk:  each k-point on   40 cores,    1 groups
 distr:  one band on NCORES_PER_BAND=   1 cores,   40 groups


--------------------------------------------------------------------------------------------------------


 INCAR:
 POTCAR:    PAW_PBE Co 02Aug2007                  
 POTCAR:    PAW_PBE Pt 04Feb2005                  
 POTCAR:    PAW_PBE H 15Jun2001                   

 ----------------------------------------------------------------------------- 
|                                                                             |
|           W    W    AA    RRRRR   N    N  II  N    N   GGGG   !!!           |
|           W    W   A  A   R    R  NN   N  II  NN   N  G    G  !!!           |
|           W    W  A    A  R    R  N N  N  II  N N  N  G       !!!           |
|           W WW W  AAAAAA  RRRRR   N  N N  II  N  N N  G  GGG   !            |
|           WW  WW  A    A  R   R   N   NN  II  N   NN  G    G                |
|           W    W  A    A  R    R  N    N  II  N    N   GGGG   !!!           |
|                                                                             |
|      For optimal performance we recommend to set                            |
|        NCORE= 4 - approx SQRT( number of cores)                             |
|      NCORE specifies how many cores store one orbital (NPAR=cpu/NCORE).     |
|      This setting can  greatly improve the performance of VASP for DFT.     |
|      The default,   NCORE=1            might be grossly inefficient         |
|      on modern multi-core architectures or massively parallel machines.     |
|      Do your own testing !!!!                                               |
|      Unfortunately you need to use the default for GW and RPA calculations. |
|      (for HF NCORE is supported but not extensively tested yet)             |
|                                                                             |
 ----------------------------------------------------------------------------- 

 POTCAR:    PAW_PBE Co 02Aug2007                  
   VRHFIN =Co: d8 s1                                                            
   LEXCH  = PE                                                                  
   EATOM  =   813.3670 eV,   59.7808 Ry                                         
                                                                                
   TITEL  = PAW_PBE Co 02Aug2007                                                
   LULTRA =        F    use ultrasoft PP ?                                      
   IUNSCR =        1    unscreen: 0-lin 1-nonlin 2-no                           
   RPACOR =    2.000    partial core radius                                     
   POMASS =   58.933; ZVAL   =    9.000    mass and valenz                      
   RCORE  =    2.300    outmost cutoff radius                                   
   RWIGS  =    2.460; RWIGS  =    1.302    wigner-seitz radius (au A)           
   ENMAX  =  267.968; ENMIN  =  200.976 eV                                      
   RCLOC  =    1.203    cutoff for local pot                                    
   LCOR   =        T    correct aug charges                                     
   LPAW   =        T    paw PP                                                  
   EAUG   =  477.818                                                            
   DEXC   =    0.000                                                            
   RMAX   =    2.360    core radius for proj-oper                               
   RAUG   =    1.300    factor for augmentation sphere                          
   RDEP   =    2.393    radius for radial grids                                 
   RDEPT  =    1.864    core radius for aug-charge                              
                                                                                
   Atomic configuration                                                         
    9 entries                                                                   
     n  l   j            E        occ.                                          
     1  0  0.50     -7587.6674   2.0000                                         
     2  0  0.50      -893.6084   2.0000                                         
     2  1  1.50      -764.5805   6.0000                                         
     3  0  0.50       -97.5973   2.0000                                         
     3  1  1.50       -60.9648   6.0000                                         
     3  2  2.50        -4.2382   8.0000                                         
     4  0  0.50        -4.3746   1.0000                                         
     4  1  1.50        -4.0817   0.0000                                         
     4  3  2.50        -1.3606   0.0000                                         
   Description                                                                  
     l       E           TYP  RCUT    TYP  RCUT                                 
     2     -4.2382362     23  2.300                                             
     2     -5.5988188     23  2.300                                             
     0     -4.3745797     23  2.300                                             
     0      5.7660125     23  2.300                                             
     1     -2.7211652     23  2.300                                             
     1     16.9860234     23  2.300                                             
  local pseudopotential read in
  partial core-charges read in
  partial kinetic energy density read in
  atomic valenz-charges read in
  non local Contribution for L=           2  read in
    real space projection operators read in
  non local Contribution for L=           2  read in
    real space projection operators read in
  non local Contribution for L=           0  read in
    real space projection operators read in
  non local Contribution for L=           0  read in
    real space projection operators read in
  non local Contribution for L=           1  read in
    real space projection operators read in
  non local Contribution for L=           1  read in
    real space projection operators read in
    PAW grid and wavefunctions read in
 
   number of l-projection  operators is LMAX  =           6
   number of lm-projection operators is LMMAX =          18
 
 POTCAR:    PAW_PBE Pt 04Feb2005                  
   VRHFIN =Pt: s1d9                                                             
   LEXCH  = PE                                                                  
   EATOM  =   729.1176 eV,   53.5886 Ry                                         
                                                                                
   TITEL  = PAW_PBE Pt 04Feb2005                                                
   LULTRA =        F    use ultrasoft PP ?                                      
   IUNSCR =        1    unscreen: 0-lin 1-nonlin 2-no                           
   RPACOR =    2.330    partial core radius                                     
   POMASS =  195.080; ZVAL   =   10.000    mass and valenz                      
   RCORE  =    2.600    outmost cutoff radius                                   
   RWIGS  =    2.750; RWIGS  =    1.455    wigner-seitz radius (au A)           
   ENMAX  =  230.283; ENMIN  =  172.712 eV                                      
   ICORE  =        3    local potential                                         
   LCOR   =        T    correct aug charges                                     
   LPAW   =        T    paw PP                                                  
   EAUG   =  358.966                                                            
   DEXC   =    0.000                                                            
   RMAX   =    2.658    core radius for proj-oper                               
   RAUG   =    1.300    factor for augmentation sphere                          
   RDEP   =    2.761    radius for radial grids                                 
   RDEPT  =    2.203    core radius for aug-charge                              
                                                                                
   Atomic configuration                                                         
   16 entries                                                                   
     n  l   j            E        occ.                                          
     1  0  0.50    -78401.1885   2.0000                                         
     2  0  0.50    -13770.7750   2.0000                                         
     2  1  1.50    -11931.0468   6.0000                                         
     3  0  0.50     -3234.7234   2.0000                                         
     3  1  1.50     -2699.2216   6.0000                                         
     3  2  2.50     -2119.5714  10.0000                                         
     4  0  0.50      -695.1528   2.0000                                         
     4  1  1.50      -519.6034   6.0000                                         
     4  2  2.50      -306.6786  10.0000                                         
     4  3  3.50       -70.1041  14.0000                                         
     5  0  0.50      -101.7747   2.0000                                         
     5  1  1.50       -55.9873   6.0000                                         
     5  2  2.50        -6.1423   9.0000                                         
     6  0  0.50        -5.6573   1.0000                                         
     6  1  1.50        -6.8029   0.0000                                         
     5  3  2.50        -1.3606   0.0000                                         
   Description                                                                  
     l       E           TYP  RCUT    TYP  RCUT                                 
     2     -6.1423404     23  2.500                                             
     2     -7.5029230     23  2.500                                             
     0     -5.6573207     23  2.500                                             
     0      0.7416693     23  2.500                                             
     1     -2.7211652     23  2.600                                             
     1     20.4087390     23  2.600                                             
     3     -1.3605826     23  2.500                                             
  local pseudopotential read in
  partial core-charges read in
  partial kinetic energy density read in
  atomic valenz-charges read in
  non local Contribution for L=           2  read in
    real space projection operators read in
  non local Contribution for L=           2  read in
    real space projection operators read in
  non local Contribution for L=           0  read in
    real space projection operators read in
  non local Contribution for L=           0  read in
    real space projection operators read in
  non local Contribution for L=           1  read in
    real space projection operators read in
  non local Contribution for L=           1  read in
    real space projection operators read in
    PAW grid and wavefunctions read in
 
   number of l-projection  operators is LMAX  =           6
   number of lm-projection operators is LMMAX =          18
 
 POTCAR:    PAW_PBE H 15Jun2001                   
   VRHFIN =H: ultrasoft test                                                    
   LEXCH  = PE                                                                  
   EATOM  =    12.4884 eV,    0.9179 Ry                                         
                                                                                
   TITEL  = PAW_PBE H 15Jun2001                                                 
   LULTRA =        F    use ultrasoft PP ?                                      
   IUNSCR =        0    unscreen: 0-lin 1-nonlin 2-no                           
   RPACOR =    0.000    partial core radius                                     
   POMASS =    1.000; ZVAL   =    1.000    mass and valenz                      
   RCORE  =    1.100    outmost cutoff radius                                   
   RWIGS  =    0.700; RWIGS  =    0.370    wigner-seitz radius (au A)           
   ENMAX  =  250.000; ENMIN  =  200.000 eV                                      
   RCLOC  =    0.701    cutoff for local pot                                    
   LCOR   =        T    correct aug charges                                     
   LPAW   =        T    paw PP                                                  
   EAUG   =  400.000                                                            
   RMAX   =    1.123    core radius for proj-oper                               
   RAUG   =    1.200    factor for augmentation sphere                          
   RDEP   =    1.112    radius for radial grids                                 
   RDEPT  =    0.926    core radius for aug-charge                              
                                                                                
   Atomic configuration                                                         
    2 entries                                                                   
     n  l   j            E        occ.                                          
     1  0  0.50        -6.4927   1.0000                                         
     2  1  0.50        -3.4015   0.0000                                         
   Description                                                                  
     l       E           TYP  RCUT    TYP  RCUT                                 
     0     -6.4927494     23  1.100                                             
     0      6.8029130     23  1.100                                             
     1     -4.0817478     23  1.100                                             
  local pseudopotential read in
  atomic valenz-charges read in
  non local Contribution for L=           0  read in
    real space projection operators read in
  non local Contribution for L=           0  read in
    real space projection operators read in
  non local Contribution for L=           1  read in
    real space projection operators read in
    PAW grid and wavefunctions read in
 
   number of l-projection  operators is LMAX  =           3
   number of lm-projection operators is LMMAX =           5
 
 Optimization of the real space projectors (new method)

 maximal supplied QI-value         = 16.25
 optimisation between [QCUT,QGAM] = [ 11.86, 23.89] = [ 39.41,159.82] Ry 
 Optimized for a Real-space Cutoff    1.33 Angstroem

   l    n(q)    QCUT    max X(q) W(low)/X(q) W(high)/X(q)  e(spline) 
   2      9    11.864    65.824    0.22E-03    0.53E-03    0.26E-06
   2      9    11.864    61.429    0.22E-03    0.53E-03    0.26E-06
   0      9    11.864    56.174    0.21E-03    0.32E-04    0.15E-06
   0      9    11.864    31.263    0.19E-03    0.30E-04    0.14E-06
   1      9    11.864    19.828    0.63E-04    0.30E-03    0.16E-06
   1      9    11.864    15.139    0.49E-04    0.25E-03    0.13E-06
 Optimization of the real space projectors (new method)

 maximal supplied QI-value         = 14.36
 optimisation between [QCUT,QGAM] = [ 11.92, 23.98] = [ 39.79,161.09] Ry 
 Optimized for a Real-space Cutoff    1.49 Angstroem

   l    n(q)    QCUT    max X(q) W(low)/X(q) W(high)/X(q)  e(spline) 
   2     10    11.920    66.195    0.79E-04    0.18E-03    0.24E-06
   2     10    11.920    64.643    0.81E-04    0.19E-03    0.24E-06
   0     11    11.920    95.520    0.28E-04    0.54E-04    0.18E-06
   0     11    11.920    63.403    0.27E-04    0.52E-04    0.17E-06
   1     10    11.920    19.961    0.18E-04    0.11E-03    0.23E-06
   1     10    11.920    13.289    0.25E-04    0.87E-04    0.19E-06
 Optimization of the real space projectors (new method)

 maximal supplied QI-value         = 34.20
 optimisation between [QCUT,QGAM] = [ 11.97, 23.94] = [ 40.13,160.53] Ry 
 Optimized for a Real-space Cutoff    1.18 Angstroem

   l    n(q)    QCUT    max X(q) W(low)/X(q) W(high)/X(q)  e(spline) 
   0      8    11.971    19.460    0.15E-03    0.31E-03    0.25E-06
   0      8    11.971    12.209    0.13E-03    0.29E-03    0.25E-06
   1      8    11.971     4.655    0.22E-03    0.24E-03    0.21E-06
  PAW_PBE Co 02Aug2007                  :
 energy of atom  1       EATOM= -813.3670
 kinetic energy error for atom=    0.0026 (will be added to EATOM!!)
  PAW_PBE Pt 04Feb2005                  :
 energy of atom  2       EATOM= -729.1176
 kinetic energy error for atom=    0.0021 (will be added to EATOM!!)
  PAW_PBE H 15Jun2001                   :
 energy of atom  3       EATOM=  -12.4884
 kinetic energy error for atom=    0.0008 (will be added to EATOM!!)
 
 
 POSCAR: Co   Pt   H                             
  positions in cartesian coordinates
  No initial velocities read in
 exchange correlation table for  LEXCH =        8
   RHO(1)=    0.500       N(1)  =     2000
   RHO(2)=  100.500       N(2)  =     4000
 


--------------------------------------------------------------------------------------------------------


 ion  position               nearest neighbor table
   1  0.786  0.869  0.311-  55 2.41  39 2.41  20 2.42   2 2.63  56 2.63  73 2.63  65 2.63  72 2.63
                             3 2.64  29 2.64  40 2.66  57 2.66
   2  0.035  0.869  0.311-  39 2.41  49 2.42  52 2.42  77 2.62   1 2.63  67 2.63  65 2.63  56 2.64
                             3 2.64  41 2.65  33 2.65  23 2.66
   3  0.036  0.619  0.311-  39 2.42  60 2.42  12 2.42  77 2.62  73 2.63  66 2.63   2 2.64  15 2.64
                             1 2.64   9 2.64  40 2.65  41 2.66
   4  0.787  0.868  0.051-  21 2.41  62 2.41  19 2.41   5 2.64   6 2.64  42 2.64  59 2.64  58 2.64
                            30 2.64
   5  0.037  0.868  0.051-  54 2.41  35 2.41  62 2.41  58 2.64  24 2.64   4 2.64  43 2.64   6 2.64
                            34 2.64
   6  0.037  0.618  0.051-  32 2.41  54 2.41  21 2.41  43 2.64  10 2.64  18 2.64   4 2.64  42 2.64
                             5 2.64
   7  0.620  0.202  0.136-  28 2.41  30 2.41  58 2.41  55 2.50  63 2.51  64 2.51  62 2.64  11 2.64
                            37 2.64  19 2.64  45 2.64  22 2.64
   8  0.370  0.952  0.136-  16 2.41  24 2.41  59 2.41  53 2.50  26 2.51  50 2.51  38 2.64  25 2.64
                            44 2.64  19 2.64  37 2.64  35 2.64
   9  0.035  0.369  0.311-  61 2.41  12 2.42  46 2.42  68 2.62  71 2.63  33 2.63  66 2.63  40 2.63
                             3 2.64  13 2.65  15 2.65  47 2.67
  10  0.037  0.368  0.051-  38 2.41  32 2.41  31 2.41   6 2.64  48 2.64  34 2.64  18 2.64  42 2.64
                            16 2.64
  11  0.870  0.202  0.136-  48 2.41  58 2.41  34 2.41  49 2.50  61 2.50  63 2.51  35 2.64   7 2.64
                            22 2.64  38 2.64  31 2.64  62 2.64
  12  0.952  0.535  0.226-   9 2.42   3 2.42  40 2.42  31 2.50  21 2.50  32 2.50  61 2.64  46 2.64
                            20 2.64  39 2.64  51 2.65  60 2.65
  13  0.285  0.118  0.311-  26 2.41  53 2.42  46 2.42  69 2.62  71 2.63  33 2.63  74 2.63  57 2.63
                            29 2.64   9 2.65  15 2.65  23 2.66
  14  0.536  0.619  0.312-  50 2.42  51 2.42  36 2.43  47 2.59  23 2.60  27 2.62  41 2.62  40 2.63
                            57 2.63  80 2.64  75 2.71  76 2.72
  15  0.286  0.369  0.311-  60 2.42  64 2.42  46 2.42  79 2.61  74 2.63  66 2.63  29 2.63   3 2.64
                            13 2.65   9 2.65  41 2.66  27 2.66
  16  0.287  0.118  0.051-   8 2.41  37 2.41  38 2.41  18 2.64  30 2.64  59 2.64  34 2.64  10 2.64
                            24 2.64
  17  0.536  0.618  0.051-  22 2.41  25 2.41  44 2.41  43 2.64  28 2.64  24 2.64  59 2.64  48 2.64
                            42 2.64
  18  0.287  0.368  0.051-  37 2.41  45 2.41  32 2.41  16 2.64   6 2.64  43 2.64  10 2.64  28 2.64
                            30 2.64
  19  0.620  0.952  0.136-  30 2.41  59 2.41   4 2.41  55 2.50  20 2.50  53 2.51  62 2.64  21 2.64
                            37 2.64   7 2.64  25 2.64   8 2.64
  20  0.702  0.785  0.226-   1 2.42  40 2.42  57 2.42  19 2.50  25 2.50  21 2.51  53 2.64  12 2.64
                            55 2.64  39 2.64  51 2.64  50 2.64
  21  0.870  0.702  0.136-   4 2.41  42 2.41   6 2.41  39 2.50  12 2.50  20 2.51  31 2.64  19 2.64
                            62 2.64  25 2.64  32 2.64  54 2.64
  22  0.620  0.452  0.136-  17 2.41  28 2.41  48 2.41  51 2.50  63 2.50  36 2.51  31 2.64  25 2.64
                            45 2.64  11 2.64  44 2.64   7 2.64
  23  0.289  0.865  0.313-  50 2.42  52 2.43  26 2.45  41 2.59  14 2.60  57 2.62  67 2.63  69 2.63
                            75 2.64   2 2.66  13 2.66  33 2.68
  24  0.286  0.868  0.051-  44 2.41   8 2.41  35 2.41  34 2.64   5 2.64  17 2.64  43 2.64  59 2.64
                            16 2.64
  25  0.620  0.702  0.136-  59 2.41  17 2.41  42 2.41  20 2.50  51 2.50  50 2.51  22 2.64  31 2.64
                             8 2.64  44 2.64  19 2.64  21 2.64
  26  0.203  0.034  0.226-  13 2.41  33 2.41  23 2.45  35 2.50   8 2.51  38 2.51  52 2.62  50 2.63
                            49 2.63  53 2.64  46 2.66  61 2.67
  27  0.536  0.370  0.312-  36 2.41  63 2.42  64 2.43  47 2.59  14 2.62  78 2.63  41 2.63  79 2.64
                            56 2.65  15 2.66  29 2.66  76 2.71
  28  0.537  0.368  0.051-   7 2.41  22 2.41  45 2.41  30 2.64  58 2.64  17 2.64  18 2.64  48 2.64
                            43 2.64
  29  0.535  0.119  0.311-  64 2.41  53 2.42  55 2.42  78 2.62  72 2.63  74 2.63  15 2.63  56 2.64
                            13 2.64   1 2.64  57 2.65  27 2.66
  30  0.537  0.118  0.051-  19 2.41   7 2.41  37 2.41  28 2.64  16 2.64  59 2.64  58 2.64  18 2.64
                             4 2.64
  31  0.870  0.452  0.136-  42 2.41  48 2.41  10 2.41  12 2.50  61 2.50  51 2.51  22 2.64  21 2.64
                            25 2.64  11 2.64  32 2.64  38 2.64
  32  0.120  0.452  0.136-   6 2.41  10 2.41  18 2.41  46 2.50  12 2.50  60 2.51  38 2.64  54 2.64
                            21 2.64  37 2.64  45 2.64  31 2.64
  33  0.036  0.119  0.311-  61 2.41  26 2.41  49 2.42  67 2.62  70 2.63  71 2.63   9 2.63  13 2.63
                            56 2.65   2 2.65  23 2.68  47 2.68
  34  0.037  0.118  0.051-  35 2.41  38 2.41  11 2.41  24 2.64  10 2.64  48 2.64  16 2.64  58 2.64
                             5 2.64
  35  0.120  0.952  0.136-  34 2.41   5 2.41  24 2.41  26 2.50  49 2.50  52 2.50  11 2.64  38 2.64
                            54 2.64  44 2.64   8 2.64  62 2.64
  36  0.453  0.535  0.226-  27 2.41  41 2.42  14 2.43  44 2.50  45 2.50  22 2.51  50 2.63  51 2.63
                            64 2.63  60 2.63  63 2.64  52 2.64
  37  0.370  0.202  0.136-  18 2.41  16 2.41  30 2.41  53 2.50  46 2.50  64 2.51   7 2.64  19 2.64
                             8 2.64  45 2.64  32 2.64  38 2.64
  38  0.120  0.202  0.136-  10 2.41  34 2.41  16 2.41  46 2.50  26 2.51  61 2.52   8 2.64  35 2.64
                            32 2.64  11 2.64  37 2.64  31 2.64
  39  0.953  0.785  0.226-   2 2.41   1 2.41   3 2.42  21 2.50  62 2.50  54 2.50  12 2.64  60 2.64
                            20 2.64  52 2.64  55 2.64  49 2.65
  40  0.785  0.618  0.312-  51 2.41  20 2.42  12 2.42  80 2.62  47 2.62  68 2.63  14 2.63  73 2.63
                             9 2.63  57 2.65   3 2.65   1 2.66
  41  0.287  0.620  0.312-  36 2.42  52 2.42  60 2.43  23 2.59  14 2.62  27 2.63  79 2.63  77 2.63
                             2 2.65  15 2.66   3 2.66  75 2.69
  42  0.787  0.618  0.051-  31 2.41  21 2.41  25 2.41  48 2.64  10 2.64   4 2.64   6 2.64  59 2.64
                            17 2.64
  43  0.287  0.618  0.051-  45 2.41  44 2.41  54 2.41   6 2.64  18 2.64  17 2.64   5 2.64  24 2.64
                            28 2.64
  44  0.370  0.702  0.136-  24 2.41  43 2.41  17 2.41  50 2.50  36 2.50  52 2.51  54 2.64  25 2.64
                            45 2.64   8 2.64  35 2.64  22 2.64
  45  0.370  0.452  0.136-  43 2.41  18 2.41  28 2.41  64 2.50  60 2.50  36 2.50  22 2.64  44 2.64
                            37 2.64   7 2.64  54 2.64  32 2.64
  46  0.202  0.285  0.226-  15 2.42  13 2.42   9 2.42  32 2.50  38 2.50  37 2.50  12 2.64  53 2.64
                            60 2.65  64 2.65  26 2.66  61 2.66
  47  0.780  0.372  0.313-  51 2.42  63 2.43  61 2.46  27 2.59  14 2.59  70 2.62  40 2.62  68 2.63
                            56 2.65  76 2.66   9 2.67  33 2.68
  48  0.787  0.368  0.051-  11 2.41  31 2.41  22 2.41  10 2.64  42 2.64  34 2.64  58 2.64  28 2.64
                            17 2.64
  49  0.953  0.036  0.226-   2 2.42  33 2.42  56 2.42  11 2.50  35 2.50  62 2.50  26 2.63  61 2.63
                            63 2.64  52 2.64  39 2.65  55 2.65
  50  0.452  0.784  0.226-  57 2.41  23 2.42  14 2.42  44 2.50   8 2.51  25 2.51  36 2.63  51 2.63
                            52 2.63  26 2.63  20 2.64  53 2.65
  51  0.701  0.535  0.226-  40 2.41  47 2.42  14 2.42  22 2.50  25 2.50  31 2.51  36 2.63  61 2.63
                            50 2.63  63 2.63  20 2.64  12 2.65
  52  0.203  0.785  0.226-  41 2.42   2 2.42  23 2.43  35 2.50  44 2.51  54 2.51  26 2.62  50 2.63
                            60 2.64  36 2.64  49 2.64  39 2.64
  53  0.452  0.035  0.226-  29 2.42  57 2.42  13 2.42   8 2.50  37 2.50  19 2.51  26 2.64  20 2.64
                            55 2.64  46 2.64  50 2.65  64 2.65
  54  0.120  0.702  0.136-   5 2.41   6 2.41  43 2.41  60 2.50  39 2.50  52 2.51  44 2.64  35 2.64
                            32 2.64  62 2.64  21 2.64  45 2.64
  55  0.702  0.036  0.226-   1 2.41  56 2.41  29 2.42   7 2.50  19 2.50  62 2.50  53 2.64  64 2.64
                            20 2.64  39 2.64  63 2.64  49 2.65
  56  0.785  0.118  0.311-  55 2.41  63 2.42  49 2.42  78 2.62   1 2.63  70 2.63  65 2.63   2 2.64
                            29 2.64  27 2.65  33 2.65  47 2.65
  57  0.535  0.869  0.312-  50 2.41  53 2.42  20 2.42  80 2.61  23 2.62  13 2.63  72 2.63  14 2.63
                            69 2.64  40 2.65  29 2.65   1 2.66
  58  0.787  0.118  0.051-  62 2.41  11 2.41   7 2.41   5 2.64  28 2.64  48 2.64  30 2.64  34 2.64
                             4 2.64
  59  0.537  0.868  0.051-  25 2.41  19 2.41   8 2.41  16 2.64  30 2.64  42 2.64   4 2.64  17 2.64
                            24 2.64
  60  0.203  0.536  0.226-  15 2.42   3 2.42  41 2.43  54 2.50  45 2.50  32 2.51  36 2.63  64 2.63
                            52 2.64  39 2.64  46 2.65  12 2.65
  61  0.950  0.286  0.226-  33 2.41   9 2.41  47 2.46  11 2.50  31 2.50  38 2.52  63 2.62  51 2.63
                            49 2.63  12 2.64  46 2.66  26 2.67
  62  0.870  0.952  0.136-  58 2.41   4 2.41   5 2.41  39 2.50  49 2.50  55 2.50   7 2.64  19 2.64
                            21 2.64  54 2.64  11 2.64  35 2.64
  63  0.702  0.286  0.226-  56 2.42  27 2.42  47 2.43  22 2.50   7 2.51  11 2.51  61 2.62  51 2.63
                            64 2.64  36 2.64  49 2.64  55 2.64
  64  0.453  0.286  0.226-  29 2.41  15 2.42  27 2.43  45 2.50   7 2.51  37 2.51  36 2.63  60 2.63
                            63 2.64  55 2.64  46 2.65  53 2.65
  65  0.869  0.953  0.409-  78 2.63  77 2.63  56 2.63   1 2.63  70 2.63  67 2.63  72 2.63  73 2.63
                             2 2.63
  66  0.119  0.452  0.409-  79 2.61  68 2.62  15 2.63   3 2.63   9 2.63  71 2.63  74 2.63  73 2.64
                            77 2.65
  67  0.117  0.954  0.409-  70 2.62  75 2.62  33 2.62  23 2.63   2 2.63  65 2.63  71 2.64  77 2.65
                            69 2.65
  68  0.871  0.452  0.409-  66 2.62   9 2.62  71 2.62  47 2.63  40 2.63  73 2.64  76 2.65  70 2.65
                            80 2.66
  69  0.368  0.955  0.409-  74 2.62  13 2.62  71 2.63  23 2.63  57 2.64  72 2.64  75 2.64  67 2.65
                            80 2.65
  70  0.870  0.201  0.409-  67 2.62  47 2.62  33 2.63  76 2.63  56 2.63  65 2.63  71 2.64  78 2.64
                            68 2.65
  71  0.119  0.203  0.409-  68 2.62  69 2.63   9 2.63  33 2.63  13 2.63  66 2.63  74 2.63  67 2.64
                            70 2.64
  72  0.619  0.953  0.409-  80 2.61  78 2.62  29 2.63   1 2.63  57 2.63  65 2.63  69 2.64  74 2.64
                            73 2.64
  73  0.869  0.703  0.409-  80 2.61  77 2.62   3 2.63   1 2.63  65 2.63  40 2.63  68 2.64  66 2.64
                            72 2.64
  74  0.368  0.202  0.409-  79 2.61  69 2.62  15 2.63  13 2.63  29 2.63  66 2.63  71 2.63  72 2.64
                            78 2.65
  75  0.366  0.706  0.413-  81 2.00  82 2.01  67 2.62  77 2.64  69 2.64  23 2.64  80 2.69  79 2.69
                            41 2.69  76 2.70  14 2.71
  76  0.621  0.450  0.414-  82 1.95  81 1.96  70 2.63  78 2.65  68 2.65  47 2.66  80 2.68  79 2.69
                            75 2.70  27 2.71  14 2.72
  77  0.117  0.703  0.408-   2 2.62   3 2.62  73 2.62  65 2.63  41 2.63  75 2.64  66 2.65  67 2.65
                            79 2.65
  78  0.619  0.201  0.408-  29 2.62  56 2.62  72 2.62  65 2.63  27 2.63  70 2.64  74 2.65  76 2.65
                            79 2.65
  79  0.367  0.451  0.409-  15 2.61  66 2.61  74 2.61  41 2.63  27 2.64  77 2.65  78 2.65  76 2.69
                            75 2.69
  80  0.621  0.705  0.409-  72 2.61  57 2.61  73 2.61  40 2.62  14 2.64  69 2.65  68 2.66  76 2.68
                            75 2.69
  81  0.470  0.551  0.476-  76 1.96  75 2.00
  82  0.524  0.602  0.476-  76 1.95  75 2.01
 
  LATTYP: Found a hexagonal cell.
 ALAT       =    10.5600004196
 C/A-ratio  =     2.0833332505
  
  Lattice vectors:
  
 A1 = (   5.2800002098,  -9.1452286274,   0.0000000000)
 A2 = ( -10.5600004196,   0.0000000000,   0.0000000000)
 A3 = (   0.0000000000,   0.0000000000, -22.0000000000)


Analysis of symmetry for initial positions (statically):
=====================================================================
 Subroutine PRICEL returns:
 Original cell was already a primitive cell.
 

 Routine SETGRP: Setting up the symmetry group for a 
 hexagonal supercell.


 Subroutine GETGRP returns: Found  1 space group operations
 (whereof  1 operations were pure point group operations)
 out of a pool of 24 trial point group operations.


The static configuration has the point symmetry C_1 .


Analysis of symmetry for dynamics (positions and initial velocities):
=====================================================================
 Subroutine PRICEL returns:
 Original cell was already a primitive cell.
 

 Routine SETGRP: Setting up the symmetry group for a 
 hexagonal supercell.


 Subroutine GETGRP returns: Found  1 space group operations
 (whereof  1 operations were pure point group operations)
 out of a pool of 24 trial point group operations.


The dynamic configuration has the point symmetry C_1 .


Analysis of constrained symmetry for selective dynamics:
=====================================================================
 Subroutine PRICEL returns:
 Original cell was already a primitive cell.
 

 Routine SETGRP: Setting up the symmetry group for a 
 hexagonal supercell.


 Subroutine GETGRP returns: Found  1 space group operations
 (whereof  1 operations were pure point group operations)
 out of a pool of 24 trial point group operations.


The constrained configuration has the point symmetry C_1 .


Analysis of structural, dynamic, and magnetic symmetry:
=====================================================================
 Subroutine PRICEL returns:
 Original cell was already a primitive cell.
 

 Routine SETGRP: Setting up the symmetry group for a 
 hexagonal supercell.


 Subroutine GETGRP returns: Found  1 space group operations
 (whereof  1 operations were pure point group operations)
 out of a pool of 24 trial point group operations.


The magnetic configuration has the point symmetry C_1 .


 Subroutine INISYM returns: Found  1 space group operations
 (whereof  1 operations are pure point group operations),
 and found     1 'primitive' translations

 
 
 KPOINTS: mesh auto                               

Automatic generation of k-mesh.
Space group operators:
 irot       det(A)        alpha          n_x          n_y          n_z        tau_x        tau_y        tau_z
    1     1.000000     0.000001     1.000000     0.000000     0.000000     0.000000     0.000000     0.000000
 
 Subroutine IBZKPT returns following result:
 ===========================================
 
 Found      4 irreducible k-points:
 
 Following reciprocal coordinates:
            Coordinates               Weight
  0.000000  0.000000  0.000000      1.000000
  0.500000  0.000000  0.000000      1.000000
  0.000000  0.500000  0.000000      1.000000
  0.500000  0.500000  0.000000      1.000000
 
 Following cartesian coordinates:
            Coordinates               Weight
  0.000000  0.000000  0.000000      1.000000
  0.047348 -0.027337  0.000000      1.000000
  0.000000  0.054673  0.000000      1.000000
  0.047348  0.027337  0.000000      1.000000
 
 TETIRR: Found     12 inequivalent tetrahedra from       24
 
 Subroutine IBZKPT_HF returns following result:
 ==============================================
 
 Found      4 k-points in 1st BZ
 the following      4 k-points will be used (e.g. in the exchange kernel)
 Following reciprocal coordinates:   # in IRBZ
  0.000000  0.000000  0.000000    0.25000000   1 t-inv F
  0.500000  0.000000  0.000000    0.25000000   2 t-inv F
  0.000000  0.500000  0.000000    0.25000000   3 t-inv F
  0.500000  0.500000  0.000000    0.25000000   4 t-inv F


--------------------------------------------------------------------------------------------------------




 Dimension of arrays:
   k-points           NKPTS =      4   k-points in BZ     NKDIM =      4   number of bands    NBANDS=    520
   number of dos      NEDOS =    301   number of ions     NIONS =     82
   non local maximal  LDIM  =      6   non local SUM 2l+1 LMDIM =     18
   total plane-waves  NPLWV = ******
   max r-space proj   IRMAX =   7802   max aug-charges    IRDMAX=  33988
   dimension x,y,z NGX =    84 NGY =   84 NGZ =  168
   dimension x,y,z NGXF=   168 NGYF=  168 NGZF=  336
   support grid    NGXF=   168 NGYF=  168 NGZF=  336
   ions per type =              64  16   2
   NGX,Y,Z   is equivalent  to a cutoff of  13.22, 13.22, 12.70 a.u.
   NGXF,Y,Z  is equivalent  to a cutoff of  26.45, 26.45, 25.39 a.u.

 SYSTEM =  Pt111                                   
 POSCAR =  Co   Pt   H                             

 Startparameter for this run:
   NWRITE =      2    write-flag & timer
   PREC   = accura    normal or accurate (medium, high low for compatibility)
   ISTART =      0    job   : 0-new  1-cont  2-samecut
   ICHARG =      2    charge: 1-file 2-atom 10-const
   ISPIN  =      2    spin polarized calculation?
   LNONCOLLINEAR =      F non collinear calculations
   LSORBIT =      F    spin-orbit coupling
   INIWAV =      1    electr: 0-lowe 1-rand  2-diag
   LASPH  =      F    aspherical Exc in radial PAW
   METAGGA=      F    non-selfconsistent MetaGGA calc.

 Electronic Relaxation 1
   ENCUT  =  550.0 eV  40.42 Ry    6.36 a.u.  20.19 20.19 42.07*2*pi/ulx,y,z
   ENINI  =  550.0     initial cutoff
   ENAUG  =  477.8 eV  augmentation charge cutoff
   NELM   =    200;   NELMIN=  2; NELMDL= -5     # of ELM steps 
   EDIFF  = 0.1E-04   stopping-criterion for ELM
   LREAL  =      T    real-space projection
   NLSPLINE    = F    spline interpolate recip. space projectors
   LCOMPAT=      F    compatible to vasp.4.4
   GGA_COMPAT  = T    GGA compatible to vasp.4.4-vasp.4.6
   LMAXPAW     = -100 max onsite density
   LMAXMIX     =    2 max onsite mixed and CHGCAR
   VOSKOWN=      0    Vosko Wilk Nusair interpolation
   ROPT   =   -0.00025  -0.00025  -0.00025
 Ionic relaxation
   EDIFFG = -.5E-01   stopping-criterion for IOM
   NSW    =   1021    number of steps for IOM
   NBLOCK =      1;   KBLOCK =   1021    inner block; outer block 
   IBRION =      5    ionic relax: 0-MD 1-quasi-New 2-CG
   NFREE  =      2    steps in history (QN), initial steepest desc. (CG)
   ISIF   =      2    stress and relaxation
   IWAVPR =     11    prediction:  0-non 1-charg 2-wave 3-comb
   ISYM   =      2    0-nonsym 1-usesym 2-fastsym
   LCORR  =      T    Harris-Foulkes like correction to forces

   POTIM  = 0.5000    time-step for ionic-motion
   TEIN   =    0.0    initial temperature
   TEBEG  =    0.0;   TEEND  =   0.0 temperature during run
   SMASS  =  -3.00    Nose mass-parameter (am)
   estimated Nose-frequenzy (Omega)   =  0.10E-29 period in steps =****** mass=  -0.255E-26a.u.
   SCALEE = 1.0000    scale energy and forces
   NPACO  =    256;   APACO  = 16.0  distance and # of slots for P.C.
   PSTRESS=    0.0 pullay stress

  Mass of Ions in am
   POMASS =  58.93195.08  1.00
  Ionic Valenz
   ZVAL   =   9.00 10.00  1.00
  Atomic Wigner-Seitz radii
   RWIGS  =  -1.00 -1.00 -1.00
  virtual crystal weights 
   VCA    =   1.00  1.00  1.00
   NELECT =     738.0000    total number of electrons
   NUPDOWN=      -1.0000    fix difference up-down

 DOS related values:
   EMIN   =  10.00;   EMAX   =-10.00  energy-range for DOS
   EFERMI =   0.00
   ISMEAR =    -5;   SIGMA  =   0.10  broadening in eV -4-tet -1-fermi 0-gaus

 Electronic relaxation 2 (details)
   IALGO  =     68    algorithm
   LDIAG  =      T    sub-space diagonalisation (order eigenvalues)
   LSUBROT=      F    optimize rotation matrix (better conditioning)
   TURBO    =      0    0=normal 1=particle mesh
   IRESTART =      0    0=no restart 2=restart with 2 vectors
   NREBOOT  =      0    no. of reboots
   NMIN     =      0    reboot dimension
   EREF     =   0.00    reference energy to select bands
   IMIX   =      4    mixing-type and parameters
     AMIX     =   0.40;   BMIX     =  1.00
     AMIX_MAG =   1.60;   BMIX_MAG =  1.00
     AMIN     =   0.10
     WC   =   100.;   INIMIX=   1;  MIXPRE=   1;  MAXMIX= -45

 Intra band minimization:
   WEIMIN = 0.0010     energy-eigenvalue tresh-hold
   EBREAK =  0.48E-08  absolut break condition
   DEPER  =   0.30     relativ break condition  

   TIME   =   0.40     timestep for ELM

  volume/ion in A,a.u.               =      25.91       174.85
  Fermi-wavevector in a.u.,A,eV,Ry     =   1.150800  2.174697 18.018751  1.324341
  Thomas-Fermi vector in A             =   2.287462
 
 Write flags
   LWAVE        =      F    write WAVECAR
   LDOWNSAMPLE  =      F    k-point downsampling of WAVECAR
   LCHARG       =      F    write CHGCAR
   LVTOT        =      F    write LOCPOT, total local potential
   LVHAR        =      F    write LOCPOT, Hartree potential only
   LELF         =      F    write electronic localiz. function (ELF)
   LORBIT       =      0    0 simple, 1 ext, 2 COOP (PROOUT), +10 PAW based schemes


 Dipole corrections
   LMONO  =      F    monopole corrections only (constant potential shift)
   LDIPOL =      F    correct potential (dipole corrections)
   IDIPOL =      0    1-x, 2-y, 3-z, 4-all directions 
   EPSILON=  1.0000000 bulk dielectric constant

 Exchange correlation treatment:
   GGA     =    --    GGA type
   LEXCH   =     8    internal setting for exchange type
   VOSKOWN=      0    Vosko Wilk Nusair interpolation
   LHFCALC =     F    Hartree Fock is set to
   LHFONE  =     F    Hartree Fock one center treatment
   AEXX    =    0.0000 exact exchange contribution

 Linear response parameters
   LEPSILON=     F    determine dielectric tensor
   LRPA    =     F    only Hartree local field effects (RPA)
   LNABLA  =     F    use nabla operator in PAW spheres
   LVEL    =     F    velocity operator in full k-point grid
   LINTERFAST=   F  fast interpolation
   KINTER  =     0    interpolate to denser k-point grid
   CSHIFT  =0.1000    complex shift for real part using Kramers Kronig
   OMEGAMAX=  -1.0    maximum frequency
   DEG_THRESHOLD= 0.2000000E-02 threshold for treating states as degnerate
   RTIME   =   -0.100 relaxation time in fs
  (WPLASMAI=    0.000 imaginary part of plasma frequency in eV, 0.658/RTIME)
   DFIELD  = 0.0000000 0.0000000 0.0000000 field for delta impulse in time
 
 Orbital magnetization related:
   ORBITALMAG=     F  switch on orbital magnetization
   LCHIMAG   =     F  perturbation theory with respect to B field
   DQ        =  0.001000  dq finite difference perturbation B field
   LLRAUG    =     F  two centre corrections for induced B field



--------------------------------------------------------------------------------------------------------


 finite differences
   using selective dynamics as specified on POSCAR
   WARNING: If single coordinates had been selected the selection of coordinates
            is made according to the corresponding   d i r e c t   coordinates!
            Don't support selection of single cartesian coordinates -- sorry ...
  !
 charge density and potential will be updated during run
 spin polarized calculation
 RMM-DIIS sequential band-by-band and
  variant of blocked Davidson during initial phase
 perform sub-space diagonalisation
    before iterative eigenvector-optimisation
 modified Broyden-mixing scheme, WC =      100.0
 initial mixing is a Kerker type mixing with AMIX =  0.4000 and BMIX =      1.0000
 Hartree-type preconditioning will be used
 using additional bands          151
 real space projection scheme for non local part
 use partial core corrections
 calculate Harris-corrections to forces 
   (improved forces if not selfconsistent)
 use gradient corrections 
 use of overlap-Matrix (Vanderbilt PP)
 Fermi weights with tetrahedron method with Bloechl corrections


--------------------------------------------------------------------------------------------------------


  energy-cutoff  :      550.00
  volume of cell :     2124.62
      direct lattice vectors                 reciprocal lattice vectors
    10.560000420  0.000000000  0.000000000     0.094696966 -0.054673319  0.000000000
     5.280000210  9.145228627  0.000000000     0.000000000  0.109346638  0.000000000
     0.000000000  0.000000000 22.000000000     0.000000000  0.000000000  0.045454545

  length of vectors
    10.560000420 10.560000420 22.000000000     0.109346638  0.109346638  0.045454545


 
 k-points in units of 2pi/SCALE and weight: mesh auto                               
   0.00000000  0.00000000  0.00000000       0.250
   0.04734848 -0.02733666  0.00000000       0.250
   0.00000000  0.05467332  0.00000000       0.250
   0.04734848  0.02733666  0.00000000       0.250
 
 k-points in reciprocal lattice and weights: mesh auto                               
   0.00000000  0.00000000  0.00000000       0.250
   0.50000000  0.00000000  0.00000000       0.250
   0.00000000  0.50000000  0.00000000       0.250
   0.50000000  0.50000000  0.00000000       0.250
 
 position of ions in fractional coordinates (direct lattice) 
   0.78592673  0.86921547  0.31116347
   0.03499906  0.86887874  0.31127237
   0.03580478  0.61865189  0.31131529
   0.78672737  0.86796427  0.05124594
   0.03655829  0.86811559  0.05129685
   0.03663850  0.61800272  0.05132683
   0.61974581  0.20156539  0.13598422
   0.36965812  0.95165874  0.13596282
   0.03483452  0.36871721  0.31139483
   0.03659631  0.36812104  0.05134006
   0.86964458  0.20165938  0.13596857
   0.95230364  0.53523436  0.22609534
   0.28537636  0.11830431  0.31142132
   0.53551715  0.61876921  0.31221702
   0.28559228  0.36877453  0.31141154
   0.28668923  0.11816423  0.05129869
   0.53643122  0.61808880  0.05123215
   0.28654946  0.36808879  0.05135412
   0.61968552  0.95160862  0.13594574
   0.70225908  0.78527128  0.22621626
   0.86960684  0.70164345  0.13597445
   0.61967870  0.45169725  0.13595188
   0.28853221  0.86458009  0.31280727
   0.28644846  0.86814797  0.05128443
   0.61958777  0.70166494  0.13591218
   0.20314729  0.03358143  0.22644615
   0.53638173  0.37041421  0.31194149
   0.53667278  0.36796893  0.05129270
   0.53515724  0.11931015  0.31132805
   0.53667273  0.11808196  0.05128312
   0.86953476  0.45175991  0.13600323
   0.11968810  0.45163155  0.13605895
   0.03586322  0.11931812  0.31134213
   0.03670730  0.11813552  0.05129760
   0.11958412  0.95170982  0.13599964
   0.45253813  0.53547090  0.22631128
   0.36976480  0.20160926  0.13602383
   0.11971248  0.20160801  0.13602195
   0.95254665  0.78516491  0.22603756
   0.78521912  0.61812533  0.31151109
   0.28711837  0.61958982  0.31188754
   0.78661220  0.61805706  0.05124911
   0.28651464  0.61802871  0.05130543
   0.36959900  0.70170145  0.13596552
   0.36974844  0.45164511  0.13601924
   0.20243660  0.28539106  0.22603290
   0.78038554  0.37221788  0.31302128
   0.78671851  0.36806138  0.05126972
   0.95264498  0.03565233  0.22608049
   0.45241338  0.78445811  0.22637322
   0.70149310  0.53542048  0.22637469
   0.20282553  0.78542090  0.22629630
   0.45227156  0.03522848  0.22609100
   0.11964839  0.70167811  0.13601062
   0.70210796  0.03554680  0.22606781
   0.78545783  0.11845650  0.31128325
   0.53464769  0.86870351  0.31152735
   0.78671389  0.11805280  0.05126078
   0.53658682  0.86813335  0.05124811
   0.20316937  0.53556799  0.22630057
   0.95037603  0.28627152  0.22648087
   0.86955967  0.95164736  0.13596443
   0.70247815  0.28581068  0.22631644
   0.45260900  0.28617870  0.22630163
   0.86853053  0.95250696  0.40900551
   0.11866840  0.45198777  0.40872497
   0.11738494  0.95365740  0.40867755
   0.87087225  0.45184443  0.40920345
   0.36788220  0.95476029  0.40925173
   0.86959469  0.20139341  0.40865148
   0.11855658  0.20262211  0.40875207
   0.61881942  0.95297230  0.40865435
   0.86910344  0.70274010  0.40865683
   0.36814275  0.20249991  0.40878331
   0.36571406  0.70568335  0.41319269
   0.62109494  0.45044205  0.41417801
   0.11709361  0.70326865  0.40844302
   0.61938667  0.20100122  0.40842350
   0.36672477  0.45082731  0.40879573
   0.62054778  0.70464072  0.40881814
   0.46977399  0.55137922  0.47623615
   0.52362898  0.60213888  0.47556266
 
 position of ions in cartesian coordinates  (Angst):
  12.88884446  7.94917424  6.84559629
   4.95727004  7.94609472  6.84799222
   3.64458064  5.65771300  6.84893647
  12.89069282  7.93773165  1.12741065
   4.96970603  7.93911553  1.12853070
   3.64995711  5.65177617  1.12919030
   7.60878135  1.84336156  2.99165289
   8.92834820  8.70313676  2.99118200
   2.31467947  3.37200318  6.85068620
   2.33013621  3.36655108  1.12948134
  10.24820871  1.84422114  2.99130850
  12.88236435  4.89484055  4.97409756
   3.63822131  1.08191999  6.85126905
   8.92216285  5.65878585  6.86877448
   4.96298424  3.37252740  6.85105379
   3.65134558  1.08063889  1.12857113
   8.92822296  5.65256340  1.12710731
   4.96947128  3.36625614  1.12979070
  11.56837308  8.70267838  2.99080638
  11.56208867  7.18148541  4.97675769
  12.88772622  6.41668978  2.99143800
   8.92876895  4.13087463  2.99094130
   7.61188337  7.90678263  6.88175993
   7.60871732  7.93941164  1.12825737
  10.24763817  6.41688629  2.99006786
   2.32254539  0.30710985  4.98181527
   7.61997841  3.38752264  6.86271282
   7.61014081  3.36515998  1.12843932
   6.28121834  1.09111864  6.84921710
   6.29073703  1.07988653  1.12822855
  11.56757982  4.13144765  2.99207102
   3.64852106  4.13027377  2.99329699
   1.00871533  1.09119146  6.84952677
   1.01138472  1.08037638  1.12854727
   6.28783640  8.70360389  2.99199201
   7.60608929  4.89700377  4.97884824
   4.96921340  1.84376278  2.99252428
   2.32865418  1.84375135  2.99248299
  14.20456387  7.18051261  4.97282624
  11.55561609  5.65289751  6.85324399
   6.30340450  5.66629058  6.86152590
  11.56996659  5.65227313  1.12748032
   6.28878646  5.65201383  1.12871950
   7.60794938  6.41722021  2.99124143
   6.28923001  4.13039782  2.99242328
   3.64459544  2.60996649  4.97272380
  10.20618210  3.40401760  6.88646816
  10.25111193  3.36600545  1.12793384
  10.24817564  0.32604867  4.97377087
   8.91942443  7.17404877  4.98021091
  10.23478768  4.89654268  4.98024310
   6.28886015  7.18285366  4.97851869
   4.96199420  0.32217246  4.97400208
   4.96834764  6.41700677  2.99223361
   7.60194744  0.32508364  4.97349187
   8.91988534  1.08331177  6.84823144
  10.23263450  7.94449218  6.85360169
   8.93101782  1.07961985  1.12773711
  10.25010137  7.93927801  1.12745837
   4.97326777  4.89789173  4.97861245
  11.54748494  2.61801850  4.98257911
  14.20724879  8.70303269  2.99121738
   8.92725000  2.61380404  4.97896161
   6.29057487  2.61716962  4.97863594
  14.20091973  8.71089394  8.99812124
   3.63963384  4.13353151  8.99194926
   6.27489627  8.72141491  8.99090602
  11.58214998  4.13222058  9.00247593
   8.92597074  8.73150111  9.00353802
  10.24627755  1.84178879  8.99033250
   2.32180229  1.85302550  8.99254546
  11.56642729  8.71514960  8.99039567
  12.88820060  6.42671890  8.99045037
   4.95678713  1.85190801  8.99323277
   7.58794893  6.45363560  9.09023915
   8.93709694  4.11939555  9.11191621
   4.94976719  6.43155256  8.98574643
   7.60201003  1.83820211  8.98531696
   6.25298202  4.12291885  8.99350603
  10.27348796  6.44410046  8.99399914
   7.87209587  5.04248901 10.47719531
   8.70881568  5.50669768 10.46237851
 


--------------------------------------------------------------------------------------------------------


 k-point  1 :   0.0000 0.0000 0.0000  plane waves:   62167
 k-point  2 :   0.5000 0.0000 0.0000  plane waves:   62242
 k-point  3 :   0.0000 0.5000 0.0000  plane waves:   62242
 k-point  4 :   0.5000 0.5000 0.0000  plane waves:   62242

 maximum and minimum number of plane-waves per node :     62242    62167

 maximum number of plane-waves:     62242
 maximum index in each direction: 
   IXMAX=   20   IYMAX=   20   IZMAX=   42
   IXMIN=  -20   IYMIN=  -20   IZMIN=  -42


 serial   3D FFT for wavefunctions
 parallel 3D FFT for charge:
    minimum data exchange during FFTs selected (reduces bandwidth)


 total amount of memory used by VASP MPI-rank0   356237. kBytes
=======================================================================

   base      :      30000. kBytes
   nonlr-proj:      83580. kBytes
   fftplans  :      13995. kBytes
   grid      :     120016. kBytes
   one-center:       2550. kBytes
   wavefun   :     106096. kBytes
 
     INWAV:  cpu time    0.0000: real time    0.0000
 Broyden mixing: mesh for mixing (old mesh)
   NGX = 41   NGY = 41   NGZ = 85
  (NGX  =168   NGY  =168   NGZ  =336)
  gives a total of 142885 points

 initial charge density was supplied:
 charge density of overlapping atoms calculated
 number of electron     738.0000000 magnetization      82.0000000
 keeping initial charge density in first step


--------------------------------------------------------------------------------------------------------


 Maximum index for non-local projection operator         7539
 Maximum index for augmentation-charges         1517 (set IRDMAX)


--------------------------------------------------------------------------------------------------------


 First call to EWALD:  gamma=   0.138
 Maximum number of real-space cells 4x 4x 2
 Maximum number of reciprocal cells 2x 2x 4

    FEWALD:  cpu time    0.0036: real time    0.0036


--------------------------------------- Iteration      1(   1)  ---------------------------------------


    POTLOK:  cpu time    0.4641: real time    0.4797
    SETDIJ:  cpu time    0.0340: real time    0.0342
     EDDAV:  cpu time   46.1545: real time   46.2886
 BZINTS: Fermi energy: 14.772668;738.000000 electrons
         Band energy:6822.873262;  BLOECHL correction: -0.007133
       DOS:  cpu time    0.0163: real time    0.0164
    --------------------------------------------
      LOOP:  cpu time   46.6689: real time   46.8191

 eigenvalue-minimisations  :  8320
 total energy-change (2. order) : 0.6282885E+04  (-0.3264758E+05)
 number of electron     738.0000000 magnetization      82.0000000
 augmentation part      738.0000000 magnetization      82.0000000

 Free energy of the ion-electron system (eV)
  ---------------------------------------------------
  alpha Z        PSCENC =      1576.27060381
  Ewald energy   TEWEN  =    228078.64391868
  -Hartree energ DENC   =   -292119.62473554
  -exchange      EXHF   =         0.00000000
  -V(xc)+E(xc)   XCENC  =      1119.45966078
  PAW double counting   =     57277.87247862   -60218.75697726
  entropy T*S    EENTRO =         0.00000000
  eigenvalues    EBANDS =      6822.87326164
  atomic energy  EATOM  =     63746.14722204
  Solvation  Ediel_sol  =         0.00000000
  ---------------------------------------------------
  free energy    TOTEN  =      6282.88543277 eV

  energy without entropy =     6282.88543277  energy(sigma->0) =     6282.88543277


--------------------------------------------------------------------------------------------------------




--------------------------------------- Iteration      1(   2)  ---------------------------------------


     EDDAV:  cpu time   45.5960: real time   45.7237
 BZINTS: Fermi energy:  4.263078;738.000000 electrons
         Band energy: 713.654517;  BLOECHL correction: -0.008102
       DOS:  cpu time    0.0152: real time    0.0152
    --------------------------------------------
      LOOP:  cpu time   45.6112: real time   45.7389

 eigenvalue-minimisations  :  8320
 total energy-change (2. order) :-0.6109219E+04  (-0.5684415E+04)
 number of electron     738.0000000 magnetization      82.0000000
 augmentation part      738.0000000 magnetization      82.0000000

 Free energy of the ion-electron system (eV)
  ---------------------------------------------------
  alpha Z        PSCENC =      1576.27060381
  Ewald energy   TEWEN  =    228078.64391868
  -Hartree energ DENC   =   -292119.62473554
  -exchange      EXHF   =         0.00000000
  -V(xc)+E(xc)   XCENC  =      1119.45966078
  PAW double counting   =     57277.87247862   -60218.75697726
  entropy T*S    EENTRO =         0.00000000
  eigenvalues    EBANDS =       713.65451747
  atomic energy  EATOM  =     63746.14722204
  Solvation  Ediel_sol  =         0.00000000
  ---------------------------------------------------
  free energy    TOTEN  =       173.66668860 eV

  energy without entropy =      173.66668860  energy(sigma->0) =      173.66668860


--------------------------------------------------------------------------------------------------------




--------------------------------------- Iteration      1(   3)  ---------------------------------------


     EDDAV:  cpu time   50.1880: real time   50.3217
 BZINTS: Fermi energy:  2.851901;738.000000 electrons
         Band energy:  -4.302273;  BLOECHL correction: -0.121669
       DOS:  cpu time    0.0168: real time    0.0168
    --------------------------------------------
      LOOP:  cpu time   50.2047: real time   50.3385

 eigenvalue-minimisations  :  9280
 total energy-change (2. order) :-0.7179568E+03  (-0.5857164E+03)
 number of electron     738.0000000 magnetization      82.0000000
 augmentation part      738.0000000 magnetization      82.0000000

 Free energy of the ion-electron system (eV)
  ---------------------------------------------------
  alpha Z        PSCENC =      1576.27060381
  Ewald energy   TEWEN  =    228078.64391868
  -Hartree energ DENC   =   -292119.62473554
  -exchange      EXHF   =         0.00000000
  -V(xc)+E(xc)   XCENC  =      1119.45966078
  PAW double counting   =     57277.87247862   -60218.75697726
  entropy T*S    EENTRO =         0.00000000
  eigenvalues    EBANDS =        -4.30227307
  atomic energy  EATOM  =     63746.14722204
  Solvation  Ediel_sol  =         0.00000000
  ---------------------------------------------------
  free energy    TOTEN  =      -544.29010194 eV

  energy without entropy =     -544.29010194  energy(sigma->0) =     -544.29010194


--------------------------------------------------------------------------------------------------------




--------------------------------------- Iteration      1(   4)  ---------------------------------------


     EDDAV:  cpu time   51.2699: real time   51.4105
 BZINTS: Fermi energy:  2.771487;738.000000 electrons
         Band energy: -52.219251;  BLOECHL correction: -0.149207
       DOS:  cpu time    0.0165: real time    0.0166
    --------------------------------------------
      LOOP:  cpu time   51.2864: real time   51.4271

 eigenvalue-minimisations  :  9600
 total energy-change (2. order) :-0.4791698E+02  (-0.4550036E+02)
 number of electron     738.0000000 magnetization      82.0000000
 augmentation part      738.0000000 magnetization      82.0000000

 Free energy of the ion-electron system (eV)
  ---------------------------------------------------
  alpha Z        PSCENC =      1576.27060381
  Ewald energy   TEWEN  =    228078.64391868
  -Hartree energ DENC   =   -292119.62473554
  -exchange      EXHF   =         0.00000000
  -V(xc)+E(xc)   XCENC  =      1119.45966078
  PAW double counting   =     57277.87247862   -60218.75697726
  entropy T*S    EENTRO =         0.00000000
  eigenvalues    EBANDS =       -52.21925117
  atomic energy  EATOM  =     63746.14722204
  Solvation  Ediel_sol  =         0.00000000
  ---------------------------------------------------
  free energy    TOTEN  =      -592.20708004 eV

  energy without entropy =     -592.20708004  energy(sigma->0) =     -592.20708004


--------------------------------------------------------------------------------------------------------




--------------------------------------- Iteration      1(   5)  ---------------------------------------


     EDDAV:  cpu time   53.1478: real time   53.2898
 BZINTS: Fermi energy:  2.769938;738.000000 electrons
         Band energy: -53.134856;  BLOECHL correction: -0.148343
       DOS:  cpu time    0.0176: real time    0.0177
    CHARGE:  cpu time    2.7500: real time    2.7568
    MIXING:  cpu time    0.0114: real time    0.0124
    --------------------------------------------
      LOOP:  cpu time   55.9269: real time   56.0766

 eigenvalue-minimisations  : 10120
 total energy-change (2. order) :-0.9156046E+00  (-0.9154205E+00)
 number of electron     738.0000205 magnetization      81.5509135
 augmentation part      341.3622967 magnetization      61.4760847

 Broyden mixing:
  rms(total) = 0.89049E+01    rms(broyden)= 0.89049E+01
  rms(prec ) = 0.93749E+01
  weight for this iteration     100.00

 Free energy of the ion-electron system (eV)
  ---------------------------------------------------
  alpha Z        PSCENC =      1576.27060381
  Ewald energy   TEWEN  =    228078.64391868
  -Hartree energ DENC   =   -292119.62473554
  -exchange      EXHF   =         0.00000000
  -V(xc)+E(xc)   XCENC  =      1119.45966078
  PAW double counting   =     57277.87247862   -60218.75697726
  entropy T*S    EENTRO =         0.00000000
  eigenvalues    EBANDS =       -53.13485580
  atomic energy  EATOM  =     63746.14722204
  Solvation  Ediel_sol  =         0.00000000
  ---------------------------------------------------
  free energy    TOTEN  =      -593.12268467 eV

  energy without entropy =     -593.12268467  energy(sigma->0) =     -593.12268467


--------------------------------------------------------------------------------------------------------




--------------------------------------- Iteration      1(   6)  ---------------------------------------


    POTLOK:  cpu time    0.4603: real time    0.4614
    SETDIJ:  cpu time    0.0401: real time    0.0402
    EDDIAG:  cpu time    7.9975: real time    8.0166
  RMM-DIIS:  cpu time   31.5280: real time   31.6125
    ORTHCH:  cpu time    1.0167: real time    1.0191
 BZINTS: Fermi energy:  1.967595;738.000000 electrons
         Band energy:***********;  BLOECHL correction: -0.083783
       DOS:  cpu time    0.0185: real time    0.0185
    CHARGE:  cpu time    2.6310: real time    2.6373
    MIXING:  cpu time    0.0103: real time    0.0105
    --------------------------------------------
      LOOP:  cpu time   43.7025: real time   43.8161

 eigenvalue-minimisations  :  8337
 total energy-change (2. order) :-0.1222118E+03  (-0.8047735E+02)
 number of electron     738.0000228 magnetization      80.8376829
 augmentation part      386.5947779 magnetization      71.2236116

 Broyden mixing:
  rms(total) = 0.17229E+02    rms(broyden)= 0.17229E+02
  rms(prec ) = 0.20113E+02
  weight for this iteration     100.00

 eigenvalues of (default mixing * dielectric matrix)
  average eigenvalue GAMMA=   0.2371
  0.2371

 Free energy of the ion-electron system (eV)
  ---------------------------------------------------
  alpha Z        PSCENC =      1576.27060381
  Ewald energy   TEWEN  =    228078.64391868
  -Hartree energ DENC   =   -291395.31990504
  -exchange      EXHF   =         0.00000000
  -V(xc)+E(xc)   XCENC  =      1070.32052525
  PAW double counting   =     61972.16873844   -64618.96286309
  entropy T*S    EENTRO =         0.00000000
  eigenvalues    EBANDS =     -1144.60267512
  atomic energy  EATOM  =     63746.14722204
  Solvation  Ediel_sol  =         0.00000000
  ---------------------------------------------------
  free energy    TOTEN  =      -715.33443504 eV

  energy without entropy =     -715.33443504  energy(sigma->0) =     -715.33443504


--------------------------------------------------------------------------------------------------------




--------------------------------------- Iteration      1(   7)  ---------------------------------------


    POTLOK:  cpu time    0.4194: real time    0.4204
    SETDIJ:  cpu time    0.0332: real time    0.0333
    EDDIAG:  cpu time    7.8578: real time    7.8764
  RMM-DIIS:  cpu time   31.6836: real time   31.7586
    ORTHCH:  cpu time    1.0217: real time    1.0241
 BZINTS: Fermi energy:  0.994322;738.000000 electrons
         Band energy:***********;  BLOECHL correction: -0.057577
       DOS:  cpu time    0.0178: real time    0.0178
    CHARGE:  cpu time    2.6269: real time    2.6331
    MIXING:  cpu time    0.0093: real time    0.0093
    --------------------------------------------
      LOOP:  cpu time   43.6698: real time   43.7731

 eigenvalue-minimisations  :  8362
 total energy-change (2. order) : 0.6307104E+02  (-0.2718429E+02)
 number of electron     738.0000248 magnetization      79.2182324
 augmentation part      395.1423879 magnetization      69.5659064

 Broyden mixing:
  rms(total) = 0.14078E+02    rms(broyden)= 0.14078E+02
  rms(prec ) = 0.17604E+02
  weight for this iteration     100.00

 eigenvalues of (default mixing * dielectric matrix)
  average eigenvalue GAMMA=   0.3539
  0.5889  0.1188

 Free energy of the ion-electron system (eV)
  ---------------------------------------------------
  alpha Z        PSCENC =      1576.27060381
  Ewald energy   TEWEN  =    228078.64391868
  -Hartree energ DENC   =   -291008.11021542
  -exchange      EXHF   =         0.00000000
  -V(xc)+E(xc)   XCENC  =      1070.44871577
  PAW double counting   =     62901.10815630   -65588.57041995
  entropy T*S    EENTRO =         0.00000000
  eigenvalues    EBANDS =     -1428.20137270
  atomic energy  EATOM  =     63746.14722204
  Solvation  Ediel_sol  =         0.00000000
  ---------------------------------------------------
  free energy    TOTEN  =      -652.26339149 eV

  energy without entropy =     -652.26339149  energy(sigma->0) =     -652.26339149


--------------------------------------------------------------------------------------------------------




--------------------------------------- Iteration      1(   8)  ---------------------------------------


    POTLOK:  cpu time    0.4165: real time    0.4174
    SETDIJ:  cpu time    0.0331: real time    0.0332
    EDDIAG:  cpu time    8.1883: real time    8.2082
  RMM-DIIS:  cpu time   31.4474: real time   31.5219
    ORTHCH:  cpu time    1.0181: real time    1.0205
 BZINTS: Fermi energy:  2.805751;738.000000 electrons
         Band energy:***********;  BLOECHL correction: -0.003347
       DOS:  cpu time    0.0177: real time    0.0178
    CHARGE:  cpu time    2.6722: real time    2.6785
    MIXING:  cpu time    0.0103: real time    0.0104
    --------------------------------------------
      LOOP:  cpu time   43.8037: real time   43.9079

 eigenvalue-minimisations  :  8334
 total energy-change (2. order) :-0.2817103E+03  (-0.1446426E+02)
 number of electron     738.0000229 magnetization      78.2773145
 augmentation part      378.1574397 magnetization      72.5301104

 Broyden mixing:
  rms(total) = 0.23003E+02    rms(broyden)= 0.23003E+02
  rms(prec ) = 0.33418E+02
  weight for this iteration     100.00

 eigenvalues of (default mixing * dielectric matrix)
  average eigenvalue GAMMA=   0.2587
  0.6024  0.1206  0.0530

 Free energy of the ion-electron system (eV)
  ---------------------------------------------------
  alpha Z        PSCENC =      1576.27060381
  Ewald energy   TEWEN  =    228078.64391868
  -Hartree energ DENC   =   -291249.40133468
  -exchange      EXHF   =         0.00000000
  -V(xc)+E(xc)   XCENC  =      1079.81932214
  PAW double counting   =     64946.13484992   -67793.26812334
  entropy T*S    EENTRO =         0.00000000
  eigenvalues    EBANDS =     -1318.32012296
  atomic energy  EATOM  =     63746.14722204
  Solvation  Ediel_sol  =         0.00000000
  ---------------------------------------------------
  free energy    TOTEN  =      -933.97366442 eV

  energy without entropy =     -933.97366442  energy(sigma->0) =     -933.97366442


--------------------------------------------------------------------------------------------------------




--------------------------------------- Iteration      1(   9)  ---------------------------------------


    POTLOK:  cpu time    0.4168: real time    0.4178
    SETDIJ:  cpu time    0.0333: real time    0.0334
    EDDIAG:  cpu time    7.8704: real time    7.8890
  RMM-DIIS:  cpu time   31.6028: real time   31.6775
    ORTHCH:  cpu time    1.0155: real time    1.0179
 BZINTS: Fermi energy:  1.863015;738.000000 electrons
         Band energy:-573.717069;  BLOECHL correction: -0.122056
       DOS:  cpu time    0.0161: real time    0.0162
    CHARGE:  cpu time    2.6894: real time    2.6957
    MIXING:  cpu time    0.0105: real time    0.0105
    --------------------------------------------
      LOOP:  cpu time   43.6548: real time   43.7581

 eigenvalue-minimisations  :  8347
 total energy-change (2. order) : 0.3974224E+03  (-0.4480010E+01)
 number of electron     738.0000227 magnetization      77.7635958
 augmentation part      375.5909856 magnetization      61.2189124

 Broyden mixing:
  rms(total) = 0.87984E+01    rms(broyden)= 0.87983E+01
  rms(prec ) = 0.10774E+02
  weight for this iteration     100.00

 eigenvalues of (default mixing * dielectric matrix)
  average eigenvalue GAMMA=   0.3435
  0.8551  0.3499  0.0845  0.0845

 Free energy of the ion-electron system (eV)
  ---------------------------------------------------
  alpha Z        PSCENC =      1576.27060381
  Ewald energy   TEWEN  =    228078.64391868
  -Hartree energ DENC   =   -291563.18140363
  -exchange      EXHF   =         0.00000000
  -V(xc)+E(xc)   XCENC  =      1079.62120229
  PAW double counting   =     65677.32280447   -68557.65852674
  entropy T*S    EENTRO =         0.00000000
  eigenvalues    EBANDS =      -573.71706858
  atomic energy  EATOM  =     63746.14722204
  Solvation  Ediel_sol  =         0.00000000
  ---------------------------------------------------
  free energy    TOTEN  =      -536.55124769 eV

  energy without entropy =     -536.55124769  energy(sigma->0) =     -536.55124769


--------------------------------------------------------------------------------------------------------




--------------------------------------- Iteration      1(  10)  ---------------------------------------


    POTLOK:  cpu time    0.4147: real time    0.4157
    SETDIJ:  cpu time    0.0360: real time    0.0361
    EDDIAG:  cpu time    8.1864: real time    8.2149
  RMM-DIIS:  cpu time   31.8258: real time   31.9143
    ORTHCH:  cpu time    1.0220: real time    1.0248
 BZINTS: Fermi energy:  2.072660;738.000000 electrons
         Band energy:-645.779478;  BLOECHL correction: -0.072706
       DOS:  cpu time    0.0171: real time    0.0171
    CHARGE:  cpu time    2.6229: real time    2.6300
    MIXING:  cpu time    0.0106: real time    0.0106
    --------------------------------------------
      LOOP:  cpu time   44.1356: real time   44.2635

 eigenvalue-minimisations  :  8334
 total energy-change (2. order) :-0.7650642E+02  (-0.1406880E+02)
 number of electron     738.0000213 magnetization      77.2848033
 augmentation part      374.7030290 magnetization      65.3894578

 Broyden mixing:
  rms(total) = 0.13164E+02    rms(broyden)= 0.13164E+02
  rms(prec ) = 0.15926E+02
  weight for this iteration     100.00

 eigenvalues of (default mixing * dielectric matrix)
  average eigenvalue GAMMA=   0.3251
  0.9573  0.3677  0.0846  0.0846  0.1311

 Free energy of the ion-electron system (eV)
  ---------------------------------------------------
  alpha Z        PSCENC =      1576.27060381
  Ewald energy   TEWEN  =    228078.64391868
  -Hartree energ DENC   =   -291536.18913646
  -exchange      EXHF   =         0.00000000
  -V(xc)+E(xc)   XCENC  =      1086.89756739
  PAW double counting   =     66816.51703276   -69735.56539429
  entropy T*S    EENTRO =         0.00000000
  eigenvalues    EBANDS =      -645.77947771
  atomic energy  EATOM  =     63746.14722204
  Solvation  Ediel_sol  =         0.00000000
  ---------------------------------------------------
  free energy    TOTEN  =      -613.05766379 eV

  energy without entropy =     -613.05766379  energy(sigma->0) =     -613.05766379


--------------------------------------------------------------------------------------------------------




--------------------------------------- Iteration      1(  11)  ---------------------------------------


    POTLOK:  cpu time    0.4112: real time    0.4127
    SETDIJ:  cpu time    0.0336: real time    0.0336
    EDDIAG:  cpu time    7.8463: real time    7.8683
  RMM-DIIS:  cpu time   31.8976: real time   31.9865
    ORTHCH:  cpu time    1.0159: real time    1.0187
 BZINTS: Fermi energy:  1.883894;738.000000 electrons
         Band energy:-588.177276;  BLOECHL correction: -0.019739
       DOS:  cpu time    0.0169: real time    0.0170
    CHARGE:  cpu time    2.6612: real time    2.6685
    MIXING:  cpu time    0.0113: real time    0.0113
    --------------------------------------------
      LOOP:  cpu time   43.8938: real time   44.0164

 eigenvalue-minimisations  :  8354
 total energy-change (2. order) : 0.6553031E+02  (-0.7209360E+01)
 number of electron     738.0000223 magnetization      77.3449352
 augmentation part      376.8964868 magnetization      60.7357866

 Broyden mixing:
  rms(total) = 0.81233E+01    rms(broyden)= 0.81232E+01
  rms(prec ) = 0.91642E+01
  weight for this iteration     100.00

 eigenvalues of (default mixing * dielectric matrix)
  average eigenvalue GAMMA=   0.3416
  1.1276  0.3243  0.3243  0.0985  0.0985  0.0766

 Free energy of the ion-electron system (eV)
  ---------------------------------------------------
  alpha Z        PSCENC =      1576.27060381
  Ewald energy   TEWEN  =    228078.64391868
  -Hartree energ DENC   =   -291518.51506554
  -exchange      EXHF   =         0.00000000
  -V(xc)+E(xc)   XCENC  =      1092.63684540
  PAW double counting   =     67457.65047565   -70392.18407930
  entropy T*S    EENTRO =         0.00000000
  eigenvalues    EBANDS =      -588.17727601
  atomic energy  EATOM  =     63746.14722204
  Solvation  Ediel_sol  =         0.00000000
  ---------------------------------------------------
  free energy    TOTEN  =      -547.52735529 eV

  energy without entropy =     -547.52735529  energy(sigma->0) =     -547.52735529


--------------------------------------------------------------------------------------------------------




--------------------------------------- Iteration      1(  12)  ---------------------------------------


    POTLOK:  cpu time    0.4168: real time    0.4181
    SETDIJ:  cpu time    0.0336: real time    0.0336
    EDDIAG:  cpu time    8.0634: real time    8.0860
  RMM-DIIS:  cpu time   31.9358: real time   32.0256
    ORTHCH:  cpu time    1.0168: real time    1.0196
 BZINTS: Fermi energy:  1.822589;738.000000 electrons
         Band energy:-554.857570;  BLOECHL correction: -0.034195
       DOS:  cpu time    0.0174: real time    0.0174
    CHARGE:  cpu time    2.6681: real time    2.6756
    MIXING:  cpu time    0.0115: real time    0.0115
    --------------------------------------------
      LOOP:  cpu time   44.1634: real time   44.2874

 eigenvalue-minimisations  :  8363
 total energy-change (2. order) : 0.1845360E+02  (-0.4305691E+01)
 number of electron     738.0000230 magnetization      77.5607734
 augmentation part      379.7547660 magnetization      62.2455856

 Broyden mixing:
  rms(total) = 0.74328E+01    rms(broyden)= 0.74328E+01
  rms(prec ) = 0.88396E+01
  weight for this iteration     100.00

 eigenvalues of (default mixing * dielectric matrix)
  average eigenvalue GAMMA=   0.3572
  1.2711  0.4163  0.4163  0.1165  0.1165  0.0819  0.0819

 Free energy of the ion-electron system (eV)
  ---------------------------------------------------
  alpha Z        PSCENC =      1576.27060381
  Ewald energy   TEWEN  =    228078.64391868
  -Hartree energ DENC   =   -291526.73267021
  -exchange      EXHF   =         0.00000000
  -V(xc)+E(xc)   XCENC  =      1094.79211917
  PAW double counting   =     67915.08720427   -70858.42458702
  entropy T*S    EENTRO =         0.00000000
  eigenvalues    EBANDS =      -554.85757001
  atomic energy  EATOM  =     63746.14722204
  Solvation  Ediel_sol  =         0.00000000
  ---------------------------------------------------
  free energy    TOTEN  =      -529.07375928 eV

  energy without entropy =     -529.07375928  energy(sigma->0) =     -529.07375928


--------------------------------------------------------------------------------------------------------




--------------------------------------- Iteration      1(  13)  ---------------------------------------


    POTLOK:  cpu time    0.4134: real time    0.4144
    SETDIJ:  cpu time    0.0334: real time    0.0335
    EDDIAG:  cpu time    7.8754: real time    7.8974
  RMM-DIIS:  cpu time   32.0057: real time   32.0948
    ORTHCH:  cpu time    1.0121: real time    1.0149
 BZINTS: Fermi energy:  1.922215;738.000000 electrons
         Band energy:-480.919383;  BLOECHL correction: -0.053239
       DOS:  cpu time    0.0164: real time    0.0165
    CHARGE:  cpu time    2.6728: real time    2.6803
    MIXING:  cpu time    0.0154: real time    0.0155
    --------------------------------------------
      LOOP:  cpu time   44.0446: real time   44.1672

 eigenvalue-minimisations  :  8363
 total energy-change (2. order) : 0.2294721E+01  (-0.2777352E+01)
 number of electron     738.0000226 magnetization      77.7543917
 augmentation part      379.1381469 magnetization      64.8799273

 Broyden mixing:
  rms(total) = 0.85379E+01    rms(broyden)= 0.85378E+01
  rms(prec ) = 0.98908E+01
  weight for this iteration     100.00

 eigenvalues of (default mixing * dielectric matrix)
  average eigenvalue GAMMA=   0.3523
  1.3944  0.4563  0.4563  0.1306  0.1306  0.0876  0.0876  0.0751

 Free energy of the ion-electron system (eV)
  ---------------------------------------------------
  alpha Z        PSCENC =      1576.27060381
  Ewald energy   TEWEN  =    228078.64391868
  -Hartree energ DENC   =   -291588.76388080
  -exchange      EXHF   =         0.00000000
  -V(xc)+E(xc)   XCENC  =      1098.06398919
  PAW double counting   =     68324.55910415   -71280.78061248
  entropy T*S    EENTRO =         0.00000000
  eigenvalues    EBANDS =      -480.91938327
  atomic energy  EATOM  =     63746.14722204
  Solvation  Ediel_sol  =         0.00000000
  ---------------------------------------------------
  free energy    TOTEN  =      -526.77903869 eV

  energy without entropy =     -526.77903869  energy(sigma->0) =     -526.77903869


--------------------------------------------------------------------------------------------------------




--------------------------------------- Iteration      1(  14)  ---------------------------------------


    POTLOK:  cpu time    0.4510: real time    0.4520
    SETDIJ:  cpu time    0.0335: real time    0.0336
    EDDIAG:  cpu time    7.9294: real time    7.9517
  RMM-DIIS:  cpu time   31.9436: real time   32.0327
    ORTHCH:  cpu time    1.0879: real time    1.0908
 BZINTS: Fermi energy:  1.993031;738.000000 electrons
         Band energy:-402.242450;  BLOECHL correction: -0.023500
       DOS:  cpu time    0.0164: real time    0.0164
    CHARGE:  cpu time    2.6781: real time    2.6878
    MIXING:  cpu time    0.0118: real time    0.0118
    --------------------------------------------
      LOOP:  cpu time   44.1517: real time   44.2768

 eigenvalue-minimisations  :  8357
 total energy-change (2. order) : 0.1694188E+02  (-0.2503574E+01)
 number of electron     738.0000230 magnetization      78.0466402
 augmentation part      377.8590582 magnetization      64.7440058

 Broyden mixing:
  rms(total) = 0.59262E+01    rms(broyden)= 0.59261E+01
  rms(prec ) = 0.67015E+01
  weight for this iteration     100.00

 eigenvalues of (default mixing * dielectric matrix)
  average eigenvalue GAMMA=   0.3404
  1.4601  0.4698  0.4698  0.1573  0.1573  0.0967  0.0967  0.0781  0.0781

 Free energy of the ion-electron system (eV)
  ---------------------------------------------------
  alpha Z        PSCENC =      1576.27060381
  Ewald energy   TEWEN  =    228078.64391868
  -Hartree energ DENC   =   -291642.60608677
  -exchange      EXHF   =         0.00000000
  -V(xc)+E(xc)   XCENC  =      1101.38087786
  PAW double counting   =     68765.99017418   -71733.42142100
  entropy T*S    EENTRO =         0.00000000
  eigenvalues    EBANDS =      -402.24245041
  atomic energy  EATOM  =     63746.14722204
  Solvation  Ediel_sol  =         0.00000000
  ---------------------------------------------------
  free energy    TOTEN  =      -509.83716162 eV

  energy without entropy =     -509.83716162  energy(sigma->0) =     -509.83716162


--------------------------------------------------------------------------------------------------------




--------------------------------------- Iteration      1(  15)  ---------------------------------------


    POTLOK:  cpu time    0.4133: real time    0.4143
    SETDIJ:  cpu time    0.0336: real time    0.0337
    EDDIAG:  cpu time    7.9993: real time    8.0185
  RMM-DIIS:  cpu time   31.6883: real time   31.7657
    ORTHCH:  cpu time    1.0218: real time    1.0243
 BZINTS: Fermi energy:  2.012267;738.000000 electrons
         Band energy:-349.074227;  BLOECHL correction: -0.040651
       DOS:  cpu time    0.0172: real time    0.0172
    CHARGE:  cpu time    2.6289: real time    2.6352
    MIXING:  cpu time    0.0128: real time    0.0128
    --------------------------------------------
      LOOP:  cpu time   43.8152: real time   43.9216

 eigenvalue-minimisations  :  8359
 total energy-change (2. order) : 0.1078732E+02  (-0.1283195E+01)
 number of electron     738.0000223 magnetization      78.7027173
 augmentation part      377.6830408 magnetization      64.8733686

 Broyden mixing:
  rms(total) = 0.37498E+01    rms(broyden)= 0.37498E+01
  rms(prec ) = 0.40969E+01
  weight for this iteration     100.00

 eigenvalues of (default mixing * dielectric matrix)
  average eigenvalue GAMMA=   0.3536
  1.5414  0.5507  0.5507  0.2216  0.2216  0.1017  0.1017  0.0848  0.0848  0.0770

 Free energy of the ion-electron system (eV)
  ---------------------------------------------------
  alpha Z        PSCENC =      1576.27060381
  Ewald energy   TEWEN  =    228078.64391868
  -Hartree energ DENC   =   -291679.29192962
  -exchange      EXHF   =         0.00000000
  -V(xc)+E(xc)   XCENC  =      1102.21413707
  PAW double counting   =     69031.05029922   -72005.00986751
  entropy T*S    EENTRO =         0.00000000
[...]
     10.206182  3.404018  6.886468            0           0           0  
     10.251112  3.366005  1.127934            0           0           0  
     10.248176  0.326049  4.973771            0           0           0  
      8.919424  7.174049  4.980211            0           0           0  
     10.234788  4.896543  4.980243            0           0           0  
      6.288860  7.182854  4.978519            0           0           0  
      4.961994  0.322172  4.974002            0           0           0  
      4.968348  6.417007  2.992234            0           0           0  
      7.601947  0.325084  4.973492            0           0           0  
      8.919885  1.083312  6.848231            0           0           0  
     10.232634  7.944492  6.853602            0           0           0  
      8.931018  1.079620  1.127737            0           0           0  
     10.250101  7.939278  1.127458            0           0           0  
      4.973268  4.897892  4.978612            0           0           0  
     11.547485  2.618019  4.982579            0           0           0  
     14.207249  8.703033  2.991217            0           0           0  
      8.927250  2.613804  4.978962            0           0           0  
      6.290575  2.617170  4.978636            0           0           0  
     14.200920  8.710894  8.998121            0           0           0  
      3.639634  4.133532  8.991949            0           0           0  
      6.274896  8.721415  8.990906            0           0           0  
     11.582150  4.132221  9.002476            0           0           0  
      8.925971  8.731501  9.003538            0           0           0  
     10.246278  1.841789  8.990333            0           0           0  
      2.321802  1.853025  8.992545            0           0           0  
     11.566427  8.715150  8.990396            0           0           0  
     12.888201  6.426719  8.990450            0           0           0  
      4.956787  1.851908  8.993233            0           0           0  
      7.587949  6.453636  9.090239            0           0           0  
      8.937097  4.119396  9.111916            0           0           0  
      4.949767  6.431553  8.985746            0           0           0  
      7.602010  1.838202  8.985317            0           0           0  
      6.252982  4.122919  8.993506            0           0           0  
     10.273488  6.444100  8.993999            0           0           0  
      7.872096  5.042489 10.477195     0.339918   -0.594414    0.050612  
      8.708816  5.506698 10.462379    -0.349747    0.634393   -0.061550  
 
   5 f/i=   14.412695 THz    90.557632 2PiTHz  480.755733 cm-1    59.606136 meV
             X         Y         Z           dx          dy          dz
     12.888844  7.949174  6.845596            0           0           0  
      4.957270  7.946095  6.847992            0           0           0  
      3.644581  5.657713  6.848936            0           0           0  
     12.890693  7.937732  1.127411            0           0           0  
      4.969706  7.939116  1.128531            0           0           0  
      3.649957  5.651776  1.129190            0           0           0  
      7.608781  1.843362  2.991653            0           0           0  
      8.928348  8.703137  2.991182            0           0           0  
      2.314679  3.372003  6.850686            0           0           0  
      2.330136  3.366551  1.129481            0           0           0  
     10.248209  1.844221  2.991308            0           0           0  
     12.882364  4.894841  4.974098            0           0           0  
      3.638221  1.081920  6.851269            0           0           0  
      8.922163  5.658786  6.868774            0           0           0  
      4.962984  3.372527  6.851054            0           0           0  
      3.651346  1.080639  1.128571            0           0           0  
      8.928223  5.652563  1.127107            0           0           0  
      4.969471  3.366256  1.129791            0           0           0  
     11.568373  8.702678  2.990806            0           0           0  
     11.562089  7.181485  4.976758            0           0           0  
     12.887726  6.416690  2.991438            0           0           0  
      8.928769  4.130875  2.990941            0           0           0  
      7.611883  7.906783  6.881760            0           0           0  
      7.608717  7.939412  1.128257            0           0           0  
     10.247638  6.416886  2.990068            0           0           0  
      2.322545  0.307110  4.981815            0           0           0  
      7.619978  3.387523  6.862713            0           0           0  
      7.610141  3.365160  1.128439            0           0           0  
      6.281218  1.091119  6.849217            0           0           0  
      6.290737  1.079887  1.128229            0           0           0  
     11.567580  4.131448  2.992071            0           0           0  
      3.648521  4.130274  2.993297            0           0           0  
      1.008715  1.091191  6.849527            0           0           0  
      1.011385  1.080376  1.128547            0           0           0  
      6.287836  8.703604  2.991992            0           0           0  
      7.606089  4.897004  4.978848            0           0           0  
      4.969213  1.843763  2.992524            0           0           0  
      2.328654  1.843751  2.992483            0           0           0  
     14.204564  7.180513  4.972826            0           0           0  
     11.555616  5.652898  6.853244            0           0           0  
      6.303405  5.666291  6.861526            0           0           0  
     11.569967  5.652273  1.127480            0           0           0  
      6.288786  5.652014  1.128720            0           0           0  
      7.607949  6.417220  2.991241            0           0           0  
      6.289230  4.130398  2.992423            0           0           0  
      3.644595  2.609966  4.972724            0           0           0  
     10.206182  3.404018  6.886468            0           0           0  
     10.251112  3.366005  1.127934            0           0           0  
     10.248176  0.326049  4.973771            0           0           0  
      8.919424  7.174049  4.980211            0           0           0  
     10.234788  4.896543  4.980243            0           0           0  
      6.288860  7.182854  4.978519            0           0           0  
      4.961994  0.322172  4.974002            0           0           0  
      4.968348  6.417007  2.992234            0           0           0  
      7.601947  0.325084  4.973492            0           0           0  
      8.919885  1.083312  6.848231            0           0           0  
     10.232634  7.944492  6.853602            0           0           0  
      8.931018  1.079620  1.127737            0           0           0  
     10.250101  7.939278  1.127458            0           0           0  
      4.973268  4.897892  4.978612            0           0           0  
     11.547485  2.618019  4.982579            0           0           0  
     14.207249  8.703033  2.991217            0           0           0  
      8.927250  2.613804  4.978962            0           0           0  
      6.290575  2.617170  4.978636            0           0           0  
     14.200920  8.710894  8.998121            0           0           0  
      3.639634  4.133532  8.991949            0           0           0  
      6.274896  8.721415  8.990906            0           0           0  
     11.582150  4.132221  9.002476            0           0           0  
      8.925971  8.731501  9.003538            0           0           0  
     10.246278  1.841789  8.990333            0           0           0  
      2.321802  1.853025  8.992545            0           0           0  
     11.566427  8.715150  8.990396            0           0           0  
     12.888201  6.426719  8.990450            0           0           0  
      4.956787  1.851908  8.993233            0           0           0  
      7.587949  6.453636  9.090239            0           0           0  
      8.937097  4.119396  9.111916            0           0           0  
      4.949767  6.431553  8.985746            0           0           0  
      7.602010  1.838202  8.985317            0           0           0  
      6.252982  4.122919  8.993506            0           0           0  
     10.273488  6.444100  8.993999            0           0           0  
      7.872096  5.042489 10.477195     0.355514   -0.634509    0.005296  
      8.708816  5.506698 10.462379     0.345668   -0.592260    0.026863  
 
   6 f/i=   21.152081 THz   132.902446 2PiTHz  705.557463 cm-1    87.478008 meV
             X         Y         Z           dx          dy          dz
     12.888844  7.949174  6.845596            0           0           0  
      4.957270  7.946095  6.847992            0           0           0  
      3.644581  5.657713  6.848936            0           0           0  
     12.890693  7.937732  1.127411            0           0           0  
      4.969706  7.939116  1.128531            0           0           0  
      3.649957  5.651776  1.129190            0           0           0  
      7.608781  1.843362  2.991653            0           0           0  
      8.928348  8.703137  2.991182            0           0           0  
      2.314679  3.372003  6.850686            0           0           0  
      2.330136  3.366551  1.129481            0           0           0  
     10.248209  1.844221  2.991308            0           0           0  
     12.882364  4.894841  4.974098            0           0           0  
      3.638221  1.081920  6.851269            0           0           0  
      8.922163  5.658786  6.868774            0           0           0  
      4.962984  3.372527  6.851054            0           0           0  
      3.651346  1.080639  1.128571            0           0           0  
      8.928223  5.652563  1.127107            0           0           0  
      4.969471  3.366256  1.129791            0           0           0  
     11.568373  8.702678  2.990806            0           0           0  
     11.562089  7.181485  4.976758            0           0           0  
     12.887726  6.416690  2.991438            0           0           0  
      8.928769  4.130875  2.990941            0           0           0  
      7.611883  7.906783  6.881760            0           0           0  
      7.608717  7.939412  1.128257            0           0           0  
     10.247638  6.416886  2.990068            0           0           0  
      2.322545  0.307110  4.981815            0           0           0  
      7.619978  3.387523  6.862713            0           0           0  
      7.610141  3.365160  1.128439            0           0           0  
      6.281218  1.091119  6.849217            0           0           0  
      6.290737  1.079887  1.128229            0           0           0  
     11.567580  4.131448  2.992071            0           0           0  
      3.648521  4.130274  2.993297            0           0           0  
      1.008715  1.091191  6.849527            0           0           0  
      1.011385  1.080376  1.128547            0           0           0  
      6.287836  8.703604  2.991992            0           0           0  
      7.606089  4.897004  4.978848            0           0           0  
      4.969213  1.843763  2.992524            0           0           0  
      2.328654  1.843751  2.992483            0           0           0  
     14.204564  7.180513  4.972826            0           0           0  
     11.555616  5.652898  6.853244            0           0           0  
      6.303405  5.666291  6.861526            0           0           0  
     11.569967  5.652273  1.127480            0           0           0  
      6.288786  5.652014  1.128720            0           0           0  
      7.607949  6.417220  2.991241            0           0           0  
      6.289230  4.130398  2.992423            0           0           0  
      3.644595  2.609966  4.972724            0           0           0  
     10.206182  3.404018  6.886468            0           0           0  
     10.251112  3.366005  1.127934            0           0           0  
     10.248176  0.326049  4.973771            0           0           0  
      8.919424  7.174049  4.980211            0           0           0  
     10.234788  4.896543  4.980243            0           0           0  
      6.288860  7.182854  4.978519            0           0           0  
      4.961994  0.322172  4.974002            0           0           0  
      4.968348  6.417007  2.992234            0           0           0  
      7.601947  0.325084  4.973492            0           0           0  
      8.919885  1.083312  6.848231            0           0           0  
     10.232634  7.944492  6.853602            0           0           0  
      8.931018  1.079620  1.127737            0           0           0  
     10.250101  7.939278  1.127458            0           0           0  
      4.973268  4.897892  4.978612            0           0           0  
     11.547485  2.618019  4.982579            0           0           0  
     14.207249  8.703033  2.991217            0           0           0  
      8.927250  2.613804  4.978962            0           0           0  
      6.290575  2.617170  4.978636            0           0           0  
     14.200920  8.710894  8.998121            0           0           0  
      3.639634  4.133532  8.991949            0           0           0  
      6.274896  8.721415  8.990906            0           0           0  
     11.582150  4.132221  9.002476            0           0           0  
      8.925971  8.731501  9.003538            0           0           0  
     10.246278  1.841789  8.990333            0           0           0  
      2.321802  1.853025  8.992545            0           0           0  
     11.566427  8.715150  8.990396            0           0           0  
     12.888201  6.426719  8.990450            0           0           0  
      4.956787  1.851908  8.993233            0           0           0  
      7.587949  6.453636  9.090239            0           0           0  
      8.937097  4.119396  9.111916            0           0           0  
      4.949767  6.431553  8.985746            0           0           0  
      7.602010  1.838202  8.985317            0           0           0  
      6.252982  4.122919  8.993506            0           0           0  
     10.273488  6.444100  8.993999            0           0           0  
      7.872096  5.042489 10.477195    -0.218795   -0.131329   -0.647561  
      8.708816  5.506698 10.462379     0.245411    0.116659   -0.664613  
 
 Finite differences POTIM=  1.500000000000000E-002
  LATTYP: Found a hexagonal cell.
 ALAT       =    10.5600004196
 C/A-ratio  =     2.0833332505
  
  Lattice vectors:
  
 A1 = (   5.2800002098,  -9.1452286274,   0.0000000000)
 A2 = ( -10.5600004196,   0.0000000000,   0.0000000000)
 A3 = (   0.0000000000,   0.0000000000, -22.0000000000)


Analysis of symmetry for initial positions (statically):
=====================================================================
 Subroutine PRICEL returns:
 Original cell was already a primitive cell.
 

 Routine SETGRP: Setting up the symmetry group for a 
 hexagonal supercell.


 Subroutine GETGRP returns: Found  1 space group operations
 (whereof  1 operations were pure point group operations)
 out of a pool of 24 trial point group operations.


The static configuration has the point symmetry C_1 .


Analysis of symmetry for dynamics (positions and initial velocities):
=====================================================================
 Subroutine PRICEL returns:
 Original cell was already a primitive cell.
 

 Routine SETGRP: Setting up the symmetry group for a 
 hexagonal supercell.


 Subroutine GETGRP returns: Found  1 space group operations
 (whereof  1 operations were pure point group operations)
 out of a pool of 24 trial point group operations.


The dynamic configuration has the point symmetry C_1 .


Analysis of constrained symmetry for selective dynamics:
=====================================================================
 Subroutine PRICEL returns:
 Original cell was already a primitive cell.
 

 Routine SETGRP: Setting up the symmetry group for a 
 hexagonal supercell.


 Subroutine GETGRP returns: Found  1 space group operations
 (whereof  1 operations were pure point group operations)
 out of a pool of 24 trial point group operations.


The constrained configuration has the point symmetry C_1 .


Analysis of structural, dynamic, and magnetic symmetry:
=====================================================================
 Subroutine PRICEL returns:
 Original cell was already a primitive cell.
 

 Routine SETGRP: Setting up the symmetry group for a 
 hexagonal supercell.


 Subroutine GETGRP returns: Found  1 space group operations
 (whereof  1 operations were pure point group operations)
 out of a pool of 24 trial point group operations.


The magnetic configuration has the point symmetry C_1 .


 Subroutine INISYM returns: Found  1 space group operations
 (whereof  1 operations are pure point group operations),
 and found     1 'primitive' translations

 
 KPOINTS: mesh auto                               

Automatic generation of k-mesh.
Space group operators:
 irot       det(A)        alpha          n_x          n_y          n_z        tau_x        tau_y        tau_z
    1     1.000000     0.000001     1.000000     0.000000     0.000000     0.000000     0.000000     0.000000
 
 Subroutine IBZKPT returns following result:
 ===========================================
 
 Found      4 irreducible k-points:
 
 Following reciprocal coordinates:
            Coordinates               Weight
  0.000000  0.000000  0.000000      1.000000
  0.500000  0.000000  0.000000      1.000000
  0.000000  0.500000  0.000000      1.000000
  0.500000  0.500000  0.000000      1.000000
 
 Following cartesian coordinates:
            Coordinates               Weight
  0.000000  0.000000  0.000000      1.000000
  0.047348 -0.027337  0.000000      1.000000
  0.000000  0.054673  0.000000      1.000000
  0.047348  0.027337  0.000000      1.000000
 
 TETIRR: Found     12 inequivalent tetrahedra from       24
     LOOP+:  cpu time  548.6042: real time  550.2658
    4ORBIT:  cpu time    0.0000: real time    0.0000
 BZINTS: Fermi energy:  2.063116;738.000000 electrons
         Band energy:-468.754933;  BLOECHL correction: -0.351800

 total amount of memory used by VASP MPI-rank0   356237. kBytes
=======================================================================

   base      :      30000. kBytes
   nonlr-proj:      83580. kBytes
   fftplans  :      13995. kBytes
   grid      :     120016. kBytes
   one-center:       2550. kBytes
   wavefun   :     106096. kBytes
 
  
  
 General timing and accounting informations for this job:
 ========================================================
  
                  Total CPU time used (sec):    10356.141
                            User time (sec):    10315.039
                          System time (sec):       41.101
                         Elapsed time (sec):    10386.647
  
                   Maximum memory used (kb):     1156992.
                   Average memory used (kb):           0.
  
                          Minor page faults:      4454674
                          Major page faults:            0
                 Voluntary context switches:         5472
