 vasp.5.4.4.18Apr17-6-g9f103f2a35 (build Nov 30 2020 22:55:02) complex          
  
 executed on             LinuxIFC date 2023.08.07  23:03:45
 running on   40 total cores
 distrk:  each k-point on   40 cores,    1 groups
 distr:  one band on NCORES_PER_BAND=   4 cores,   10 groups


--------------------------------------------------------------------------------------------------------


 INCAR:
 POTCAR:    PAW_PBE Pt 04Feb2005                  
 POTCAR:    PAW_PBE H 15Jun2001                   
 POTCAR:    PAW_PBE Pt 04Feb2005                  
   VRHFIN =Pt: s1d9                                                             
   LEXCH  = PE                                                                  
   EATOM  =   729.1176 eV,   53.5886 Ry                                         
                                                                                
   TITEL  = PAW_PBE Pt 04Feb2005                                                
   LULTRA =        F    use ultrasoft PP ?                                      
   IUNSCR =        1    unscreen: 0-lin 1-nonlin 2-no                           
   RPACOR =    2.330    partial core radius                                     
   POMASS =  195.080; ZVAL   =   10.000    mass and valenz                      
   RCORE  =    2.600    outmost cutoff radius                                   
   RWIGS  =    2.750; RWIGS  =    1.455    wigner-seitz radius (au A)           
   ENMAX  =  230.283; ENMIN  =  172.712 eV                                      
   ICORE  =        3    local potential                                         
   LCOR   =        T    correct aug charges                                     
   LPAW   =        T    paw PP                                                  
   EAUG   =  358.966                                                            
   DEXC   =    0.000                                                            
   RMAX   =    2.658    core radius for proj-oper                               
   RAUG   =    1.300    factor for augmentation sphere                          
   RDEP   =    2.761    radius for radial grids                                 
   RDEPT  =    2.203    core radius for aug-charge                              
                                                                                
   Atomic configuration                                                         
   16 entries                                                                   
     n  l   j            E        occ.                                          
     1  0  0.50    -78401.1885   2.0000                                         
     2  0  0.50    -13770.7750   2.0000                                         
     2  1  1.50    -11931.0468   6.0000                                         
     3  0  0.50     -3234.7234   2.0000                                         
     3  1  1.50     -2699.2216   6.0000                                         
     3  2  2.50     -2119.5714  10.0000                                         
     4  0  0.50      -695.1528   2.0000                                         
     4  1  1.50      -519.6034   6.0000                                         
     4  2  2.50      -306.6786  10.0000                                         
     4  3  3.50       -70.1041  14.0000                                         
     5  0  0.50      -101.7747   2.0000                                         
     5  1  1.50       -55.9873   6.0000                                         
     5  2  2.50        -6.1423   9.0000                                         
     6  0  0.50        -5.6573   1.0000                                         
     6  1  1.50        -6.8029   0.0000                                         
     5  3  2.50        -1.3606   0.0000                                         
   Description                                                                  
     l       E           TYP  RCUT    TYP  RCUT                                 
     2     -6.1423404     23  2.500                                             
     2     -7.5029230     23  2.500                                             
     0     -5.6573207     23  2.500                                             
     0      0.7416693     23  2.500                                             
     1     -2.7211652     23  2.600                                             
     1     20.4087390     23  2.600                                             
     3     -1.3605826     23  2.500                                             
  local pseudopotential read in
  partial core-charges read in
  partial kinetic energy density read in
  atomic valenz-charges read in
  non local Contribution for L=           2  read in
    real space projection operators read in
  non local Contribution for L=           2  read in
    real space projection operators read in
  non local Contribution for L=           0  read in
    real space projection operators read in
  non local Contribution for L=           0  read in
    real space projection operators read in
  non local Contribution for L=           1  read in
    real space projection operators read in
  non local Contribution for L=           1  read in
    real space projection operators read in
    PAW grid and wavefunctions read in
 
   number of l-projection  operators is LMAX  =           6
   number of lm-projection operators is LMMAX =          18
 
 POTCAR:    PAW_PBE H 15Jun2001                   
   VRHFIN =H: ultrasoft test                                                    
   LEXCH  = PE                                                                  
   EATOM  =    12.4884 eV,    0.9179 Ry                                         
                                                                                
   TITEL  = PAW_PBE H 15Jun2001                                                 
   LULTRA =        F    use ultrasoft PP ?                                      
   IUNSCR =        0    unscreen: 0-lin 1-nonlin 2-no                           
   RPACOR =    0.000    partial core radius                                     
   POMASS =    1.000; ZVAL   =    1.000    mass and valenz                      
   RCORE  =    1.100    outmost cutoff radius                                   
   RWIGS  =    0.700; RWIGS  =    0.370    wigner-seitz radius (au A)           
   ENMAX  =  250.000; ENMIN  =  200.000 eV                                      
   RCLOC  =    0.701    cutoff for local pot                                    
   LCOR   =        T    correct aug charges                                     
   LPAW   =        T    paw PP                                                  
   EAUG   =  400.000                                                            
   RMAX   =    1.123    core radius for proj-oper                               
   RAUG   =    1.200    factor for augmentation sphere                          
   RDEP   =    1.112    radius for radial grids                                 
   RDEPT  =    0.926    core radius for aug-charge                              
                                                                                
   Atomic configuration                                                         
    2 entries                                                                   
     n  l   j            E        occ.                                          
     1  0  0.50        -6.4927   1.0000                                         
     2  1  0.50        -3.4015   0.0000                                         
   Description                                                                  
     l       E           TYP  RCUT    TYP  RCUT                                 
     0     -6.4927494     23  1.100                                             
     0      6.8029130     23  1.100                                             
     1     -4.0817478     23  1.100                                             
  local pseudopotential read in
  atomic valenz-charges read in
  non local Contribution for L=           0  read in
    real space projection operators read in
  non local Contribution for L=           0  read in
    real space projection operators read in
  non local Contribution for L=           1  read in
    real space projection operators read in
    PAW grid and wavefunctions read in
 
   number of l-projection  operators is LMAX  =           3
   number of lm-projection operators is LMMAX =           5
 
 Optimization of the real space projectors (new method)

 maximal supplied QI-value         = 14.36
 optimisation between [QCUT,QGAM] = [ 11.92, 23.98] = [ 39.79,161.09] Ry 
 Optimized for a Real-space Cutoff    1.49 Angstroem

   l    n(q)    QCUT    max X(q) W(low)/X(q) W(high)/X(q)  e(spline) 
   2     10    11.920    66.195    0.79E-04    0.18E-03    0.24E-06
   2     10    11.920    64.643    0.81E-04    0.19E-03    0.24E-06
   0     11    11.920    95.520    0.28E-04    0.54E-04    0.18E-06
   0     11    11.920    63.403    0.27E-04    0.52E-04    0.17E-06
   1     10    11.920    19.961    0.18E-04    0.11E-03    0.23E-06
   1     10    11.920    13.289    0.25E-04    0.87E-04    0.19E-06
 Optimization of the real space projectors (new method)

 maximal supplied QI-value         = 34.20
 optimisation between [QCUT,QGAM] = [ 11.97, 23.94] = [ 40.13,160.53] Ry 
 Optimized for a Real-space Cutoff    1.18 Angstroem

   l    n(q)    QCUT    max X(q) W(low)/X(q) W(high)/X(q)  e(spline) 
   0      8    11.971    19.460    0.15E-03    0.31E-03    0.25E-06
   0      8    11.971    12.209    0.13E-03    0.29E-03    0.25E-06
   1      8    11.971     4.655    0.22E-03    0.24E-03    0.21E-06
  PAW_PBE Pt 04Feb2005                  :
 energy of atom  1       EATOM= -729.1176
 kinetic energy error for atom=    0.0021 (will be added to EATOM!!)
  PAW_PBE H 15Jun2001                   :
 energy of atom  2       EATOM=  -12.4884
 kinetic energy error for atom=    0.0008 (will be added to EATOM!!)
 
 
 POSCAR: Pt111\(1\1\1)\(2)                       
  positions in direct lattice
  velocities in cartesian coordinates
 exchange correlation table for  LEXCH =        8
   RHO(1)=    0.500       N(1)  =     2000
   RHO(2)=  100.500       N(2)  =     4000
 


--------------------------------------------------------------------------------------------------------


 ion  position               nearest neighbor table
   1  1.000  0.000  0.056-   5 2.64   9 2.64  13 2.64  29 2.64  57 2.64  37 2.64  14 2.87  42 2.87
                            54 2.87
   2  0.333  0.167  0.177-  42 2.64  38 2.64  30 2.64  14 2.64  26 2.64   6 2.64  11 2.84   7 2.84
                            15 2.84  13 2.87  21 2.87   9 2.87
   3  0.167  0.333  0.297-  31 2.64  39 2.64  27 2.64  43 2.64   7 2.64  15 2.64  10 2.84  14 2.84
                             6 2.84  12 2.87   8 2.87  48 2.87
   4  1.000  1.000  0.419-  12 2.64  32 2.64  60 2.64   8 2.64  40 2.64  16 2.64  27 2.87   7 2.87
                            63 2.87
   5  1.000  0.250  0.056-   1 2.64  45 2.64  33 2.64   9 2.64  29 2.64  25 2.64  14 2.87  18 2.87
                            10 2.87
   6  0.333  0.417  0.177-  34 2.64  10 2.64  62 2.64  14 2.64  26 2.64   2 2.64  43 2.84   3 2.84
                            15 2.85  45 2.87   9 2.87  49 2.87
   7  0.167  0.083  0.297-  11 2.64  35 2.64  63 2.64  27 2.64  15 2.64   3 2.64  42 2.84   2 2.84
                            14 2.84  12 2.87   4 2.87  16 2.87
   8  1.000  0.250  0.419-  28 2.64  32 2.64  12 2.64   4 2.64  36 2.64  48 2.64   3 2.87  27 2.87
                            31 2.87
   9  0.250  0.250  0.056-  21 2.64  13 2.64   1 2.64  49 2.64  45 2.64   5 2.64   6 2.87  14 2.87
                             2 2.87
  10  0.083  0.417  0.177-   6 2.64  14 2.64  46 2.64  34 2.64  18 2.64  22 2.64  39 2.84   3 2.84
                            31 2.84   5 2.87  45 2.87  33 2.87
  11  0.417  0.083  0.297-  15 2.64   7 2.64  35 2.64  47 2.64  19 2.64  23 2.64  38 2.84   2 2.84
                            30 2.84  24 2.87  20 2.87  16 2.87
  12  0.250  0.250  0.419-   4 2.64   8 2.64  16 2.64  48 2.64  52 2.64  24 2.64  15 2.87   3 2.87
                             7 2.87
  13  0.250  0.000  0.056-  21 2.64   9 2.64  17 2.64   1 2.64  37 2.64  41 2.64   2 2.87  38 2.87
                            42 2.87
  14  0.083  0.167  0.177-  42 2.64  10 2.64   2 2.64  54 2.64   6 2.64  18 2.64  27 2.84   7 2.84
                             3 2.84   1 2.87   9 2.87   5 2.87
  15  0.417  0.333  0.297-  19 2.64  11 2.64  55 2.64   7 2.64  43 2.64   3 2.64  26 2.84   2 2.84
                             6 2.85  12 2.87  52 2.87  24 2.87
  16  0.250  0.000  0.419-  24 2.64  20 2.64  12 2.64  40 2.64  44 2.64   4 2.64   7 2.87  11 2.87
                            35 2.87
  17  0.500  0.000  0.056-  29 2.64  25 2.64  13 2.64  21 2.64  41 2.64  53 2.64  38 2.87  30 2.87
                            58 2.87
  18  0.833  0.167  0.177-  22 2.64  54 2.64  10 2.64  58 2.64  30 2.64  14 2.64  31 2.84  27 2.84
                            23 2.84   5 2.87  29 2.87  25 2.87
  19  0.667  0.333  0.297-  15 2.64  55 2.64  59 2.64  31 2.64  11 2.64  23 2.64  22 2.84  26 2.84
                            30 2.84  24 2.87  64 2.87  28 2.87
  20  0.500  1.000  0.419-  24 2.64  56 2.64  16 2.64  28 2.64  32 2.64  44 2.64  23 2.87  47 2.87
                            11 2.87
  21  0.500  0.250  0.056-  25 2.64  61 2.64   9 2.64  13 2.64  49 2.64  17 2.64  30 2.87   2 2.87
                            26 2.87
  22  0.833  0.417  0.177-  26 2.64  30 2.64  18 2.64  50 2.64  46 2.64  10 2.64  19 2.84  59 2.84
                            31 2.84  25 2.87  61 2.87  33 2.87
  23  0.667  0.083  0.297-  51 2.64  27 2.64  47 2.64  31 2.64  19 2.64  11 2.64  58 2.84  18 2.84
                            30 2.84  28 2.87  20 2.87  32 2.87
  24  0.500  0.250  0.419-  28 2.64  20 2.64  64 2.64  16 2.64  52 2.64  12 2.64  15 2.87  19 2.87
                            11 2.87
  25  0.750  0.250  0.056-  17 2.64  21 2.64  29 2.64  61 2.64  33 2.64   5 2.64  22 2.87  30 2.87
                            18 2.87
  26  0.583  0.417  0.177-  50 2.64  22 2.64  30 2.64  62 2.64   6 2.64   2 2.64  19 2.84  55 2.84
                            15 2.84  61 2.87  21 2.87  49 2.87
  27  0.917  0.083  0.297-   3 2.64  63 2.64   7 2.64  31 2.64  23 2.64  51 2.64  54 2.84  18 2.84
                            14 2.84   4 2.87   8 2.87  32 2.87
  28  0.750  0.250  0.419-  24 2.64   8 2.64  64 2.64  20 2.64  32 2.64  36 2.64  23 2.87  31 2.87
                            19 2.87
  29  0.750  0.000  0.056-  17 2.64  25 2.64   5 2.64  53 2.64   1 2.64  57 2.64  18 2.87  58 2.87
                            54 2.87
  30  0.583  0.167  0.177-  22 2.64  38 2.64  26 2.64   2 2.64  18 2.64  58 2.64  11 2.84  19 2.84
                            23 2.84  21 2.87  25 2.87  17 2.87
  31  0.917  0.333  0.297-   3 2.64  39 2.64  59 2.64  27 2.64  23 2.64  19 2.64  10 2.84  22 2.84
                            18 2.84  36 2.87   8 2.87  28 2.87
  32  0.750  1.000  0.419-  56 2.64   8 2.64   4 2.64  60 2.64  20 2.64  28 2.64  23 2.87  51 2.87
                            27 2.87
  33  1.000  0.500  0.056-  37 2.64  41 2.64   5 2.64  45 2.64  25 2.64  61 2.64  46 2.87  22 2.87
                            10 2.87
  34  0.333  0.667  0.177-   6 2.64  62 2.64  10 2.64  58 2.64  46 2.64  38 2.64  39 2.84  43 2.84
                            47 2.84  45 2.87  53 2.87  41 2.87
  35  0.167  0.833  0.297-   7 2.64  11 2.64  47 2.64  39 2.64  59 2.64  63 2.64  42 2.84  38 2.84
                            46 2.84  40 2.87  44 2.87  16 2.87
  36  0.000  0.500  0.419-  48 2.64  44 2.64   8 2.64  40 2.64  28 2.64  64 2.64  31 2.87  59 2.87
                            39 2.87
  37  1.000  0.750  0.056-  33 2.64  41 2.64  61 2.64  57 2.64  13 2.64   1 2.64  46 2.87  50 2.87
                            42 2.87
  38  0.333  0.917  0.177-   2 2.64  30 2.64  58 2.64  42 2.64  46 2.64  34 2.64  11 2.84  35 2.84
                            47 2.84  17 2.87  13 2.87  41 2.87
  39  0.167  0.583  0.297-   3 2.64  43 2.64  31 2.64  47 2.64  59 2.64  35 2.64  34 2.84  10 2.84
                            46 2.84  36 2.87  44 2.87  48 2.87
  40  0.000  0.750  0.419-  44 2.64  60 2.64   4 2.64  36 2.64  16 2.64  64 2.64  63 2.87  59 2.87
                            35 2.87
  41  0.250  0.750  0.056-  45 2.64  33 2.64  37 2.64  53 2.64  17 2.64  13 2.64  46 2.87  38 2.87
                            34 2.87
  42  0.083  0.917  0.177-   2 2.64  14 2.64  38 2.64  54 2.64  46 2.64  50 2.64   7 2.84  35 2.84
                            63 2.84  13 2.87   1 2.87  37 2.87
  43  0.417  0.583  0.297-  47 2.64  51 2.64  39 2.64   3 2.64  55 2.64  15 2.64  34 2.84  62 2.84
                             6 2.84  52 2.87  48 2.87  56 2.87
  44  0.250  0.750  0.419-  48 2.64  36 2.64  56 2.64  40 2.64  20 2.64  16 2.64  47 2.87  35 2.87
                            39 2.87
  45  0.250  0.500  0.056-  41 2.64  53 2.64   5 2.64   9 2.64  49 2.64  33 2.64   6 2.87  10 2.87
                            34 2.87
  46  0.083  0.667  0.177-  10 2.64  34 2.64  22 2.64  38 2.64  50 2.64  42 2.64  39 2.84  59 2.84
                            35 2.84  33 2.87  41 2.87  37 2.87
  47  0.417  0.833  0.297-  43 2.64  39 2.64  35 2.64  51 2.64  23 2.64  11 2.64  34 2.84  58 2.84
                            38 2.84  44 2.87  20 2.87  56 2.87
  48  0.250  0.500  0.419-  36 2.64  44 2.64   8 2.64  12 2.64  56 2.64  52 2.64   3 2.87  43 2.87
                            39 2.87
  49  0.500  0.500  0.056-  61 2.64  53 2.64  57 2.64  21 2.64   9 2.64  45 2.64   6 2.87  62 2.87
                            26 2.87
  50  0.833  0.667  0.177-  26 2.64  62 2.64  22 2.64  54 2.64  46 2.64  42 2.64  55 2.84  59 2.84
                            63 2.84  61 2.87  57 2.87  37 2.87
  51  0.667  0.833  0.297-  43 2.64  63 2.64  55 2.64  47 2.64  23 2.64  27 2.64  54 2.84  58 2.84
                            62 2.84  60 2.87  56 2.87  32 2.87
  52  0.500  0.500  0.419-  60 2.64  64 2.64  56 2.64  48 2.64  12 2.64  24 2.64  15 2.87  55 2.87
                            43 2.87
  53  0.500  0.750  0.056-  49 2.64  57 2.64  45 2.64  41 2.64  29 2.64  17 2.64  62 2.87  58 2.87
                            34 2.87
  54  0.833  0.917  0.177-  18 2.64  14 2.64  58 2.64  62 2.64  42 2.64  50 2.64  63 2.84  27 2.84
                            51 2.84  29 2.87   1 2.87  57 2.87
  55  0.667  0.583  0.297-  19 2.64  59 2.64  63 2.64  51 2.64  15 2.64  43 2.64  50 2.84  26 2.84
                            62 2.84  52 2.87  60 2.87  64 2.87
  56  0.500  0.750  0.419-  32 2.64  20 2.64  52 2.64  44 2.64  60 2.64  48 2.64  43 2.87  51 2.87
                            47 2.87
  57  0.750  0.750  0.056-  61 2.64  49 2.64  53 2.64  37 2.64   1 2.64  29 2.64  62 2.87  50 2.87
                            54 2.87
  58  0.583  0.917  0.177-  38 2.64  54 2.64  34 2.64  18 2.64  62 2.64  30 2.64  47 2.84  51 2.84
                            23 2.84  53 2.87  29 2.87  17 2.87
  59  0.917  0.583  0.297-  55 2.64  19 2.64  31 2.64  39 2.64  63 2.64  35 2.64  50 2.84  22 2.84
                            46 2.84  40 2.87  36 2.87  64 2.87
  60  0.750  0.750  0.419-  52 2.64  32 2.64   4 2.64  56 2.64  40 2.64  64 2.64  51 2.87  55 2.87
                            63 2.87
  61  0.750  0.500  0.056-  49 2.64  57 2.64  21 2.64  25 2.64  37 2.64  33 2.64  26 2.87  50 2.87
                            22 2.87
  62  0.583  0.667  0.177-  50 2.64  34 2.64  26 2.64   6 2.64  54 2.64  58 2.64  51 2.84  55 2.84
                            43 2.84  49 2.87  57 2.87  53 2.87
  63  0.917  0.833  0.297-  55 2.64   7 2.64  27 2.64  51 2.64  59 2.64  35 2.64  54 2.84  42 2.84
                            50 2.84  40 2.87  60 2.87   4 2.87
  64  0.750  0.500  0.419-  24 2.64  52 2.64  28 2.64  60 2.64  40 2.64  36 2.64  55 2.87  19 2.87
                            59 2.87
  65  0.380  0.411  0.567-  66 0.75
  66  0.372  0.337  0.573-  65 0.75
 
  LATTYP: Found a hexagonal cell.
 ALAT       =    10.5600004196
 C/A-ratio  =     1.8939393187
  
  Lattice vectors:
  
 A1 = (  10.5600004196,   0.0000000000,   0.0000000000)
 A2 = (  -5.2800002098,   9.1452286274,   0.0000000000)
 A3 = (   0.0000000000,   0.0000000000,  20.0000000000)


Analysis of symmetry for initial positions (statically):
=====================================================================
 Subroutine PRICEL returns:
 Original cell was already a primitive cell.
 

 Routine SETGRP: Setting up the symmetry group for a 
 hexagonal supercell.


 Subroutine GETGRP returns: Found  1 space group operations
 (whereof  1 operations were pure point group operations)
 out of a pool of 24 trial point group operations.


The static configuration has the point symmetry C_1 .


Analysis of symmetry for dynamics (positions and initial velocities):
=====================================================================
 Subroutine PRICEL returns:
 Original cell was already a primitive cell.
 

 Routine SETGRP: Setting up the symmetry group for a 
 hexagonal supercell.


 Subroutine GETGRP returns: Found  1 space group operations
 (whereof  1 operations were pure point group operations)
 out of a pool of 24 trial point group operations.


The dynamic configuration has the point symmetry C_1 .


Analysis of constrained symmetry for selective dynamics:
=====================================================================
 Subroutine PRICEL returns:
 Original cell was already a primitive cell.
 

 Routine SETGRP: Setting up the symmetry group for a 
 hexagonal supercell.


 Subroutine GETGRP returns: Found  1 space group operations
 (whereof  1 operations were pure point group operations)
 out of a pool of 24 trial point group operations.


The constrained configuration has the point symmetry C_1 .


Analysis of structural, dynamic, and magnetic symmetry:
=====================================================================
 Subroutine PRICEL returns:
 Original cell was already a primitive cell.
 

 Routine SETGRP: Setting up the symmetry group for a 
 hexagonal supercell.


 Subroutine GETGRP returns: Found  1 space group operations
 (whereof  1 operations were pure point group operations)
 out of a pool of 24 trial point group operations.


The magnetic configuration has the point symmetry C_1 .


 Subroutine INISYM returns: Found  1 space group operations
 (whereof  1 operations are pure point group operations),
 and found     1 'primitive' translations

 
 
 KPOINTS: mesh auto                               

Automatic generation of k-mesh.
Space group operators:
 irot       det(A)        alpha          n_x          n_y          n_z        tau_x        tau_y        tau_z
    1     1.000000     0.000000     1.000000     0.000000     0.000000     0.000000     0.000000     0.000000
 
 Subroutine IBZKPT returns following result:
 ===========================================
 
 Found      4 irreducible k-points:
 
 Following reciprocal coordinates:
            Coordinates               Weight
  0.000000  0.000000  0.000000      1.000000
  0.500000 -0.000000  0.000000      1.000000
  0.000000  0.500000  0.000000      1.000000
  0.500000  0.500000  0.000000      1.000000
 
 Following cartesian coordinates:
            Coordinates               Weight
  0.000000  0.000000  0.000000      1.000000
  0.047348  0.027337  0.000000      1.000000
  0.000000  0.054673  0.000000      1.000000
  0.047348  0.082010  0.000000      1.000000
 


--------------------------------------------------------------------------------------------------------




 Dimension of arrays:
   k-points           NKPTS =      4   k-points in BZ     NKDIM =      4   number of bands    NBANDS=    420
   number of dos      NEDOS =    301   number of ions     NIONS =     66
   non local maximal  LDIM  =      6   non local SUM 2l+1 LMDIM =     18
   total plane-waves  NPLWV = ******
   max r-space proj   IRMAX =   8171   max aug-charges    IRDMAX=  35597
   dimension x,y,z NGX =    84 NGY =   84 NGZ =  160
   dimension x,y,z NGXF=   168 NGYF=  168 NGZF=  320
   support grid    NGXF=   168 NGYF=  168 NGZF=  320
   ions per type =              64   2
   NGX,Y,Z   is equivalent  to a cutoff of  13.22, 13.22, 13.30 a.u.
   NGXF,Y,Z  is equivalent  to a cutoff of  26.45, 26.45, 26.60 a.u.

 SYSTEM =  Pt111                                   
 POSCAR =  Pt111\(1\1\1)\(2)                       

 Startparameter for this run:
   NWRITE =      2    write-flag & timer
   PREC   = accura    normal or accurate (medium, high low for compatibility)
   ISTART =      0    job   : 0-new  1-cont  2-samecut
   ICHARG =      2    charge: 1-file 2-atom 10-const
   ISPIN  =      2    spin polarized calculation?
   LNONCOLLINEAR =      F non collinear calculations
   LSORBIT =      F    spin-orbit coupling
   INIWAV =      1    electr: 0-lowe 1-rand  2-diag
   LASPH  =      F    aspherical Exc in radial PAW
   METAGGA=      F    non-selfconsistent MetaGGA calc.

 Electronic Relaxation 1
   ENCUT  =  550.0 eV  40.42 Ry    6.36 a.u.  20.19 20.19 38.24*2*pi/ulx,y,z
   ENINI  =  550.0     initial cutoff
   ENAUG  =  400.0 eV  augmentation charge cutoff
   NELM   =    200;   NELMIN=  2; NELMDL= -5     # of ELM steps 
   EDIFF  = 0.1E-04   stopping-criterion for ELM
   LREAL  =      T    real-space projection
   NLSPLINE    = F    spline interpolate recip. space projectors
   LCOMPAT=      F    compatible to vasp.4.4
   GGA_COMPAT  = T    GGA compatible to vasp.4.4-vasp.4.6
   LMAXPAW     = -100 max onsite density
   LMAXMIX     =    2 max onsite mixed and CHGCAR
   VOSKOWN=      0    Vosko Wilk Nusair interpolation
   ROPT   =   -0.00025  -0.00025
 Ionic relaxation
   EDIFFG = -.5E-01   stopping-criterion for IOM
   NSW    =    300    number of steps for IOM
   NBLOCK =      1;   KBLOCK =    300    inner block; outer block 
   IBRION =      2    ionic relax: 0-MD 1-quasi-New 2-CG
   NFREE  =      1    steps in history (QN), initial steepest desc. (CG)
   ISIF   =      2    stress and relaxation
   IWAVPR =     11    prediction:  0-non 1-charg 2-wave 3-comb
   ISYM   =      2    0-nonsym 1-usesym 2-fastsym
   LCORR  =      T    Harris-Foulkes like correction to forces

   POTIM  = 0.5000    time-step for ionic-motion
   TEIN   =    0.0    initial temperature
   TEBEG  =    0.0;   TEEND  =   0.0 temperature during run
   SMASS  =  -3.00    Nose mass-parameter (am)
   estimated Nose-frequenzy (Omega)   =  0.10E-29 period in steps =****** mass=  -0.255E-26a.u.
   SCALEE = 1.0000    scale energy and forces
   NPACO  =    256;   APACO  = 16.0  distance and # of slots for P.C.
   PSTRESS=    0.0 pullay stress

  Mass of Ions in am
   POMASS = 195.08  1.00
  Ionic Valenz
   ZVAL   =  10.00  1.00
  Atomic Wigner-Seitz radii
   RWIGS  =  -1.00 -1.00
  virtual crystal weights 
   VCA    =   1.00  1.00
   NELECT =     642.0000    total number of electrons
   NUPDOWN=      -1.0000    fix difference up-down

 DOS related values:
   EMIN   =  10.00;   EMAX   =-10.00  energy-range for DOS
   EFERMI =   0.00
   ISMEAR =     1;   SIGMA  =   0.10  broadening in eV -4-tet -1-fermi 0-gaus

 Electronic relaxation 2 (details)
   IALGO  =     68    algorithm
   LDIAG  =      T    sub-space diagonalisation (order eigenvalues)
   LSUBROT=      F    optimize rotation matrix (better conditioning)
   TURBO    =      0    0=normal 1=particle mesh
   IRESTART =      0    0=no restart 2=restart with 2 vectors
   NREBOOT  =      0    no. of reboots
   NMIN     =      0    reboot dimension
   EREF     =   0.00    reference energy to select bands
   IMIX   =      4    mixing-type and parameters
     AMIX     =   0.40;   BMIX     =  1.00
     AMIX_MAG =   1.60;   BMIX_MAG =  1.00
     AMIN     =   0.10
     WC   =   100.;   INIMIX=   1;  MIXPRE=   1;  MAXMIX= -45

 Intra band minimization:
   WEIMIN = 0.0010     energy-eigenvalue tresh-hold
   EBREAK =  0.60E-08  absolut break condition
   DEPER  =   0.30     relativ break condition  

   TIME   =   0.40     timestep for ELM

  volume/ion in A,a.u.               =      29.26       197.49
  Fermi-wavevector in a.u.,A,eV,Ry     =   1.134028  2.143002 17.497349  1.286019
  Thomas-Fermi vector in A             =   2.270731
 
 Write flags
   LWAVE        =      F    write WAVECAR
   LDOWNSAMPLE  =      F    k-point downsampling of WAVECAR
   LCHARG       =      F    write CHGCAR
   LVTOT        =      F    write LOCPOT, total local potential
   LVHAR        =      F    write LOCPOT, Hartree potential only
   LELF         =      F    write electronic localiz. function (ELF)
   LORBIT       =      0    0 simple, 1 ext, 2 COOP (PROOUT), +10 PAW based schemes


 Dipole corrections
   LMONO  =      F    monopole corrections only (constant potential shift)
   LDIPOL =      F    correct potential (dipole corrections)
   IDIPOL =      0    1-x, 2-y, 3-z, 4-all directions 
   EPSILON=  1.0000000 bulk dielectric constant

 Exchange correlation treatment:
   GGA     =    --    GGA type
   LEXCH   =     8    internal setting for exchange type
   VOSKOWN=      0    Vosko Wilk Nusair interpolation
   LHFCALC =     F    Hartree Fock is set to
   LHFONE  =     F    Hartree Fock one center treatment
   AEXX    =    0.0000 exact exchange contribution

 Linear response parameters
   LEPSILON=     F    determine dielectric tensor
   LRPA    =     F    only Hartree local field effects (RPA)
   LNABLA  =     F    use nabla operator in PAW spheres
   LVEL    =     F    velocity operator in full k-point grid
   LINTERFAST=   F  fast interpolation
   KINTER  =     0    interpolate to denser k-point grid
   CSHIFT  =0.1000    complex shift for real part using Kramers Kronig
   OMEGAMAX=  -1.0    maximum frequency
   DEG_THRESHOLD= 0.2000000E-02 threshold for treating states as degnerate
   RTIME   =   -0.100 relaxation time in fs
  (WPLASMAI=    0.000 imaginary part of plasma frequency in eV, 0.658/RTIME)
   DFIELD  = 0.0000000 0.0000000 0.0000000 field for delta impulse in time
 
 Orbital magnetization related:
   ORBITALMAG=     F  switch on orbital magnetization
   LCHIMAG   =     F  perturbation theory with respect to B field
   DQ        =  0.001000  dq finite difference perturbation B field
   LLRAUG    =     F  two centre corrections for induced B field



--------------------------------------------------------------------------------------------------------


 conjugate gradient relaxation of ions
   using selective dynamics as specified on POSCAR
 charge density and potential will be updated during run
 spin polarized calculation
 RMM-DIIS sequential band-by-band and
  variant of blocked Davidson during initial phase
 perform sub-space diagonalisation
    before iterative eigenvector-optimisation
 modified Broyden-mixing scheme, WC =      100.0
 initial mixing is a Kerker type mixing with AMIX =  0.4000 and BMIX =      1.0000
 Hartree-type preconditioning will be used
 using additional bands           99
 real space projection scheme for non local part
 use partial core corrections
 calculate Harris-corrections to forces 
   (improved forces if not selfconsistent)
 use gradient corrections 
 use of overlap-Matrix (Vanderbilt PP)
 Methfessel and Paxton  Order N= 1 SIGMA  =   0.10


--------------------------------------------------------------------------------------------------------


  energy-cutoff  :      550.00
  volume of cell :     1931.47
      direct lattice vectors                 reciprocal lattice vectors
    10.560000420  0.000000000  0.000000000     0.094696966  0.054673319  0.000000000
    -5.280000210  9.145228627  0.000000000     0.000000000  0.109346638  0.000000000
     0.000000000  0.000000000 20.000000000     0.000000000  0.000000000  0.050000000

  length of vectors
    10.560000420 10.560000420 20.000000000     0.109346638  0.109346638  0.050000000


 
 k-points in units of 2pi/SCALE and weight: mesh auto                               
   0.00000000  0.00000000  0.00000000       0.250
   0.04734848  0.02733666  0.00000000       0.250
   0.00000000  0.05467332  0.00000000       0.250
   0.04734848  0.08200998  0.00000000       0.250
 
 k-points in reciprocal lattice and weights: mesh auto                               
   0.00000000  0.00000000  0.00000000       0.250
   0.50000000 -0.00000000  0.00000000       0.250
   0.00000000  0.50000000  0.00000000       0.250
   0.50000000  0.50000000  0.00000000       0.250
 
 position of ions in fractional coordinates (direct lattice) 
   0.99999844  0.00000156  0.05579229
   0.33330939  0.16661761  0.17741435
   0.16661989  0.33334280  0.29742332
   0.99999036  0.99999973  0.41899388
   0.99999844  0.25000155  0.05579229
   0.33331077  0.41668842  0.17737564
   0.16667268  0.08330589  0.29740412
   0.99996586  0.24998022  0.41899694
   0.24999844  0.25000155  0.05579229
   0.08334647  0.41665222  0.17744450
   0.41663338  0.08333279  0.29738624
   0.24993520  0.24996072  0.41891649
   0.24999844  0.00000156  0.05579229
   0.08333508  0.16665645  0.17740636
   0.41670708  0.33330594  0.29746081
   0.25002040  0.00001028  0.41901736
   0.49999844  0.00000156  0.05579229
   0.83333275  0.16666816  0.17742047
   0.66666954  0.33336424  0.29739147
   0.50000293  0.99999905  0.41898757
   0.49999843  0.25000155  0.05579229
   0.83330566  0.41664004  0.17742368
   0.66667134  0.08332874  0.29742048
   0.50005757  0.24994752  0.41898165
   0.74999841  0.25000155  0.05579229
   0.58336932  0.41668352  0.17741817
   0.91668657  0.08333731  0.29740692
   0.74999891  0.24999474  0.41898403
   0.74999842  0.00000156  0.05579229
   0.58332887  0.16667238  0.17741966
   0.91669105  0.33334975  0.29740687
   0.74999940  0.99999669  0.41900250
   0.99999844  0.50000154  0.05579229
   0.33334597  0.66664844  0.17744668
   0.16667489  0.83333779  0.29738856
   0.00002046  0.50000068  0.41898672
   0.99999843  0.75000151  0.05579229
   0.33335542  0.91669984  0.17742425
   0.16667128  0.58332911  0.29737816
   0.00000295  0.74999906  0.41898632
   0.24999843  0.75000151  0.05579229
   0.08338594  0.91676599  0.17743977
   0.41666857  0.58339076  0.29741488
   0.24999876  0.74998246  0.41898629
   0.24999844  0.50000154  0.05579229
   0.08334382  0.66664790  0.17740297
   0.41665738  0.83331172  0.29740572
   0.24998527  0.50001339  0.41899840
   0.49999844  0.50000154  0.05579229
   0.83324481  0.66661670  0.17743306
   0.66666042  0.83331287  0.29740763
   0.50004511  0.50006652  0.41892128
   0.49999843  0.75000151  0.05579229
   0.83332973  0.91667199  0.17743000
   0.66669499  0.58333474  0.29740238
   0.50001996  0.75003742  0.41900930
   0.74999841  0.75000151  0.05579229
   0.58333015  0.91666455  0.17742197
   0.91666561  0.58332854  0.29738962
   0.75000146  0.75000710  0.41899159
   0.74999839  0.50000154  0.05579229
   0.58333267  0.66665930  0.17741315
   0.91666351  0.83333635  0.29739343
   0.74998231  0.49997909  0.41900720
   0.37995442  0.41128480  0.56705975
   0.37203530  0.33730555  0.57305144
 
 position of ions in cartesian coordinates  (Angst):
  10.55997578  0.00001422  1.11584590
   2.64000624  1.52375615  3.54828703
  -0.00054402  3.04849616  5.94846632
   5.27989986  9.14522614  8.37987764
   9.23997574  2.28632132  1.11584590
   1.31964690  3.81071087  3.54751280
   1.32020851  0.76185140  5.94808240
   9.23974425  2.28612628  8.37993870
   1.31997542  2.28632132  1.11584590
  -1.31978507  3.81037980  3.54889002
   3.95965152  0.76209741  5.94772474
   1.31952315  2.28594791  8.37832989
   2.63997547  0.00001422  1.11584590
   0.00007235  1.52411137  3.54812726
   2.64057152  3.04815899  5.94921626
   2.64016132  0.00009398  8.38034727
   5.27997557  0.00001422  1.11584590
   7.91998627  1.52421845  3.54840938
   5.27986740  3.04869219  5.94782931
   0.00003594  9.14521994  8.37975137
   3.95997540  2.28632132  1.11584590
   6.59984861  3.81026839  3.54847361
   6.60007388  0.76206039  5.94840969
   3.96088522  2.28582722  8.37963302
   6.59997527  2.28632132  1.11584590
   3.96029119  3.81066610  3.54836340
   9.24018961  0.76213871  5.94813833
   6.60001652  2.28625908  8.37968059
   7.91997543  0.00001422  1.11584590
   5.27992293  1.52425700  3.54839319
   7.92017107  3.04855969  5.94813744
   2.64001129  9.14519833  8.38004998
   7.91997567  4.57262842  1.11584590
   0.00022966  6.09665243  3.54893353
  -2.63993681  7.62106457  5.94777122
  -2.63978768  4.57262051  8.37973450
   6.59997574  6.85893527  1.11584590
  -1.31994197  8.38342964  3.54848509
  -1.31992900  5.33467809  5.94756312
  -3.95996404  6.85891288  8.37972632
  -1.32002457  6.85893527  1.11584590
  -3.95996901  8.38403455  3.54879531
   1.31971694  5.33524190  5.94829761
  -1.31992049  6.85876105  8.37972570
  -0.00002464  4.57262842  1.11584590
  -2.63979029  6.09664744  3.54805935
   0.00001611  7.62082619  5.94811445
  -0.00022622  4.57273673  8.37996798
   2.63997546  4.57262842  1.11584590
   5.27932927  6.09636212  3.54866120
   2.64004223  7.62083670  5.94815256
   2.64012522  4.57322263  8.37842550
   1.31997553  6.85893527  1.11584590
   3.95993398  8.38317496  3.54860003
   3.96029183  5.33472959  5.94804765
   1.32001321  6.85926370  8.38018594
   3.95997540  6.85893527  1.11584590
   1.31997766  8.38310690  3.54843931
   6.60001438  5.33467288  5.94779236
   3.95997808  6.85898644  8.37983181
   5.27997509  4.57262842  1.11584590
   2.64003194  6.09675172  3.54826291
   5.27995091  7.62105144  5.94786851
   5.27992385  4.57242306  8.38014390
   1.84073507  3.76129350 11.34119491
   2.14771953  3.08473638 11.46102885
 


--------------------------------------------------------------------------------------------------------


 k-point  1 :   0.0000 0.0000 0.0000  plane waves:   56579
 k-point  2 :   0.5000-0.0000 0.0000  plane waves:   56606
 k-point  3 :   0.0000 0.5000 0.0000  plane waves:   56606
 k-point  4 :   0.5000 0.5000 0.0000  plane waves:   56606

 maximum and minimum number of plane-waves per node :     14185    14108

 maximum number of plane-waves:     56606
 maximum index in each direction: 
   IXMAX=   20   IYMAX=   20   IZMAX=   38
   IXMIN=  -20   IYMIN=  -20   IZMIN=  -38


 real space projection operators:
  total allocation   :      71369.53 KBytes
  max/ min on nodes  :      17842.84      17841.81


 parallel 3D FFT for wavefunctions:
    minimum data exchange during FFTs selected (reduces bandwidth)
 parallel 3D FFT for charge:
    minimum data exchange during FFTs selected (reduces bandwidth)


 total amount of memory used by VASP MPI-rank0   200767. kBytes
=======================================================================

   base      :      30000. kBytes
   nonlr-proj:      31109. kBytes
   fftplans  :      17093. kBytes
   grid      :      44247. kBytes
   one-center:        528. kBytes
   wavefun   :      77790. kBytes
 
     INWAV:  cpu time    0.0000: real time    0.0000
 Broyden mixing: mesh for mixing (old mesh)
   NGX = 41   NGY = 41   NGZ = 77
  (NGX  =168   NGY  =168   NGZ  =320)
  gives a total of 129437 points

 initial charge density was supplied:
 charge density of overlapping atoms calculated
 number of electron     642.0000000 magnetization      66.0000000
 keeping initial charge density in first step


--------------------------------------------------------------------------------------------------------


 Maximum index for non-local projection operator         2015
 Maximum index for augmentation-charges         2177 (set IRDMAX)


--------------------------------------------------------------------------------------------------------


 First call to EWALD:  gamma=   0.142
 Maximum number of real-space cells 4x 4x 2
 Maximum number of reciprocal cells 2x 2x 4

    FEWALD:  cpu time    0.0028: real time    0.0028


--------------------------------------- Iteration      1(   1)  ---------------------------------------


    POTLOK:  cpu time    0.3898: real time    0.3987
    SETDIJ:  cpu time    0.0336: real time    0.0340
     EDDAV:  cpu time   42.5877: real time   42.7129
       DOS:  cpu time    0.0022: real time    0.0022
    --------------------------------------------
      LOOP:  cpu time   43.0132: real time   43.1478

 eigenvalue-minimisations  :  6720
 total energy-change (2. order) : 0.4500244E+04  (-0.3125568E+05)
 number of electron     642.0000000 magnetization      66.0000000
 augmentation part      642.0000000 magnetization      66.0000000

 Free energy of the ion-electron system (eV)
  ---------------------------------------------------
  alpha Z        PSCENC =      2023.78361127
  Ewald energy   TEWEN  =    125210.30216675
  -Hartree energ DENC   =   -176322.48275431
  -exchange      EXHF   =         0.00000000
  -V(xc)+E(xc)   XCENC  =       247.45036130
  PAW double counting   =     44550.55032729   -42740.70693553
  entropy T*S    EENTRO =        -0.00044032
  eigenvalues    EBANDS =      4842.97775094
  atomic energy  EATOM  =     46688.37031544
  Solvation  Ediel_sol  =         0.00000000
  ---------------------------------------------------
  free energy    TOTEN  =      4500.24440284 eV

  energy without entropy =     4500.24484316  energy(sigma->0) =     4500.24454961


--------------------------------------------------------------------------------------------------------




--------------------------------------- Iteration      1(   2)  ---------------------------------------


     EDDAV:  cpu time   46.5151: real time   46.6426
       DOS:  cpu time    0.0015: real time    0.0015
    --------------------------------------------
      LOOP:  cpu time   46.5166: real time   46.6441

 eigenvalue-minimisations  :  7510
 total energy-change (2. order) :-0.4632696E+04  (-0.4247089E+04)
 number of electron     642.0000000 magnetization      66.0000000
 augmentation part      642.0000000 magnetization      66.0000000

 Free energy of the ion-electron system (eV)
  ---------------------------------------------------
  alpha Z        PSCENC =      2023.78361127
  Ewald energy   TEWEN  =    125210.30216675
  -Hartree energ DENC   =   -176322.48275431
  -exchange      EXHF   =         0.00000000
  -V(xc)+E(xc)   XCENC  =       247.45036130
  PAW double counting   =     44550.55032729   -42740.70693553
  entropy T*S    EENTRO =         0.00025548
  eigenvalues    EBANDS =       210.28056672
  atomic energy  EATOM  =     46688.37031544
  Solvation  Ediel_sol  =         0.00000000
  ---------------------------------------------------
  free energy    TOTEN  =      -132.45208559 eV

  energy without entropy =     -132.45234107  energy(sigma->0) =     -132.45217075


--------------------------------------------------------------------------------------------------------




--------------------------------------- Iteration      1(   3)  ---------------------------------------


     EDDAV:  cpu time   47.2196: real time   47.3498
       DOS:  cpu time    0.0017: real time    0.0017
    --------------------------------------------
      LOOP:  cpu time   47.2213: real time   47.3514

 eigenvalue-minimisations  :  7650
 total energy-change (2. order) :-0.2475501E+03  (-0.2289010E+03)
 number of electron     642.0000000 magnetization      66.0000000
 augmentation part      642.0000000 magnetization      66.0000000

 Free energy of the ion-electron system (eV)
  ---------------------------------------------------
  alpha Z        PSCENC =      2023.78361127
  Ewald energy   TEWEN  =    125210.30216675
  -Hartree energ DENC   =   -176322.48275431
  -exchange      EXHF   =         0.00000000
  -V(xc)+E(xc)   XCENC  =       247.45036130
  PAW double counting   =     44550.55032729   -42740.70693553
  entropy T*S    EENTRO =         0.00493987
  eigenvalues    EBANDS =       -37.27421085
  atomic energy  EATOM  =     46688.37031544
  Solvation  Ediel_sol  =         0.00000000
  ---------------------------------------------------
  free energy    TOTEN  =      -380.00217877 eV

  energy without entropy =     -380.00711864  energy(sigma->0) =     -380.00382539


--------------------------------------------------------------------------------------------------------




--------------------------------------- Iteration      1(   4)  ---------------------------------------


     EDDAV:  cpu time   48.7652: real time   48.8983
       DOS:  cpu time    0.0016: real time    0.0016
    --------------------------------------------
      LOOP:  cpu time   48.7668: real time   48.8999

 eigenvalue-minimisations  :  8020
 total energy-change (2. order) :-0.6501854E+01  (-0.6438707E+01)
 number of electron     642.0000000 magnetization      66.0000000
 augmentation part      642.0000000 magnetization      66.0000000

 Free energy of the ion-electron system (eV)
  ---------------------------------------------------
  alpha Z        PSCENC =      2023.78361127
  Ewald energy   TEWEN  =    125210.30216675
  -Hartree energ DENC   =   -176322.48275431
  -exchange      EXHF   =         0.00000000
  -V(xc)+E(xc)   XCENC  =       247.45036130
  PAW double counting   =     44550.55032729   -42740.70693553
  entropy T*S    EENTRO =         0.00378407
  eigenvalues    EBANDS =       -43.77490945
  atomic energy  EATOM  =     46688.37031544
  Solvation  Ediel_sol  =         0.00000000
  ---------------------------------------------------
  free energy    TOTEN  =      -386.50403316 eV

  energy without entropy =     -386.50781723  energy(sigma->0) =     -386.50529452


--------------------------------------------------------------------------------------------------------




--------------------------------------- Iteration      1(   5)  ---------------------------------------


     EDDAV:  cpu time   48.8234: real time   48.9533
       DOS:  cpu time    0.0016: real time    0.0016
    CHARGE:  cpu time    3.1115: real time    3.1201
    MIXING:  cpu time    0.0097: real time    0.0106
    --------------------------------------------
      LOOP:  cpu time   51.9463: real time   52.0857

 eigenvalue-minimisations  :  7980
 total energy-change (2. order) :-0.2128379E+00  (-0.2123652E+00)
 number of electron     642.0000116 magnetization      59.6806527
 augmentation part      186.0213840 magnetization      47.5466405

 Broyden mixing:
  rms(total) = 0.10554E+02    rms(broyden)= 0.10554E+02
  rms(prec ) = 0.10655E+02
  weight for this iteration     100.00

 Free energy of the ion-electron system (eV)
  ---------------------------------------------------
  alpha Z        PSCENC =      2023.78361127
  Ewald energy   TEWEN  =    125210.30216675
  -Hartree energ DENC   =   -176322.48275431
  -exchange      EXHF   =         0.00000000
  -V(xc)+E(xc)   XCENC  =       247.45036130
  PAW double counting   =     44550.55032729   -42740.70693553
  entropy T*S    EENTRO =         0.00411857
  eigenvalues    EBANDS =       -43.98808186
  atomic energy  EATOM  =     46688.37031544
  Solvation  Ediel_sol  =         0.00000000
  ---------------------------------------------------
  free energy    TOTEN  =      -386.71687107 eV

  energy without entropy =     -386.72098964  energy(sigma->0) =     -386.71824393


--------------------------------------------------------------------------------------------------------




--------------------------------------- Iteration      1(   6)  ---------------------------------------


    POTLOK:  cpu time    0.3845: real time    0.3863
    SETDIJ:  cpu time    0.0327: real time    0.0328
    EDDIAG:  cpu time    7.5536: real time    7.5746
  RMM-DIIS:  cpu time   27.6252: real time   27.7012
    ORTHCH:  cpu time    0.6561: real time    0.6581
       DOS:  cpu time    0.0016: real time    0.0016
    CHARGE:  cpu time    3.0837: real time    3.0921
    MIXING:  cpu time    0.0103: real time    0.0106
    --------------------------------------------
      LOOP:  cpu time   39.3478: real time   39.4573

 eigenvalue-minimisations  :  6759
 total energy-change (2. order) : 0.2384582E+02  (-0.7638935E+01)
 number of electron     642.0000122 magnetization      51.6300908
 augmentation part      194.9296075 magnetization      38.6128589

 Broyden mixing:
  rms(total) = 0.67174E+01    rms(broyden)= 0.67174E+01
  rms(prec ) = 0.69795E+01
  weight for this iteration     100.00

 eigenvalues of (default mixing * dielectric matrix)
  average eigenvalue GAMMA=   1.2831
  1.2831

 Free energy of the ion-electron system (eV)
  ---------------------------------------------------
  alpha Z        PSCENC =      2023.78361127
  Ewald energy   TEWEN  =    125210.30216675
  -Hartree energ DENC   =   -175703.02753208
  -exchange      EXHF   =         0.00000000
  -V(xc)+E(xc)   XCENC  =       238.40699976
  PAW double counting   =     50918.47833416   -49215.66053491
  entropy T*S    EENTRO =        -0.05683525
  eigenvalues    EBANDS =      -523.46757749
  atomic energy  EATOM  =     46688.37031544
  Solvation  Ediel_sol  =         0.00000000
  ---------------------------------------------------
  free energy    TOTEN  =      -362.87105235 eV

  energy without entropy =     -362.81421711  energy(sigma->0) =     -362.85210727


--------------------------------------------------------------------------------------------------------




--------------------------------------- Iteration      1(   7)  ---------------------------------------


    POTLOK:  cpu time    0.3822: real time    0.3831
    SETDIJ:  cpu time    0.0327: real time    0.0328
    EDDIAG:  cpu time    7.6335: real time    7.6546
  RMM-DIIS:  cpu time   27.0660: real time   27.1400
    ORTHCH:  cpu time    0.7375: real time    0.7395
       DOS:  cpu time    0.0016: real time    0.0016
    CHARGE:  cpu time    3.1675: real time    3.1761
    MIXING:  cpu time    0.0105: real time    0.0106
    --------------------------------------------
      LOOP:  cpu time   39.0315: real time   39.1382

 eigenvalue-minimisations  :  6737
 total energy-change (2. order) :-0.1042643E+03  (-0.1225515E+02)
 number of electron     642.0000129 magnetization      45.9940670
 augmentation part      192.9116472 magnetization      34.7141754

 Broyden mixing:
  rms(total) = 0.93681E+01    rms(broyden)= 0.93681E+01
  rms(prec ) = 0.11645E+02
  weight for this iteration     100.00

 eigenvalues of (default mixing * dielectric matrix)
  average eigenvalue GAMMA=   1.0651
  1.7875  0.3427

 Free energy of the ion-electron system (eV)
  ---------------------------------------------------
  alpha Z        PSCENC =      2023.78361127
  Ewald energy   TEWEN  =    125210.30216675
  -Hartree energ DENC   =   -176202.76136976
  -exchange      EXHF   =         0.00000000
  -V(xc)+E(xc)   XCENC  =       233.47759310
  PAW double counting   =     56646.52909964   -55008.22748318
  entropy T*S    EENTRO =        -0.00567967
  eigenvalues    EBANDS =       -58.60362829
  atomic energy  EATOM  =     46688.37031544
  Solvation  Ediel_sol  =         0.00000000
  ---------------------------------------------------
  free energy    TOTEN  =      -467.13537470 eV

  energy without entropy =     -467.12969503  energy(sigma->0) =     -467.13348147


--------------------------------------------------------------------------------------------------------




--------------------------------------- Iteration      1(   8)  ---------------------------------------


    POTLOK:  cpu time    0.3817: real time    0.3826
    SETDIJ:  cpu time    0.0325: real time    0.0329
    EDDIAG:  cpu time    7.5393: real time    7.5597
  RMM-DIIS:  cpu time   27.4822: real time   27.5574
    ORTHCH:  cpu time    0.6610: real time    0.6626
       DOS:  cpu time    0.0016: real time    0.0016
    CHARGE:  cpu time    3.0954: real time    3.1038
    MIXING:  cpu time    0.0102: real time    0.0102
    --------------------------------------------
      LOOP:  cpu time   39.2039: real time   39.3108

 eigenvalue-minimisations  :  6758
 total energy-change (2. order) : 0.1098226E+03  (-0.5117485E+01)
 number of electron     642.0000127 magnetization      43.6068629
 augmentation part      198.6331035 magnetization      31.1430922

 Broyden mixing:
  rms(total) = 0.33332E+01    rms(broyden)= 0.33332E+01
  rms(prec ) = 0.41139E+01
  weight for this iteration     100.00

 eigenvalues of (default mixing * dielectric matrix)
  average eigenvalue GAMMA=   0.9886
  2.1049  0.5376  0.3233

 Free energy of the ion-electron system (eV)
  ---------------------------------------------------
  alpha Z        PSCENC =      2023.78361127
  Ewald energy   TEWEN  =    125210.30216675
  -Hartree energ DENC   =   -175670.70837732
  -exchange      EXHF   =         0.00000000
  -V(xc)+E(xc)   XCENC  =       235.36670705
  PAW double counting   =     59920.32649763   -58322.14645468
  entropy T*S    EENTRO =        -0.13750087
  eigenvalues    EBANDS =      -442.46974921
  atomic energy  EATOM  =     46688.37031544
  Solvation  Ediel_sol  =         0.00000000
  ---------------------------------------------------
  free energy    TOTEN  =      -357.31278393 eV

  energy without entropy =     -357.17528307  energy(sigma->0) =     -357.26695031


--------------------------------------------------------------------------------------------------------




--------------------------------------- Iteration      1(   9)  ---------------------------------------


    POTLOK:  cpu time    0.3790: real time    0.3803
    SETDIJ:  cpu time    0.0325: real time    0.0326
    EDDIAG:  cpu time    7.5443: real time    7.5648
  RMM-DIIS:  cpu time   27.1992: real time   27.2718
    ORTHCH:  cpu time    0.6622: real time    0.6639
       DOS:  cpu time    0.0015: real time    0.0015
    CHARGE:  cpu time    3.1039: real time    3.1119
    MIXING:  cpu time    0.0109: real time    0.0109
    --------------------------------------------
      LOOP:  cpu time   38.9336: real time   39.0377

 eigenvalue-minimisations  :  6740
 total energy-change (2. order) :-0.2623669E+02  (-0.2508373E+01)
 number of electron     642.0000126 magnetization      41.1119166
 augmentation part      198.2174572 magnetization      33.7660536

 Broyden mixing:
  rms(total) = 0.53740E+01    rms(broyden)= 0.53740E+01
  rms(prec ) = 0.80738E+01
  weight for this iteration     100.00

 eigenvalues of (default mixing * dielectric matrix)
  average eigenvalue GAMMA=   0.8540
  2.2496  0.6738  0.3254  0.1672

 Free energy of the ion-electron system (eV)
  ---------------------------------------------------
  alpha Z        PSCENC =      2023.78361127
  Ewald energy   TEWEN  =    125210.30216675
  -Hartree energ DENC   =   -175629.06629014
  -exchange      EXHF   =         0.00000000
  -V(xc)+E(xc)   XCENC  =       233.67549481
  PAW double counting   =     60421.35953451   -58825.52427915
  entropy T*S    EENTRO =        -0.00116113
  eigenvalues    EBANDS =      -506.44886469
  atomic energy  EATOM  =     46688.37031544
  Solvation  Ediel_sol  =         0.00000000
  ---------------------------------------------------
  free energy    TOTEN  =      -383.54947233 eV

  energy without entropy =     -383.54831120  energy(sigma->0) =     -383.54908529


--------------------------------------------------------------------------------------------------------




--------------------------------------- Iteration      1(  10)  ---------------------------------------


    POTLOK:  cpu time    0.3819: real time    0.3828
    SETDIJ:  cpu time    0.0322: real time    0.0323
    EDDIAG:  cpu time    7.5559: real time    7.5753
  RMM-DIIS:  cpu time   27.3701: real time   27.4439
    ORTHCH:  cpu time    0.6622: real time    0.6639
       DOS:  cpu time    0.0016: real time    0.0016
    CHARGE:  cpu time    3.1310: real time    3.1390
    MIXING:  cpu time    0.0110: real time    0.0110
    --------------------------------------------
      LOOP:  cpu time   39.1459: real time   39.2499

 eigenvalue-minimisations  :  6756
 total energy-change (2. order) : 0.1666109E+02  (-0.9202784E+00)
 number of electron     642.0000124 magnetization      39.0694354
 augmentation part      197.6626173 magnetization      30.3487434

 Broyden mixing:
  rms(total) = 0.34443E+01    rms(broyden)= 0.34443E+01
  rms(prec ) = 0.43946E+01
  weight for this iteration     100.00

 eigenvalues of (default mixing * dielectric matrix)
  average eigenvalue GAMMA=   0.7513
  2.2918  0.7412  0.2967  0.2967  0.1301

 Free energy of the ion-electron system (eV)
  ---------------------------------------------------
  alpha Z        PSCENC =      2023.78361127
  Ewald energy   TEWEN  =    125210.30216675
  -Hartree energ DENC   =   -175692.86077998
  -exchange      EXHF   =         0.00000000
  -V(xc)+E(xc)   XCENC  =       233.01010159
  PAW double counting   =     60829.94889922   -59235.60726060
  entropy T*S    EENTRO =         0.09670378
  eigenvalues    EBANDS =      -423.93213497
  atomic energy  EATOM  =     46688.37031544
  Solvation  Ediel_sol  =         0.00000000
  ---------------------------------------------------
  free energy    TOTEN  =      -366.88837750 eV

  energy without entropy =     -366.98508128  energy(sigma->0) =     -366.92061209


--------------------------------------------------------------------------------------------------------




--------------------------------------- Iteration      1(  11)  ---------------------------------------


    POTLOK:  cpu time    0.3895: real time    0.3905
    SETDIJ:  cpu time    0.0361: real time    0.0362
    EDDIAG:  cpu time    7.5750: real time    7.5946
  RMM-DIIS:  cpu time   27.3102: real time   27.3926
    ORTHCH:  cpu time    0.6600: real time    0.6616
       DOS:  cpu time    0.0016: real time    0.0016
    CHARGE:  cpu time    3.0902: real time    3.0981
    MIXING:  cpu time    0.0095: real time    0.0096
    --------------------------------------------
      LOOP:  cpu time   39.0722: real time   39.1848

 eigenvalue-minimisations  :  6744
 total energy-change (2. order) : 0.9549944E+01  (-0.3805565E+00)
 number of electron     642.0000122 magnetization      37.4137855
 augmentation part      197.6150241 magnetization      27.0274618

 Broyden mixing:
  rms(total) = 0.15392E+01    rms(broyden)= 0.15392E+01
  rms(prec ) = 0.17073E+01
  weight for this iteration     100.00

 eigenvalues of (default mixing * dielectric matrix)
  average eigenvalue GAMMA=   0.7185
  2.2133  0.6778  0.6778  0.3110  0.3110  0.1201

 Free energy of the ion-electron system (eV)
  ---------------------------------------------------
  alpha Z        PSCENC =      2023.78361127
  Ewald energy   TEWEN  =    125210.30216675
  -Hartree energ DENC   =   -175702.66796993
  -exchange      EXHF   =         0.00000000
  -V(xc)+E(xc)   XCENC  =       232.44479803
  PAW double counting   =     61028.78756702   -59435.76211060
  entropy T*S    EENTRO =         0.02050449
  eigenvalues    EBANDS =      -402.61731586
  atomic energy  EATOM  =     46688.37031544
  Solvation  Ediel_sol  =         0.00000000
  ---------------------------------------------------
  free energy    TOTEN  =      -357.33843339 eV

  energy without entropy =     -357.35893788  energy(sigma->0) =     -357.34526822


--------------------------------------------------------------------------------------------------------




--------------------------------------- Iteration      1(  12)  ---------------------------------------


    POTLOK:  cpu time    0.3833: real time    0.3842
    SETDIJ:  cpu time    0.0323: real time    0.0323
    EDDIAG:  cpu time    7.5476: real time    7.5669
  RMM-DIIS:  cpu time   27.3314: real time   27.4041
    ORTHCH:  cpu time    0.6606: real time    0.6625
       DOS:  cpu time    0.0017: real time    0.0017
    CHARGE:  cpu time    3.1002: real time    3.1087
    MIXING:  cpu time    0.0120: real time    0.0120
    --------------------------------------------
      LOOP:  cpu time   39.0690: real time   39.1724

 eigenvalue-minimisations  :  6764
 total energy-change (2. order) :-0.1343557E+01  (-0.1606204E+00)
 number of electron     642.0000123 magnetization      34.4131694
 augmentation part      197.4779863 magnetization      24.3278049

 Broyden mixing:
  rms(total) = 0.10427E+01    rms(broyden)= 0.10427E+01
  rms(prec ) = 0.11121E+01
  weight for this iteration     100.00

 eigenvalues of (default mixing * dielectric matrix)
  average eigenvalue GAMMA=   0.7261
  2.2211  0.8422  0.6384  0.6384  0.3111  0.3111  0.1205

 Free energy of the ion-electron system (eV)
  ---------------------------------------------------
  alpha Z        PSCENC =      2023.78361127
  Ewald energy   TEWEN  =    125210.30216675
  -Hartree energ DENC   =   -175701.32344288
  -exchange      EXHF   =         0.00000000
  -V(xc)+E(xc)   XCENC  =       231.49750557
  PAW double counting   =     60756.81364077   -59161.47812259
  entropy T*S    EENTRO =         0.04636672
  eigenvalues    EBANDS =      -406.69403153
  atomic energy  EATOM  =     46688.37031544
  Solvation  Ediel_sol  =         0.00000000
  ---------------------------------------------------
  free energy    TOTEN  =      -358.68199047 eV

  energy without entropy =     -358.72835720  energy(sigma->0) =     -358.69744605


--------------------------------------------------------------------------------------------------------




--------------------------------------- Iteration      1(  13)  ---------------------------------------


    POTLOK:  cpu time    0.3815: real time    0.3825
    SETDIJ:  cpu time    0.0326: real time    0.0326
    EDDIAG:  cpu time    7.5694: real time    7.5905
  RMM-DIIS:  cpu time   27.4934: real time   27.5727
    ORTHCH:  cpu time    0.6629: real time    0.6644
       DOS:  cpu time    0.0017: real time    0.0017
    CHARGE:  cpu time    3.0927: real time    3.1013
    MIXING:  cpu time    0.0123: real time    0.0124
    --------------------------------------------
      LOOP:  cpu time   39.2465: real time   39.3580

 eigenvalue-minimisations  :  6771
 total energy-change (2. order) :-0.1653796E+01  (-0.5179612E-01)
 number of electron     642.0000123 magnetization      31.0293498
 augmentation part      197.3141009 magnetization      20.8281984

 Broyden mixing:
  rms(total) = 0.81061E+00    rms(broyden)= 0.81061E+00
  rms(prec ) = 0.85957E+00
  weight for this iteration     100.00

 eigenvalues of (default mixing * dielectric matrix)
  average eigenvalue GAMMA=   0.7562
  2.2121  0.9585  0.8053  0.8053  0.5216  0.3130  0.3130  0.1206

 Free energy of the ion-electron system (eV)
  ---------------------------------------------------
  alpha Z        PSCENC =      2023.78361127
  Ewald energy   TEWEN  =    125210.30216675
  -Hartree energ DENC   =   -175718.88035311
  -exchange      EXHF   =         0.00000000
  -V(xc)+E(xc)   XCENC  =       230.49531162
  PAW double counting   =     60814.47196579   -59219.75729611
  entropy T*S    EENTRO =         0.00566307
  eigenvalues    EBANDS =      -389.12717158
  atomic energy  EATOM  =     46688.37031544
  Solvation  Ediel_sol  =         0.00000000
  ---------------------------------------------------
  free energy    TOTEN  =      -360.33578685 eV

  energy without entropy =     -360.34144992  energy(sigma->0) =     -360.33767454


--------------------------------------------------------------------------------------------------------




--------------------------------------- Iteration      1(  14)  ---------------------------------------


    POTLOK:  cpu time    0.3817: real time    0.3830
    SETDIJ:  cpu time    0.0327: real time    0.0327
    EDDIAG:  cpu time    7.6443: real time    7.6652
  RMM-DIIS:  cpu time   27.3064: real time   27.3848
    ORTHCH:  cpu time    0.6573: real time    0.6592
       DOS:  cpu time    0.0017: real time    0.0017
    CHARGE:  cpu time    3.1181: real time    3.1266
    MIXING:  cpu time    0.0113: real time    0.0113
    --------------------------------------------
      LOOP:  cpu time   39.1535: real time   39.2645

 eigenvalue-minimisations  :  6752
 total energy-change (2. order) :-0.2948708E+01  (-0.1066386E+00)
 number of electron     642.0000123 magnetization      26.7667969
 augmentation part      197.1769744 magnetization      16.4587894

 Broyden mixing:
  rms(total) = 0.88649E+00    rms(broyden)= 0.88649E+00
  rms(prec ) = 0.10007E+01
  weight for this iteration     100.00

 eigenvalues of (default mixing * dielectric matrix)
  average eigenvalue GAMMA=   0.7816
  1.9824  1.9824  0.8923  0.5965  0.5965  0.3090  0.3090  0.1206  0.2455

 Free energy of the ion-electron system (eV)
  ---------------------------------------------------
  alpha Z        PSCENC =      2023.78361127
  Ewald energy   TEWEN  =    125210.30216675
  -Hartree energ DENC   =   -175729.47585168
  -exchange      EXHF   =         0.00000000
  -V(xc)+E(xc)   XCENC  =       228.90941336
  PAW double counting   =     60784.61494843   -59189.82215862
  entropy T*S    EENTRO =         0.00906818
  eigenvalues    EBANDS =      -379.97600796
  atomic energy  EATOM  =     46688.37031544
  Solvation  Ediel_sol  =         0.00000000
  ---------------------------------------------------
  free energy    TOTEN  =      -363.28449483 eV

  energy without entropy =     -363.29356301  energy(sigma->0) =     -363.28751756


--------------------------------------------------------------------------------------------------------




--------------------------------------- Iteration      1(  15)  ---------------------------------------


    POTLOK:  cpu time    0.3817: real time    0.3826
    SETDIJ:  cpu time    0.0323: real time    0.0324
    EDDIAG:  cpu time    7.5436: real time    7.5647
  RMM-DIIS:  cpu time   27.4740: real time   27.5493
    ORTHCH:  cpu time    0.6651: real time    0.6670
       DOS:  cpu time    0.0016: real time    0.0016
    CHARGE:  cpu time    3.0677: real time    3.0760
    MIXING:  cpu time    0.0129: real time    0.0129
    --------------------------------------------
      LOOP:  cpu time   39.1788: real time   39.2865

 eigenvalue-minimisations  :  6756
 total energy-change (2. order) :-0.3469944E+01  (-0.1642798E+00)
 number of electron     642.0000123 magnetization      24.2077713
 augmentation part      197.0773893 magnetization      14.1336761

 Broyden mixing:
  rms(total) = 0.49833E+00    rms(broyden)= 0.49833E+00
  rms(prec ) = 0.55828E+00
  weight for this iteration     100.00

 eigenvalues of (default mixing * dielectric matrix)
  average eigenvalue GAMMA=   0.8302
  2.2956  2.2956  0.7499  0.7499  0.6193  0.6193  0.3135  0.3135  0.1206  0.2253

 Free energy of the ion-electron system (eV)
  ---------------------------------------------------
  alpha Z        PSCENC =      2023.78361127
  Ewald energy   TEWEN  =    125210.30216675
  -Hartree energ DENC   =   -175733.46104019
  -exchange      EXHF   =         0.00000000
  -V(xc)+E(xc)   XCENC  =       226.72976318
  PAW double counting   =     60663.51891143   -59067.85676302
  entropy T*S    EENTRO =        -0.00431034
  eigenvalues    EBANDS =      -378.13709378
  atomic energy  EATOM  =     46688.37031544
  Solvation  Ediel_sol  =         0.00000000
  ---------------------------------------------------
  free energy    TOTEN  =      -366.75443927 eV

  energy without entropy =     -366.75012892  energy(sigma->0) =     -366.75300249


--------------------------------------------------------------------------------------------------------




--------------------------------------- Iteration      1(  16)  ---------------------------------------


    POTLOK:  cpu time    0.3864: real time    0.3874
    SETDIJ:  cpu time    0.0332: real time    0.0333
    EDDIAG:  cpu time    7.5171: real time    7.5381
  RMM-DIIS:  cpu time   27.3833: real time   27.4583
    ORTHCH:  cpu time    0.6569: real time    0.6588
       DOS:  cpu time    0.0016: real time    0.0016
    CHARGE:  cpu time    3.0681: real time    3.0765
    MIXING:  cpu time    0.0116: real time    0.0117
    --------------------------------------------
      LOOP:  cpu time   39.0582: real time   39.1656

 eigenvalue-minimisations  :  6756
 total energy-change (2. order) :-0.2835134E+01  (-0.1501276E+00)
 number of electron     642.0000123 magnetization      22.2804926
 augmentation part      197.0339868 magnetization      13.2028224

 Broyden mixing:
  rms(total) = 0.42099E+00    rms(broyden)= 0.42099E+00
  rms(prec ) = 0.45284E+00
  weight for this iteration     100.00

 eigenvalues of (default mixing * dielectric matrix)
  average eigenvalue GAMMA=   0.8593
  2.4984  2.4984  0.9422  0.9422  0.6166  0.6166  0.1206  0.3175  0.3175  0.3606
  0.2216

 Free energy of the ion-electron system (eV)
  ---------------------------------------------------
  alpha Z        PSCENC =      2023.78361127
  Ewald energy   TEWEN  =    125210.30216675
  -Hartree energ DENC   =   -175720.60299327
  -exchange      EXHF   =         0.00000000
  -V(xc)+E(xc)   XCENC  =       224.90010392
  PAW double counting   =     60568.10072031   -58971.58520840
  entropy T*S    EENTRO =         0.01979575
  eigenvalues    EBANDS =      -392.87808490
  atomic energy  EATOM  =     46688.37031544
  Solvation  Ediel_sol  =         0.00000000
  ---------------------------------------------------
  free energy    TOTEN  =      -369.58957313 eV

  energy without entropy =     -369.60936888  energy(sigma->0) =     -369.59617171


--------------------------------------------------------------------------------------------------------




--------------------------------------- Iteration      1(  17)  ---------------------------------------


    POTLOK:  cpu time    0.3824: real time    0.3836
    SETDIJ:  cpu time    0.0332: real time    0.0333
    EDDIAG:  cpu time    7.6363: real time    7.6573
  RMM-DIIS:  cpu time   27.4316: real time   27.5101
    ORTHCH:  cpu time    0.7550: real time    0.7579
       DOS:  cpu time    0.0016: real time    0.0016
    CHARGE:  cpu time    3.0640: real time    3.0727
    MIXING:  cpu time    0.0127: real time    0.0127
    --------------------------------------------
      LOOP:  cpu time   39.3168: real time   39.4294

 eigenvalue-minimisations  :  6748
 total energy-change (2. order) :-0.1469449E+01  (-0.7034845E-01)
 number of electron     642.0000123 magnetization      20.6184898
 augmentation part      197.0442311 magnetization      12.0693999

 Broyden mixing:
  rms(total) = 0.34684E+00    rms(broyden)= 0.34684E+00
  rms(prec ) = 0.37326E+00
  weight for this iteration     100.00

 eigenvalues of (default mixing * dielectric matrix)
  average eigenvalue GAMMA=   0.8676
  2.9293  2.3078  1.0689  1.0689  0.6403  0.6403  0.1206  0.4298  0.3149  0.3149
  0.3522  0.2232

 Free energy of the ion-electron system (eV)
  ---------------------------------------------------
  alpha Z        PSCENC =      2023.78361127
  Ewald energy   TEWEN  =    125210.30216675
  -Hartree energ DENC   =   -175707.78383900
  -exchange      EXHF   =         0.00000000
  -V(xc)+E(xc)   XCENC  =       223.72946281
  PAW double counting   =     60574.89854837   -58978.57980610
  entropy T*S    EENTRO =         0.03735482
  eigenvalues    EBANDS =      -405.81683658
  atomic energy  EATOM  =     46688.37031544
  Solvation  Ediel_sol  =         0.00000000
  ---------------------------------------------------
  free energy    TOTEN  =      -371.05902222 eV

  energy without entropy =     -371.09637704  energy(sigma->0) =     -371.07147383


--------------------------------------------------------------------------------------------------------




--------------------------------------- Iteration      1(  18)  ---------------------------------------


    POTLOK:  cpu time    0.3859: real time    0.3869
    SETDIJ:  cpu time    0.0332: real time    0.0333
    EDDIAG:  cpu time    7.5138: real time    7.5348
  RMM-DIIS:  cpu time   27.4784: real time   27.5528
    ORTHCH:  cpu time    0.6611: real time    0.6627
       DOS:  cpu time    0.0016: real time    0.0016
    CHARGE:  cpu time    3.0644: real time    3.0723
    MIXING:  cpu time    0.0123: real time    0.0124
    --------------------------------------------
      LOOP:  cpu time   39.1509: real time   39.2567

 eigenvalue-minimisations  :  6742
 total energy-change (2. order) :-0.7217137E+00  (-0.2731310E-01)
 number of electron     642.0000123 magnetization      18.1199627
 augmentation part      197.0901950 magnetization       9.5465642

 Broyden mixing:
  rms(total) = 0.22439E+00    rms(broyden)= 0.22439E+00
  rms(prec ) = 0.24398E+00
  weight for this iteration     100.00

 eigenvalues of (default mixing * dielectric matrix)
  average eigenvalue GAMMA=   0.9615
  4.2557  2.1543  1.0984  1.0984  0.9190  0.6181  0.6181  0.4671  0.1206  0.3153
  0.3153  0.2950  0.2235

 Free energy of the ion-electron system (eV)
  ---------------------------------------------------
  alpha Z        PSCENC =      2023.78361127
  Ewald energy   TEWEN  =    125210.30216675
  -Hartree energ DENC   =   -175697.20653748
  -exchange      EXHF   =         0.00000000
  -V(xc)+E(xc)   XCENC  =       222.98397254
  PAW double counting   =     60622.23743997   -59026.61390917
  entropy T*S    EENTRO =         0.02705873
  eigenvalues    EBANDS =      -415.66485397
  atomic energy  EATOM  =     46688.37031544
  Solvation  Ediel_sol  =         0.00000000
  ---------------------------------------------------
  free energy    TOTEN  =      -371.78073591 eV

  energy without entropy =     -371.80779464  energy(sigma->0) =     -371.78975549


--------------------------------------------------------------------------------------------------------




--------------------------------------- Iteration      1(  19)  ---------------------------------------


    POTLOK:  cpu time    0.3736: real time    0.3745
    SETDIJ:  cpu time    0.0333: real time    0.0334
    EDDIAG:  cpu time    7.5138: real time    7.5333
  RMM-DIIS:  cpu time   27.3935: real time   27.4638
    ORTHCH:  cpu time    0.6573: real time    0.6589
       DOS:  cpu time    0.0017: real time    0.0017
    CHARGE:  cpu time    3.0676: real time    3.0755
    MIXING:  cpu time    0.0124: real time    0.0125
    --------------------------------------------
      LOOP:  cpu time   39.0533: real time   39.1536

 eigenvalue-minimisations  :  6745
 total energy-change (2. order) :-0.6615029E+00  (-0.3593943E-01)
 number of electron     642.0000123 magnetization      17.2262427
 augmentation part      197.1715847 magnetization       8.7248549

 Broyden mixing:
  rms(total) = 0.29191E+00    rms(broyden)= 0.29191E+00
  rms(prec ) = 0.33255E+00
  weight for this iteration     100.00

 eigenvalues of (default mixing * dielectric matrix)
  average eigenvalue GAMMA=   0.9851
  4.9659  2.1931  1.1892  1.1892  0.8961  0.6346  0.6346  0.1206  0.4156  0.4156
  0.3136  0.3136  0.2870  0.2232

 Free energy of the ion-electron system (eV)
  ---------------------------------------------------
  alpha Z        PSCENC =      2023.78361127
  Ewald energy   TEWEN  =    125210.30216675
  -Hartree energ DENC   =   -175680.21655294
  -exchange      EXHF   =         0.00000000
  -V(xc)+E(xc)   XCENC  =       222.27520121
  PAW double counting   =     60634.77304740   -59039.48934089
  entropy T*S    EENTRO =        -0.00247310
  eigenvalues    EBANDS =      -432.23821398
  atomic energy  EATOM  =     46688.37031544
  Solvation  Ediel_sol  =         0.00000000
  ---------------------------------------------------
  free energy    TOTEN  =      -372.44223883 eV

  energy without entropy =     -372.43976574  energy(sigma->0) =     -372.44141447


--------------------------------------------------------------------------------------------------------




--------------------------------------- Iteration      1(  20)  ---------------------------------------


    POTLOK:  cpu time    0.3830: real time    0.3840
    SETDIJ:  cpu time    0.0329: real time    0.0330
    EDDIAG:  cpu time    7.5861: real time    7.6122
  RMM-DIIS:  cpu time   27.4498: real time   27.5253
    ORTHCH:  cpu time    0.7379: real time    0.7396
       DOS:  cpu time    0.0016: real time    0.0016
    CHARGE:  cpu time    3.0710: real time    3.0794
    MIXING:  cpu time    0.0145: real time    0.0145
    --------------------------------------------
      LOOP:  cpu time   39.2768: real time   39.3897

 eigenvalue-minimisations  :  6764
 total energy-change (2. order) :-0.1465489E+00  (-0.9819537E-02)
 number of electron     642.0000123 magnetization      16.5545717
 augmentation part      197.1790047 magnetization       8.4350994

 Broyden mixing:
  rms(total) = 0.18420E+00    rms(broyden)= 0.18420E+00
  rms(prec ) = 0.19684E+00
  weight for this iteration     100.00

 eigenvalues of (default mixing * dielectric matrix)
  average eigenvalue GAMMA=   1.0257
  5.7178  2.2192  1.3455  1.3455  0.7072  0.7072  0.7592  0.5246  0.5246  0.1206
  0.3149  0.3149  0.3072  0.2233  0.2537

 Free energy of the ion-electron system (eV)
  ---------------------------------------------------
  alpha Z        PSCENC =      2023.78361127
  Ewald energy   TEWEN  =    125210.30216675
  -Hartree energ DENC   =   -175671.08256421
  -exchange      EXHF   =         0.00000000
  -V(xc)+E(xc)   XCENC  =       222.08618723
  PAW double counting   =     60612.00889466   -59016.34171742
  entropy T*S    EENTRO =        -0.00108851
  eigenvalues    EBANDS =      -441.71459289
  atomic energy  EATOM  =     46688.37031544
  Solvation  Ediel_sol  =         0.00000000
  ---------------------------------------------------
  free energy    TOTEN  =      -372.58878768 eV

  energy without entropy =     -372.58769917  energy(sigma->0) =     -372.58842485


--------------------------------------------------------------------------------------------------------




--------------------------------------- Iteration      1(  21)  ---------------------------------------


    POTLOK:  cpu time    0.3808: real time    0.3819
    SETDIJ:  cpu time    0.0332: real time    0.0333
    EDDIAG:  cpu time    7.5467: real time    7.5671
  RMM-DIIS:  cpu time   27.4289: real time   27.5066
    ORTHCH:  cpu time    0.6561: real time    0.6580
       DOS:  cpu time    0.0020: real time    0.0020
    CHARGE:  cpu time    3.0746: real time    3.0828
    MIXING:  cpu time    0.0148: real time    0.0148
    --------------------------------------------
      LOOP:  cpu time   39.1369: real time   39.2465

 eigenvalue-minimisations  :  6758
 total energy-change (2. order) :-0.8883325E-01  (-0.3920100E-02)
 number of electron     642.0000123 magnetization      16.1681532
 augmentation part      197.1672398 magnetization       8.2919972

 Broyden mixing:
  rms(total) = 0.15838E+00    rms(broyden)= 0.15838E+00
  rms(prec ) = 0.18131E+00
  weight for this iteration     100.00

 eigenvalues of (default mixing * dielectric matrix)
  average eigenvalue GAMMA=   0.9962
  5.9188  2.2003  1.3952  1.3952  0.7192  0.7192  0.7439  0.5140  0.5140  0.1206
  0.3143  0.3143  0.3243  0.2799  0.2234  0.2424

 Free energy of the ion-electron system (eV)
  ---------------------------------------------------
  alpha Z        PSCENC =      2023.78361127
  Ewald energy   TEWEN  =    125210.30216675
  -Hartree energ DENC   =   -175663.63477725
  -exchange      EXHF   =         0.00000000
  -V(xc)+E(xc)   XCENC  =       221.95945654
  PAW double counting   =     60608.37175289   -59012.42456635
  entropy T*S    EENTRO =         0.00252336
  eigenvalues    EBANDS =      -449.40810358
  atomic energy  EATOM  =     46688.37031544
  Solvation  Ediel_sol  =         0.00000000
  ---------------------------------------------------
  free energy    TOTEN  =      -372.67762094 eV

  energy without entropy =     -372.68014430  energy(sigma->0) =     -372.67846206


--------------------------------------------------------------------------------------------------------




--------------------------------------- Iteration      1(  22)  ---------------------------------------


    POTLOK:  cpu time    0.3788: real time    0.3797
    SETDIJ:  cpu time    0.0332: real time    0.0333
    EDDIAG:  cpu time    7.5171: real time    7.5380
[...]
 -0.000  -0.000  -0.000   0.000  -0.000   0.000   0.000   0.000  -0.000   0.000  -0.000   0.000  -0.000   0.000   0.000   0.000


------------------------ aborting loop because EDIFF is reached ----------------------------------------


    CHARGE:  cpu time    3.0724: real time    3.0810
    FORLOC:  cpu time    0.0687: real time    0.0688
    FORNL :  cpu time   12.3824: real time   12.4172
    STRESS:  cpu time   36.7746: real time   36.8763
    FORCOR:  cpu time    0.4186: real time    0.4196
    FORHAR:  cpu time    0.1059: real time    0.1065
    MIXING:  cpu time    0.0276: real time    0.0276
    OFIELD:  cpu time    0.0001: real time    0.0004

 ---------------------------------------------------------------------------------------------

         DFTD3 V3.0 Rev 1        
 IVDW         = 11
 DF pbe       
 parameters
 VDW_S6       =    1.0000
 VDW_S8       =    0.7220
 VDW_SR       =    1.2170
 rs18     =    1.0000
 alpha6   =   14.0000
 alpha8   =   16.0000
 k1-k3    =   16.0000    1.3333   -4.0000
 VDW_RADIUS   =   50.2022 A
 VDW_CNRADIUS =   21.1671 A
 Edisp (eV)  -38.81498

 E6    (eV) :   -14.3232
 E8    (eV) :   -24.4918
 % E8        : 63.10
    FORVDW:  cpu time    0.3342: real time    0.3364

  FORCE on cell =-STRESS in cart. coord.  units (eV):
  Direction    XX          YY          ZZ          XY          YZ          ZX
  --------------------------------------------------------------------------------------
  Alpha Z  2023.78361  2023.78361  2023.78361
  Ewald  162354.46349162366.97059************    -6.64122    -2.77182     1.18571
  Hartree173285.72332173287.34122************    -0.64707    -0.34993     0.13888
  E(xc)   -2862.38243 -2862.23985 -2887.80420    -0.07993    -0.03226     0.01405
  Local  ************************357759.29629     4.41075     2.00270    -0.82677
  n-local   573.85329   573.23184   309.57620     0.32691     0.13816    -0.06757
  augment  3253.36900  3253.34031  3533.30971     0.03806     0.00843    -0.00090
  Kinetic  9171.80681  9167.29130  9762.37748     2.60476     1.01144    -0.44910
  Fock        0.00000     0.00000     0.00000     0.00000     0.00000     0.00000
  vdW       -53.66318   -53.64444   -29.14338    -0.01153    -0.00616    -0.00122
  -------------------------------------------------------------------------------------
  Total      83.23161    83.23129     0.47722     0.00073     0.00056    -0.00691
  in kB      69.04152    69.04126     0.39586     0.00061     0.00047    -0.00574
  external pressure =       46.16 kB  Pullay stress =        0.00 kB


 VOLUME and BASIS-vectors are now :
 -----------------------------------------------------------------------------
  energy-cutoff  :      550.00
  volume of cell :     1931.47
      direct lattice vectors                 reciprocal lattice vectors
    10.560000420  0.000000000  0.000000000     0.094696966  0.054673319  0.000000000
    -5.280000210  9.145228627  0.000000000     0.000000000  0.109346638  0.000000000
     0.000000000  0.000000000 20.000000000     0.000000000  0.000000000  0.050000000

  length of vectors
    10.560000420 10.560000420 20.000000000     0.109346638  0.109346638  0.050000000


 FORCES acting on ions
    electron-ion (+dipol)            ewald-force                    non-local-force                 convergence-correction
 -----------------------------------------------------------------------------------------------
   0.595E-01 0.187E+00 0.231E+04   -.605E-01 -.188E+00 -.231E+04   0.659E-04 -.334E-02 -.109E+00   0.213E-02 0.214E-02 -.359E-02
   -.566E-01 -.253E+00 0.784E+03   0.624E-01 0.260E+00 -.783E+03   -.956E-03 0.149E-01 -.384E+00   -.362E-02 -.662E-02 -.395E-02
   0.103E+01 0.311E+00 -.769E+03   -.104E+01 -.301E+00 0.769E+03   0.233E-01 -.461E-02 0.382E+00   0.728E-03 -.568E-02 0.532E-02
   0.219E+01 0.398E+01 -.230E+04   -.220E+01 -.397E+01 0.230E+04   -.162E-02 -.922E-02 0.104E+00   0.174E-02 0.166E-02 0.140E-02
   0.166E+00 0.179E-01 0.231E+04   -.165E+00 -.135E-01 -.231E+04   -.301E-02 0.135E-03 -.117E+00   0.131E-02 -.280E-02 -.489E-02
   -.209E+00 0.171E+00 0.784E+03   0.212E+00 -.163E+00 -.784E+03   0.106E-01 -.708E-02 -.375E+00   -.345E-02 -.721E-02 -.407E-02
   0.486E+00 0.133E+01 -.770E+03   -.486E+00 -.135E+01 0.770E+03   -.271E-02 0.238E-01 0.399E+00   -.115E-04 -.172E-02 0.391E-02
   0.576E+01 0.206E+01 -.230E+04   -.576E+01 -.206E+01 0.230E+04   -.460E-02 0.699E-03 0.113E+00   0.205E-02 -.247E-02 0.278E-02
   0.315E-01 0.110E+00 0.231E+04   -.294E-01 -.102E+00 -.231E+04   -.927E-03 -.494E-02 -.145E+00   -.832E-03 -.521E-02 -.437E-02
   0.385E+00 0.567E-02 0.783E+03   -.390E+00 -.188E-02 -.783E+03   -.748E-04 -.166E-02 -.377E+00   0.201E-02 -.384E-02 -.476E-02
   -.101E+01 0.113E+01 -.770E+03   0.102E+01 -.114E+01 0.770E+03   0.294E-02 0.709E-02 0.384E+00   -.444E-02 -.523E-02 0.518E-02
   0.427E+01 0.730E+01 -.229E+04   -.430E+01 -.735E+01 0.229E+04   0.285E-01 0.519E-01 0.279E+00   -.142E-02 -.408E-02 0.176E-02
   -.666E-02 0.219E+00 0.231E+04   0.742E-02 -.220E+00 -.231E+04   -.359E-03 -.171E-02 -.106E+00   -.116E-02 0.783E-03 -.333E-02
   0.253E+00 0.563E-01 0.784E+03   -.257E+00 -.538E-01 -.783E+03   0.603E-04 0.548E-02 -.377E+00   0.214E-02 -.355E-02 -.331E-02
   -.232E+00 0.182E+00 -.768E+03   0.240E+00 -.174E+00 0.768E+03   -.162E-01 0.648E-02 0.353E+00   -.533E-02 -.819E-02 0.584E-02
   -.953E+00 0.628E+01 -.230E+04   0.954E+00 -.627E+01 0.230E+04   0.336E-03 -.161E-01 0.101E+00   -.227E-03 -.961E-03 0.851E-03
   -.641E-01 0.648E-01 0.231E+04   0.648E-01 -.660E-01 -.231E+04   0.345E-03 -.111E-02 -.114E+00   -.239E-02 0.131E-02 -.517E-02
   0.982E-01 0.107E+00 0.783E+03   -.103E+00 -.103E+00 -.783E+03   0.924E-03 -.177E-02 -.371E+00   0.373E-02 -.245E-02 -.515E-02
   -.150E+01 0.308E+00 -.770E+03   0.151E+01 -.301E+00 0.770E+03   -.420E-02 -.471E-02 0.382E+00   -.432E-03 -.638E-02 0.640E-02
   -.181E+01 0.134E+01 -.230E+04   0.181E+01 -.134E+01 0.230E+04   0.218E-02 -.404E-02 0.102E+00   -.174E-02 -.201E-02 0.301E-02
   -.117E+00 0.611E-01 0.231E+04   0.116E+00 -.549E-01 -.231E+04   0.291E-02 -.173E-02 -.124E+00   -.109E-02 -.490E-02 -.640E-02
   -.299E+00 -.112E+00 0.783E+03   0.300E+00 0.118E+00 -.783E+03   0.809E-03 -.538E-03 -.367E+00   0.338E-02 -.259E-02 -.722E-02
   -.288E+00 0.146E+00 -.772E+03   0.288E+00 -.143E+00 0.772E+03   -.148E-02 0.131E-02 0.373E+00   0.113E-03 -.324E-02 0.626E-02
   -.771E+01 0.435E+01 -.230E+04   0.773E+01 -.436E+01 0.230E+04   -.140E-01 0.101E-01 0.128E+00   -.204E-02 -.584E-02 0.420E-02
   -.810E-01 0.250E-01 0.231E+04   0.796E-01 -.212E-01 -.231E+04   0.993E-03 0.318E-03 -.114E+00   0.617E-03 -.241E-02 -.676E-02
   0.130E+00 0.164E+00 0.784E+03   -.128E+00 -.160E+00 -.783E+03   -.117E-01 -.593E-02 -.383E+00   -.194E-02 -.615E-02 -.684E-02
   0.823E+00 0.571E+00 -.771E+03   -.830E+00 -.574E+00 0.771E+03   0.823E-03 0.118E-02 0.375E+00   0.434E-02 0.148E-03 0.485E-02
   -.214E+01 0.808E+00 -.230E+04   0.213E+01 -.804E+00 0.230E+04   0.476E-02 0.301E-03 0.104E+00   0.141E-02 -.418E-02 0.524E-02
   0.104E-01 -.123E-02 0.231E+04   -.108E-01 -.204E-02 -.231E+04   -.244E-03 -.132E-04 -.122E+00   0.142E-02 0.259E-02 -.549E-02
   -.296E+00 0.164E+00 0.783E+03   0.299E+00 -.159E+00 -.783E+03   0.414E-03 -.611E-03 -.372E+00   -.225E-02 -.547E-02 -.587E-02
   0.699E+00 0.197E+00 -.772E+03   -.708E+00 -.194E+00 0.771E+03   -.166E-02 -.221E-02 0.369E+00   0.504E-02 -.375E-02 0.602E-02
   0.557E+00 -.428E+00 -.231E+04   -.557E+00 0.427E+00 0.231E+04   -.256E-03 0.575E-03 0.112E+00   0.228E-03 0.484E-03 0.332E-02
   0.451E-01 -.360E-01 0.231E+04   -.438E-01 0.350E-01 -.231E+04   -.116E-02 -.606E-03 -.998E-01   0.824E-03 -.519E-03 -.719E-02
   0.245E+00 -.360E+00 0.783E+03   -.244E+00 0.360E+00 -.783E+03   0.525E-03 0.959E-03 -.376E+00   -.364E-02 0.235E-02 -.375E-02
   0.120E+00 0.639E+00 -.772E+03   -.120E+00 -.651E+00 0.771E+03   -.103E-02 0.179E-02 0.361E+00   0.610E-03 0.609E-02 0.551E-02
   0.217E+01 -.980E+00 -.230E+04   -.217E+01 0.977E+00 0.230E+04   -.745E-02 0.301E-02 0.101E+00   0.310E-02 0.131E-02 0.518E-02
   0.374E-02 -.124E-01 0.231E+04   -.694E-02 0.917E-02 -.231E+04   -.994E-03 0.764E-03 -.967E-01   0.164E-02 0.459E-02 -.597E-02
   -.816E-01 0.369E+00 0.783E+03   0.841E-01 -.377E+00 -.783E+03   0.225E-02 -.164E-02 -.367E+00   -.405E-02 0.296E-02 -.332E-02
   0.118E+01 -.671E+00 -.771E+03   -.119E+01 0.676E+00 0.771E+03   0.645E-02 -.357E-02 0.377E+00   0.935E-03 0.263E-02 0.703E-02
   -.630E+00 0.419E+00 -.231E+04   0.626E+00 -.423E+00 0.231E+04   0.134E-02 -.133E-02 0.102E+00   0.306E-02 0.524E-02 0.360E-02
   0.516E-01 -.257E-01 0.231E+04   -.470E-01 0.212E-01 -.231E+04   -.247E-03 0.144E-02 -.997E-01   -.208E-02 0.337E-02 -.560E-02
   0.113E+00 0.788E+00 0.783E+03   -.114E+00 -.799E+00 -.783E+03   -.179E-02 -.113E-01 -.365E+00   0.202E-02 0.605E-02 -.339E-02
   0.302E+00 -.993E+00 -.769E+03   -.306E+00 0.100E+01 0.769E+03   0.141E-01 -.193E-01 0.386E+00   -.447E-02 -.233E-03 0.780E-02
   0.201E+01 -.131E+01 -.230E+04   -.201E+01 0.130E+01 0.230E+04   -.552E-02 0.414E-02 0.972E-01   -.124E-03 0.335E-02 0.296E-02
   0.220E+00 -.129E+00 0.231E+04   -.219E+00 0.132E+00 -.231E+04   -.383E-02 0.235E-02 -.120E+00   -.183E-02 -.235E-02 -.678E-02
   0.316E+00 -.213E+00 0.784E+03   -.322E+00 0.209E+00 -.783E+03   -.274E-02 0.259E-02 -.352E+00   0.163E-02 0.583E-02 -.455E-02
   0.227E+00 -.718E+00 -.771E+03   -.224E+00 0.719E+00 0.771E+03   -.389E-03 0.301E-02 0.368E+00   -.396E-02 0.314E-02 0.728E-02
   0.804E+01 -.442E+01 -.230E+04   -.805E+01 0.442E+01 0.230E+04   0.282E-03 -.247E-02 0.114E+00   -.112E-02 0.830E-05 0.383E-02
   -.872E-01 -.882E-01 0.231E+04   0.864E-01 0.886E-01 -.231E+04   0.342E-02 0.337E-02 -.143E+00   -.694E-03 -.285E-02 -.850E-02
   -.585E+00 -.469E+00 0.783E+03   0.586E+00 0.465E+00 -.783E+03   0.740E-02 0.647E-02 -.364E+00   0.375E-02 0.660E-02 -.628E-02
   -.114E+00 -.106E+01 -.771E+03   0.115E+00 0.106E+01 0.771E+03   0.721E-03 -.790E-05 0.374E+00   -.712E-03 0.584E-02 0.734E-02
   -.445E+01 -.713E+01 -.229E+04   0.447E+01 0.718E+01 0.229E+04   -.192E-01 -.543E-01 0.256E+00   -.326E-02 -.875E-03 0.566E-02
   0.657E-01 -.154E+00 0.231E+04   -.643E-01 0.149E+00 -.231E+04   -.150E-02 0.244E-02 -.116E+00   -.172E-02 0.304E-02 -.742E-02
   0.782E-02 0.870E-02 0.783E+03   -.872E-02 -.174E-01 -.783E+03   -.308E-02 0.138E-02 -.372E+00   0.389E-02 0.696E-02 -.429E-02
   -.979E+00 -.107E+01 -.770E+03   0.997E+00 0.108E+01 0.770E+03   -.192E-01 -.913E-02 0.395E+00   -.126E-02 0.247E-02 0.763E-02
   0.111E+01 -.613E+01 -.230E+04   -.111E+01 0.613E+01 0.230E+04   -.332E-02 0.405E-02 0.101E+00   -.291E-02 0.299E-02 0.443E-02
   -.119E+00 -.141E+00 0.231E+04   0.116E+00 0.135E+00 -.231E+04   0.266E-02 0.187E-02 -.108E+00   0.216E-02 0.433E-02 -.773E-02
   -.320E-01 -.157E+00 0.783E+03   0.323E-01 0.153E+00 -.783E+03   0.173E-02 0.572E-03 -.371E+00   -.187E-02 0.381E-02 -.413E-02
   -.491E+00 -.417E+00 -.772E+03   0.491E+00 0.415E+00 0.771E+03   -.244E-02 -.882E-03 0.361E+00   0.479E-02 0.522E-02 0.675E-02
   -.248E+01 -.392E+01 -.230E+04   0.248E+01 0.391E+01 0.230E+04   0.702E-02 0.559E-02 0.103E+00   -.204E-04 0.500E-02 0.529E-02
   -.180E+00 -.939E-01 0.231E+04   0.178E+00 0.955E-01 -.231E+04   0.147E-02 0.871E-03 -.107E+00   0.170E-02 -.110E-02 -.907E-02
   0.818E-02 -.275E+00 0.784E+03   -.588E-02 0.274E+00 -.783E+03   -.352E-02 -.133E-02 -.378E+00   -.174E-02 0.332E-02 -.518E-02
   -.235E+00 0.114E+00 -.772E+03   0.232E+00 -.124E+00 0.771E+03   0.978E-03 0.193E-03 0.362E+00   0.406E-02 0.891E-02 0.571E-02
   -.596E+01 -.225E+01 -.230E+04   0.596E+01 0.224E+01 0.230E+04   0.138E-01 0.762E-02 0.112E+00   0.128E-02 0.368E-03 0.698E-02
   0.837E+01 -.183E+02 -.201E+03   -.104E+02 0.228E+02 0.200E+03   0.205E+01 -.452E+01 0.794E+00   -.613E-04 -.741E-04 -.280E-03
   -.836E+01 0.183E+02 -.200E+03   0.104E+02 -.228E+02 0.201E+03   -.205E+01 0.452E+01 -.801E+00   -.635E-04 -.702E-04 -.330E-03
 -----------------------------------------------------------------------------------------------
   -.316E-02 0.317E-04 -.169E+00   0.799E-13 -.870E-12 -.148E-11   0.401E-02 -.240E-04 0.228E+00   -.126E-03 -.141E-03 -.155E-01
 
 
 POSITION                                       TOTAL-FORCE (eV/Angst)
 -----------------------------------------------------------------------------------
     10.55998      0.00001      1.11585         0.001170     -0.002324     -0.017779
      2.64001      1.52376      3.54829         0.001130      0.015595      0.012707
     -0.00054      3.04850      5.94847         0.013671      0.000205     -0.015095
      5.27990      9.14523      8.37988        -0.000509     -0.003772      0.019640
      9.23998      2.28632      1.11585        -0.001318      0.001685     -0.016694
      1.31965      3.81071      3.54751         0.009496     -0.007075      0.015595
      1.32021      0.76185      5.94808        -0.002913      0.003544     -0.012952
      9.23974      2.28613      8.37994        -0.002019      0.000004      0.021555
      1.31998      2.28632      1.11585         0.000305     -0.001915     -0.019135
     -1.31979      3.81038      3.54889        -0.002894     -0.001729      0.011950
      3.95965      0.76210      5.94772         0.006271     -0.002833     -0.013620
      1.31952      2.28595      8.37833         0.003865      0.004546      0.000476
      2.63998      0.00001      1.11585        -0.000733     -0.002406     -0.020304
      0.00007      1.52411      3.54813        -0.001968      0.004452      0.013757
      2.64057      3.04816      5.94922        -0.013660      0.006875     -0.020527
      2.64016      0.00009      8.38035         0.000122     -0.002645      0.022755
      5.27998      0.00001      1.11585        -0.001385     -0.001074     -0.018717
      7.91999      1.52422      3.54841         0.000206     -0.000461      0.013209
      5.27987      3.04869      5.94783         0.005352     -0.003663     -0.013782
      0.00004      9.14522      8.37975         0.001005     -0.002798      0.018503
      3.95998      2.28632      1.11585         0.000705     -0.000374     -0.016050
      6.59985      3.81027      3.54847         0.004736      0.003180      0.011024
      6.60007      0.76206      5.94841        -0.001153      0.000672     -0.013080
      3.96089      2.28583      8.37963        -0.004302      0.002170      0.015359
      6.59998      2.28632      1.11585         0.000190      0.001752     -0.018625
      3.96029      3.81067      3.54836        -0.011826     -0.008340      0.013034
      9.24019      0.76214      5.94814        -0.001992     -0.001814     -0.013012
      6.60002      2.28626      8.37968         0.002748      0.000349      0.018303
      7.91998      0.00001      1.11585         0.000742     -0.000697     -0.019473
      5.27992      1.52426      3.54839         0.001104     -0.000501      0.012914
      7.92017      3.04856      5.94814        -0.005696     -0.002134     -0.013753
      2.64001      9.14520      8.38005        -0.000336      0.000141      0.021662
      7.91998      4.57263      1.11585         0.000949     -0.002067     -0.015588
      0.00023      6.09665      3.54893        -0.001532      0.004012      0.011694
     -2.63994      7.62106      5.94777        -0.000335     -0.003881     -0.015751
     -2.63979      4.57262      8.37973        -0.002755      0.001229      0.017589
      6.59998      6.85894      1.11585        -0.002539      0.002151     -0.008349
     -1.31994      8.38343      3.54849         0.000776     -0.007063      0.010942
     -1.31993      5.33468      5.94756        -0.004930      0.003306     -0.016138
     -3.95996      6.85891      8.37973         0.000527     -0.000154      0.016716
     -1.32002      6.85894      1.11585         0.002163      0.000269     -0.014746
     -3.95997      8.38403      3.54880        -0.001309     -0.015813      0.012753
      1.31972      5.33524      5.94830         0.005539     -0.012271     -0.014355
     -1.31992      6.85876      8.37973        -0.002205      0.001926      0.017282
     -0.00002      4.57263      1.11585        -0.004418      0.002745     -0.019820
     -2.63979      6.09665      3.54806        -0.006449      0.004536      0.011268
      0.00002      7.62083      5.94811        -0.001960      0.006304     -0.013558
     -0.00023      4.57274      8.37997         0.002123     -0.001119      0.018039
      2.63998      4.57263      1.11585         0.001794      0.000846     -0.019424
      5.27933      6.09636      3.54866         0.012086      0.008653      0.012157
      2.64004      7.62084      5.94815         0.000918      0.003807     -0.012695
      2.64013      4.57322      8.37843        -0.001935     -0.005529      0.001260
      1.31998      6.85894      1.11585        -0.001842      0.000058     -0.016831
      3.95993      8.38317      3.54860        -0.000106     -0.000367      0.011078
      3.96029      5.33473      5.94805        -0.002890      0.000793     -0.013999
      1.32001      6.85926      8.38019        -0.001367      0.001883      0.023260
      3.95998      6.85894      1.11585         0.001897      0.000213     -0.017282
      1.31998      8.38311      3.54844         0.000152      0.000279      0.013111
      6.60001      5.33467      5.94779         0.002801      0.002518     -0.016001
      3.95998      6.85899      8.37983         0.002917      0.002517      0.019293
      5.27998      4.57263      1.11585         0.001377      0.001276     -0.019801
      2.64003      6.09675      3.54826        -0.002960      0.000975      0.012617
      5.27995      7.62105      5.94787         0.001782     -0.000859     -0.014509
      5.27992      4.57242      8.38014         0.002529      0.001230      0.021198
      1.84074      3.76129     11.34119        -0.001397     -0.000978      0.014128
      2.14772      3.08474     11.46103         0.000482     -0.000036      0.024620
 -----------------------------------------------------------------------------------
    total drift:                                0.000730     -0.000134      0.043736


--------------------------------------------------------------------------------------------------------



  FREE ENERGIE OF THE ION-ELECTRON SYSTEM (eV)
  ---------------------------------------------------
  free  energy   TOTEN  =      -411.95085144 eV

  energy  without entropy=     -411.92993777  energy(sigma->0) =     -411.94388021
 


--------------------------------------------------------------------------------------------------------


    POTLOK:  cpu time    0.4123: real time    0.4132


--------------------------------------------------------------------------------------------------------




--------------------------------------------------------------------------------------------------------


  
 reached required accuracy - stopping structural energy minimisation
     LOOP+:  cpu time 1556.4147: real time 1560.7485
    4ORBIT:  cpu time    0.0000: real time    0.0000

 total amount of memory used by VASP MPI-rank0   200767. kBytes
=======================================================================

   base      :      30000. kBytes
   nonlr-proj:      31109. kBytes
   fftplans  :      17093. kBytes
   grid      :      44247. kBytes
   one-center:        528. kBytes
   wavefun   :      77790. kBytes
 
  
  
 General timing and accounting informations for this job:
 ========================================================
  
                  Total CPU time used (sec):     1572.266
                            User time (sec):     1567.216
                          System time (sec):        5.050
                         Elapsed time (sec):     1577.471
  
                   Maximum memory used (kb):      557352.
                   Average memory used (kb):           0.
  
                          Minor page faults:       714967
                          Major page faults:            0
                 Voluntary context switches:         4240
