 vasp.5.4.4.18Apr17-6-g9f103f2a35 (build Nov 30 2020 22:55:02) complex          
  
 executed on             LinuxIFC date 2023.08.04  12:57:34
 running on   40 total cores
 distrk:  each k-point on   40 cores,    1 groups
 distr:  one band on NCORES_PER_BAND=   1 cores,   40 groups


--------------------------------------------------------------------------------------------------------


 INCAR:
 POTCAR:    PAW_PBE Pt 04Feb2005                  
 POTCAR:    PAW_PBE Cu 22Jun2005                  
 POTCAR:    PAW_PBE Ni 02Aug2007                  
 POTCAR:    PAW_PBE Fe 06Sep2000                  
 POTCAR:    PAW_PBE Co 02Aug2007                  
 POTCAR:    PAW_PBE H 15Jun2001                   

 ----------------------------------------------------------------------------- 
|                                                                             |
|           W    W    AA    RRRRR   N    N  II  N    N   GGGG   !!!           |
|           W    W   A  A   R    R  NN   N  II  NN   N  G    G  !!!           |
|           W    W  A    A  R    R  N N  N  II  N N  N  G       !!!           |
|           W WW W  AAAAAA  RRRRR   N  N N  II  N  N N  G  GGG   !            |
|           WW  WW  A    A  R   R   N   NN  II  N   NN  G    G                |
|           W    W  A    A  R    R  N    N  II  N    N   GGGG   !!!           |
|                                                                             |
|      For optimal performance we recommend to set                            |
|        NCORE= 4 - approx SQRT( number of cores)                             |
|      NCORE specifies how many cores store one orbital (NPAR=cpu/NCORE).     |
|      This setting can  greatly improve the performance of VASP for DFT.     |
|      The default,   NCORE=1            might be grossly inefficient         |
|      on modern multi-core architectures or massively parallel machines.     |
|      Do your own testing !!!!                                               |
|      Unfortunately you need to use the default for GW and RPA calculations. |
|      (for HF NCORE is supported but not extensively tested yet)             |
|                                                                             |
 ----------------------------------------------------------------------------- 

 POTCAR:    PAW_PBE Pt 04Feb2005                  
   VRHFIN =Pt: s1d9                                                             
   LEXCH  = PE                                                                  
   EATOM  =   729.1176 eV,   53.5886 Ry                                         
                                                                                
   TITEL  = PAW_PBE Pt 04Feb2005                                                
   LULTRA =        F    use ultrasoft PP ?                                      
   IUNSCR =        1    unscreen: 0-lin 1-nonlin 2-no                           
   RPACOR =    2.330    partial core radius                                     
   POMASS =  195.080; ZVAL   =   10.000    mass and valenz                      
   RCORE  =    2.600    outmost cutoff radius                                   
   RWIGS  =    2.750; RWIGS  =    1.455    wigner-seitz radius (au A)           
   ENMAX  =  230.283; ENMIN  =  172.712 eV                                      
   ICORE  =        3    local potential                                         
   LCOR   =        T    correct aug charges                                     
   LPAW   =        T    paw PP                                                  
   EAUG   =  358.966                                                            
   DEXC   =    0.000                                                            
   RMAX   =    2.658    core radius for proj-oper                               
   RAUG   =    1.300    factor for augmentation sphere                          
   RDEP   =    2.761    radius for radial grids                                 
   RDEPT  =    2.203    core radius for aug-charge                              
                                                                                
   Atomic configuration                                                         
   16 entries                                                                   
     n  l   j            E        occ.                                          
     1  0  0.50    -78401.1885   2.0000                                         
     2  0  0.50    -13770.7750   2.0000                                         
     2  1  1.50    -11931.0468   6.0000                                         
     3  0  0.50     -3234.7234   2.0000                                         
     3  1  1.50     -2699.2216   6.0000                                         
     3  2  2.50     -2119.5714  10.0000                                         
     4  0  0.50      -695.1528   2.0000                                         
     4  1  1.50      -519.6034   6.0000                                         
     4  2  2.50      -306.6786  10.0000                                         
     4  3  3.50       -70.1041  14.0000                                         
     5  0  0.50      -101.7747   2.0000                                         
     5  1  1.50       -55.9873   6.0000                                         
     5  2  2.50        -6.1423   9.0000                                         
     6  0  0.50        -5.6573   1.0000                                         
     6  1  1.50        -6.8029   0.0000                                         
     5  3  2.50        -1.3606   0.0000                                         
   Description                                                                  
     l       E           TYP  RCUT    TYP  RCUT                                 
     2     -6.1423404     23  2.500                                             
     2     -7.5029230     23  2.500                                             
     0     -5.6573207     23  2.500                                             
     0      0.7416693     23  2.500                                             
     1     -2.7211652     23  2.600                                             
     1     20.4087390     23  2.600                                             
     3     -1.3605826     23  2.500                                             
  local pseudopotential read in
  partial core-charges read in
  partial kinetic energy density read in
  atomic valenz-charges read in
  non local Contribution for L=           2  read in
    real space projection operators read in
  non local Contribution for L=           2  read in
    real space projection operators read in
  non local Contribution for L=           0  read in
    real space projection operators read in
  non local Contribution for L=           0  read in
    real space projection operators read in
  non local Contribution for L=           1  read in
    real space projection operators read in
  non local Contribution for L=           1  read in
    real space projection operators read in
    PAW grid and wavefunctions read in
 
   number of l-projection  operators is LMAX  =           6
   number of lm-projection operators is LMMAX =          18
 
 POTCAR:    PAW_PBE Cu 22Jun2005                  
   VRHFIN =Cu: d10 p1                                                           
   LEXCH  = PE                                                                  
   EATOM  =  1390.9808 eV,  102.2342 Ry                                         
                                                                                
   TITEL  = PAW_PBE Cu 22Jun2005                                                
   LULTRA =        F    use ultrasoft PP ?                                      
   IUNSCR =        1    unscreen: 0-lin 1-nonlin 2-no                           
   RPACOR =    2.000    partial core radius                                     
   POMASS =   63.546; ZVAL   =   11.000    mass and valenz                      
   RCORE  =    2.300    outmost cutoff radius                                   
   RWIGS  =    2.200; RWIGS  =    1.164    wigner-seitz radius (au A)           
   ENMAX  =  295.446; ENMIN  =  221.585 eV                                      
   ICORE  =        3    local potential                                         
   LCOR   =        T    correct aug charges                                     
   LPAW   =        T    paw PP                                                  
   EAUG   =  586.980                                                            
   DEXC   =    0.000                                                            
   RMAX   =    2.344    core radius for proj-oper                               
   RAUG   =    1.300    factor for augmentation sphere                          
   RDEP   =    2.302    radius for radial grids                                 
   RDEPT  =    1.771    core radius for aug-charge                              
                                                                                
   Atomic configuration                                                         
    9 entries                                                                   
     n  l   j            E        occ.                                          
     1  0  0.50     -8850.2468   2.0000                                         
     2  0  0.50     -1062.3498   2.0000                                         
     2  1  1.50      -916.8226   6.0000                                         
     3  0  0.50      -114.6929   2.0000                                         
     3  1  1.50       -72.1325   6.0000                                         
     3  2  2.50        -5.0394  10.0000                                         
     4  0  0.50        -4.6097   1.0000                                         
     4  1  0.50        -4.0817   0.0000                                         
     4  3  2.50        -1.3606   0.0000                                         
   Description                                                                  
     l       E           TYP  RCUT    TYP  RCUT                                 
     2     -5.0393973     23  2.200                                             
     2     10.8846608     23  2.200                                             
     0     -4.6097109     23  2.200                                             
     0      8.2520465     23  2.200                                             
     1     -2.7211652     23  2.200                                             
     1     21.7055443     23  2.200                                             
     3      2.7211652     23  2.300                                             
  local pseudopotential read in
  partial core-charges read in
  partial kinetic energy density read in
  atomic valenz-charges read in
  non local Contribution for L=           2  read in
    real space projection operators read in
  non local Contribution for L=           2  read in
    real space projection operators read in
  non local Contribution for L=           0  read in
    real space projection operators read in
  non local Contribution for L=           0  read in
    real space projection operators read in
  non local Contribution for L=           1  read in
    real space projection operators read in
  non local Contribution for L=           1  read in
    real space projection operators read in
    PAW grid and wavefunctions read in
 
   number of l-projection  operators is LMAX  =           6
   number of lm-projection operators is LMMAX =          18
 
 POTCAR:    PAW_PBE Ni 02Aug2007                  
   VRHFIN =Ni:                                                                  
   LEXCH  = PE                                                                  
   EATOM  =  1077.6739 eV,   79.2068 Ry                                         
                                                                                
   TITEL  = PAW_PBE Ni 02Aug2007                                                
   LULTRA =        F    use ultrasoft PP ?                                      
   IUNSCR =        1    unscreen: 0-lin 1-nonlin 2-no                           
   RPACOR =    2.000    partial core radius                                     
   POMASS =   58.690; ZVAL   =   10.000    mass and valenz                      
   RCORE  =    2.300    outmost cutoff radius                                   
   RWIGS  =    2.430; RWIGS  =    1.286    wigner-seitz radius (au A)           
   ENMAX  =  269.532; ENMIN  =  202.149 eV                                      
   RCLOC  =    1.201    cutoff for local pot                                    
   LCOR   =        T    correct aug charges                                     
   LPAW   =        T    paw PP                                                  
   EAUG   =  544.565                                                            
   DEXC   =    0.000                                                            
   RMAX   =    2.357    core radius for proj-oper                               
   RAUG   =    1.300    factor for augmentation sphere                          
   RDEP   =    2.390    radius for radial grids                                 
   RDEPT  =    1.838    core radius for aug-charge                              
                                                                                
   Atomic configuration                                                         
    9 entries                                                                   
     n  l   j            E        occ.                                          
     1  0  0.50     -8206.4253   2.0000                                         
     2  0  0.50      -976.1748   2.0000                                         
     2  1  1.50      -839.0571   6.0000                                         
     3  0  0.50      -105.9991   2.0000                                         
     3  1  1.50       -66.4603   6.0000                                         
     3  2  2.50        -4.6458   9.0000                                         
     4  0  0.50        -4.4926   1.0000                                         
     4  1  1.50        -4.0817   0.0000                                         
     4  3  2.50        -1.3606   0.0000                                         
   Description                                                                  
     l       E           TYP  RCUT    TYP  RCUT                                 
     2     -4.6457903     23  2.300                                             
     2     -6.0063729     23  2.300                                             
     0     -4.4925590     23  2.300                                             
     0      5.0102601     23  2.300                                             
     1     -2.7211652     23  2.300                                             
     1     16.5183231     23  2.300                                             
  local pseudopotential read in
  partial core-charges read in
  partial kinetic energy density read in
  atomic valenz-charges read in
  non local Contribution for L=           2  read in
    real space projection operators read in
  non local Contribution for L=           2  read in
    real space projection operators read in
  non local Contribution for L=           0  read in
    real space projection operators read in
  non local Contribution for L=           0  read in
    real space projection operators read in
  non local Contribution for L=           1  read in
    real space projection operators read in
  non local Contribution for L=           1  read in
    real space projection operators read in
    PAW grid and wavefunctions read in
 
   number of l-projection  operators is LMAX  =           6
   number of lm-projection operators is LMMAX =          18
 
 POTCAR:    PAW_PBE Fe 06Sep2000                  
   VRHFIN =Fe:  d7 s1                                                           
   LEXCH  = PE                                                                  
   EATOM  =   594.3153 eV,   43.6809 Ry                                         
                                                                                
   TITEL  = PAW_PBE Fe 06Sep2000                                                
   LULTRA =        F    use ultrasoft PP ?                                      
   IUNSCR =        1    unscreen: 0-lin 1-nonlin 2-no                           
   RPACOR =    2.000    partial core radius                                     
   POMASS =   55.847; ZVAL   =    8.000    mass and valenz                      
   RCORE  =    2.300    outmost cutoff radius                                   
   RWIGS  =    2.460; RWIGS  =    1.302    wigner-seitz radius (au A)           
   ENMAX  =  267.882; ENMIN  =  200.911 eV                                      
   RCLOC  =    1.701    cutoff for local pot                                    
   LCOR   =        T    correct aug charges                                     
   LPAW   =        T    paw PP                                                  
   EAUG   =  511.368                                                            
   DEXC   =    0.000                                                            
   RMAX   =    2.356    core radius for proj-oper                               
   RAUG   =    1.300    factor for augmentation sphere                          
   RDEP   =    2.442    radius for radial grids                                 
   RDEPT  =    1.890    core radius for aug-charge                              
                                                                                
   Atomic configuration                                                         
    9 entries                                                                   
     n  l   j            E        occ.                                          
     1  0  0.50     -6993.8440   2.0000                                         
     2  0  0.50      -814.6047   2.0000                                         
     2  1  1.50      -693.3689   6.0000                                         
     3  0  0.50       -89.4732   2.0000                                         
     3  1  1.50       -55.6373   6.0000                                         
     3  2  2.50        -3.8151   7.0000                                         
     4  0  0.50        -4.2551   1.0000                                         
     4  1  1.50        -3.4015   0.0000                                         
     4  3  2.50        -1.3606   0.0000                                         
   Description                                                                  
     l       E           TYP  RCUT    TYP  RCUT                                 
     2     -3.8151135     23  2.300                                             
     2     -5.1756961     23  2.300                                             
     0     -4.2550963     23  2.300                                             
     0      7.2035603     23  2.300                                             
     1     -2.7211652     23  2.300                                             
     1     18.4316424     23  2.300                                             
  local pseudopotential read in
  partial core-charges read in
  partial kinetic energy density read in
  atomic valenz-charges read in
  non local Contribution for L=           2  read in
    real space projection operators read in
  non local Contribution for L=           2  read in
    real space projection operators read in
  non local Contribution for L=           0  read in
    real space projection operators read in
  non local Contribution for L=           0  read in
    real space projection operators read in
  non local Contribution for L=           1  read in
    real space projection operators read in
  non local Contribution for L=           1  read in
    real space projection operators read in
    PAW grid and wavefunctions read in
 
   number of l-projection  operators is LMAX  =           6
   number of lm-projection operators is LMMAX =          18
 
 POTCAR:    PAW_PBE Co 02Aug2007                  
   VRHFIN =Co: d8 s1                                                            
   LEXCH  = PE                                                                  
   EATOM  =   813.3670 eV,   59.7808 Ry                                         
                                                                                
   TITEL  = PAW_PBE Co 02Aug2007                                                
   LULTRA =        F    use ultrasoft PP ?                                      
   IUNSCR =        1    unscreen: 0-lin 1-nonlin 2-no                           
   RPACOR =    2.000    partial core radius                                     
   POMASS =   58.933; ZVAL   =    9.000    mass and valenz                      
   RCORE  =    2.300    outmost cutoff radius                                   
   RWIGS  =    2.460; RWIGS  =    1.302    wigner-seitz radius (au A)           
   ENMAX  =  267.968; ENMIN  =  200.976 eV                                      
   RCLOC  =    1.203    cutoff for local pot                                    
   LCOR   =        T    correct aug charges                                     
   LPAW   =        T    paw PP                                                  
   EAUG   =  477.818                                                            
   DEXC   =    0.000                                                            
   RMAX   =    2.360    core radius for proj-oper                               
   RAUG   =    1.300    factor for augmentation sphere                          
   RDEP   =    2.393    radius for radial grids                                 
   RDEPT  =    1.864    core radius for aug-charge                              
                                                                                
   Atomic configuration                                                         
    9 entries                                                                   
     n  l   j            E        occ.                                          
     1  0  0.50     -7587.6674   2.0000                                         
     2  0  0.50      -893.6084   2.0000                                         
     2  1  1.50      -764.5805   6.0000                                         
     3  0  0.50       -97.5973   2.0000                                         
     3  1  1.50       -60.9648   6.0000                                         
     3  2  2.50        -4.2382   8.0000                                         
     4  0  0.50        -4.3746   1.0000                                         
     4  1  1.50        -4.0817   0.0000                                         
     4  3  2.50        -1.3606   0.0000                                         
   Description                                                                  
     l       E           TYP  RCUT    TYP  RCUT                                 
     2     -4.2382362     23  2.300                                             
     2     -5.5988188     23  2.300                                             
     0     -4.3745797     23  2.300                                             
     0      5.7660125     23  2.300                                             
     1     -2.7211652     23  2.300                                             
     1     16.9860234     23  2.300                                             
  local pseudopotential read in
  partial core-charges read in
  partial kinetic energy density read in
  atomic valenz-charges read in
  non local Contribution for L=           2  read in
    real space projection operators read in
  non local Contribution for L=           2  read in
    real space projection operators read in
  non local Contribution for L=           0  read in
    real space projection operators read in
  non local Contribution for L=           0  read in
    real space projection operators read in
  non local Contribution for L=           1  read in
    real space projection operators read in
  non local Contribution for L=           1  read in
    real space projection operators read in
    PAW grid and wavefunctions read in
 
   number of l-projection  operators is LMAX  =           6
   number of lm-projection operators is LMMAX =          18
 
 POTCAR:    PAW_PBE H 15Jun2001                   
   VRHFIN =H: ultrasoft test                                                    
   LEXCH  = PE                                                                  
   EATOM  =    12.4884 eV,    0.9179 Ry                                         
                                                                                
   TITEL  = PAW_PBE H 15Jun2001                                                 
   LULTRA =        F    use ultrasoft PP ?                                      
   IUNSCR =        0    unscreen: 0-lin 1-nonlin 2-no                           
   RPACOR =    0.000    partial core radius                                     
   POMASS =    1.000; ZVAL   =    1.000    mass and valenz                      
   RCORE  =    1.100    outmost cutoff radius                                   
   RWIGS  =    0.700; RWIGS  =    0.370    wigner-seitz radius (au A)           
   ENMAX  =  250.000; ENMIN  =  200.000 eV                                      
   RCLOC  =    0.701    cutoff for local pot                                    
   LCOR   =        T    correct aug charges                                     
   LPAW   =        T    paw PP                                                  
   EAUG   =  400.000                                                            
   RMAX   =    1.123    core radius for proj-oper                               
   RAUG   =    1.200    factor for augmentation sphere                          
   RDEP   =    1.112    radius for radial grids                                 
   RDEPT  =    0.926    core radius for aug-charge                              
                                                                                
   Atomic configuration                                                         
    2 entries                                                                   
     n  l   j            E        occ.                                          
     1  0  0.50        -6.4927   1.0000                                         
     2  1  0.50        -3.4015   0.0000                                         
   Description                                                                  
     l       E           TYP  RCUT    TYP  RCUT                                 
     0     -6.4927494     23  1.100                                             
     0      6.8029130     23  1.100                                             
     1     -4.0817478     23  1.100                                             
  local pseudopotential read in
  atomic valenz-charges read in
  non local Contribution for L=           0  read in
    real space projection operators read in
  non local Contribution for L=           0  read in
    real space projection operators read in
  non local Contribution for L=           1  read in
    real space projection operators read in
    PAW grid and wavefunctions read in
 
   number of l-projection  operators is LMAX  =           3
   number of lm-projection operators is LMMAX =           5
 
 Optimization of the real space projectors (new method)

 maximal supplied QI-value         = 14.36
 optimisation between [QCUT,QGAM] = [ 11.92, 23.98] = [ 39.79,161.09] Ry 
 Optimized for a Real-space Cutoff    1.49 Angstroem

   l    n(q)    QCUT    max X(q) W(low)/X(q) W(high)/X(q)  e(spline) 
   2     10    11.920    66.195    0.79E-04    0.18E-03    0.24E-06
   2     10    11.920    64.643    0.81E-04    0.19E-03    0.24E-06
   0     11    11.920    95.520    0.28E-04    0.54E-04    0.18E-06
   0     11    11.920    63.403    0.27E-04    0.52E-04    0.17E-06
   1     10    11.920    19.961    0.18E-04    0.11E-03    0.23E-06
   1     10    11.920    13.289    0.25E-04    0.87E-04    0.19E-06
 Optimization of the real space projectors (new method)

 maximal supplied QI-value         = 16.25
 optimisation between [QCUT,QGAM] = [ 11.86, 23.89] = [ 39.41,159.82] Ry 
 Optimized for a Real-space Cutoff    1.49 Angstroem

   l    n(q)    QCUT    max X(q) W(low)/X(q) W(high)/X(q)  e(spline) 
   2     10    11.864     4.610    0.10E-03    0.20E-03    0.29E-06
   2     10    11.864     8.522    0.17E-03    0.33E-03    0.50E-06
   0     11    11.864    51.609    0.52E-04    0.55E-04    0.33E-06
   0     11    11.864    27.747    0.46E-04    0.52E-04    0.31E-06
   1     10    11.864    20.408    0.54E-04    0.25E-04    0.21E-06
   1     10    11.864    13.425    0.48E-04    0.22E-04    0.18E-06
 Optimization of the real space projectors (new method)

 maximal supplied QI-value         = 16.25
 optimisation between [QCUT,QGAM] = [ 11.86, 23.89] = [ 39.41,159.82] Ry 
 Optimized for a Real-space Cutoff    1.33 Angstroem

   l    n(q)    QCUT    max X(q) W(low)/X(q) W(high)/X(q)  e(spline) 
   2      9    11.864    60.317    0.21E-03    0.51E-03    0.25E-06
   2      9    11.864    55.921    0.21E-03    0.51E-03    0.26E-06
   0      9    11.864    51.690    0.22E-03    0.30E-04    0.17E-06
   0      9    11.864    30.015    0.20E-03    0.28E-04    0.15E-06
   1      9    11.864    18.849    0.76E-04    0.33E-03    0.17E-06
   1      9    11.864    14.624    0.60E-04    0.28E-03    0.15E-06
 Optimization of the real space projectors (new method)

 maximal supplied QI-value         = 16.25
 optimisation between [QCUT,QGAM] = [ 11.86, 23.89] = [ 39.41,159.82] Ry 
 Optimized for a Real-space Cutoff    1.49 Angstroem

   l    n(q)    QCUT    max X(q) W(low)/X(q) W(high)/X(q)  e(spline) 
   2     10    11.864    80.901    0.13E-03    0.23E-03    0.37E-06
   2     10    11.864    75.754    0.13E-03    0.23E-03    0.38E-06
   0     11    11.864    58.752    0.44E-04    0.11E-04    0.20E-06
   0     11    11.864    30.679    0.36E-04    0.10E-04    0.18E-06
   1     10    11.864    17.977    0.31E-04    0.45E-04    0.10E-06
   1     10    11.864    13.559    0.25E-04    0.37E-04    0.89E-07
 Optimization of the real space projectors (new method)

 maximal supplied QI-value         = 16.25
 optimisation between [QCUT,QGAM] = [ 11.86, 23.89] = [ 39.41,159.82] Ry 
 Optimized for a Real-space Cutoff    1.33 Angstroem

   l    n(q)    QCUT    max X(q) W(low)/X(q) W(high)/X(q)  e(spline) 
   2      9    11.864    65.824    0.22E-03    0.53E-03    0.26E-06
   2      9    11.864    61.429    0.22E-03    0.53E-03    0.26E-06
   0      9    11.864    56.174    0.21E-03    0.32E-04    0.15E-06
   0      9    11.864    31.263    0.19E-03    0.30E-04    0.14E-06
   1      9    11.864    19.828    0.63E-04    0.30E-03    0.16E-06
   1      9    11.864    15.139    0.49E-04    0.25E-03    0.13E-06
 Optimization of the real space projectors (new method)

 maximal supplied QI-value         = 34.20
 optimisation between [QCUT,QGAM] = [ 11.97, 23.94] = [ 40.13,160.53] Ry 
 Optimized for a Real-space Cutoff    1.18 Angstroem

   l    n(q)    QCUT    max X(q) W(low)/X(q) W(high)/X(q)  e(spline) 
   0      8    11.971    19.460    0.15E-03    0.31E-03    0.25E-06
   0      8    11.971    12.209    0.13E-03    0.29E-03    0.25E-06
   1      8    11.971     4.655    0.22E-03    0.24E-03    0.21E-06
  PAW_PBE Pt 04Feb2005                  :
 energy of atom  1       EATOM= -729.1176
 kinetic energy error for atom=    0.0021 (will be added to EATOM!!)
  PAW_PBE Cu 22Jun2005                  :
 energy of atom  2       EATOM=-1390.9808
 kinetic energy error for atom=    0.0036 (will be added to EATOM!!)
  PAW_PBE Ni 02Aug2007                  :
 energy of atom  3       EATOM=-1077.6739
 kinetic energy error for atom=    0.0027 (will be added to EATOM!!)
  PAW_PBE Fe 06Sep2000                  :
 energy of atom  4       EATOM= -594.3153
 kinetic energy error for atom=    0.0024 (will be added to EATOM!!)
  PAW_PBE Co 02Aug2007                  :
 energy of atom  5       EATOM= -813.3670
 kinetic energy error for atom=    0.0026 (will be added to EATOM!!)
  PAW_PBE H 15Jun2001                   :
 energy of atom  6       EATOM=  -12.4884
 kinetic energy error for atom=    0.0008 (will be added to EATOM!!)
 
 
 POSCAR: Pt   Cu   Ni   Fe   Co   H              
  positions in cartesian coordinates
  No initial velocities read in
 exchange correlation table for  LEXCH =        8
   RHO(1)=    0.500       N(1)  =     2000
   RHO(2)=  100.500       N(2)  =     4000
 


--------------------------------------------------------------------------------------------------------


 ion  position               nearest neighbor table
   1  0.790  0.876  0.317-  49 2.56  59 2.57  19 2.62  33 2.65  61 2.66  29 2.67  60 2.67  28 2.70
                             2 2.72   4 2.83  12 2.88  11 2.90
   2  0.045  0.881  0.316-  79 2.55  77 2.56  60 2.61  30 2.64  22 2.66  28 2.66  52 2.68   1 2.72
                            33 2.73   6 2.77   4 2.81  16 2.89
   3  0.288  0.378  0.320-  64 2.57  39 2.60  33 2.61  68 2.63  31 2.65  19 2.68  43 2.70  30 2.71
                             5 2.77  18 2.78  13 2.82  25 2.82
   4  0.880  0.958  0.423-  16 2.64   9 2.64  17 2.64   6 2.64  12 2.66  11 2.66  60 2.69   2 2.81
                             1 2.83
   5  0.128  0.457  0.427-  12 2.60  13 2.62   7 2.63  10 2.63  25 2.65  16 2.65   3 2.77  39 2.79
                            33 2.79
   6  0.130  0.958  0.422-   8 2.62  14 2.63  10 2.63   4 2.64  16 2.65   9 2.66   2 2.77  52 2.81
                            22 2.89
   7  0.880  0.455  0.422-   9 2.62  10 2.62   5 2.63  15 2.63  12 2.65  27 2.67  39 2.68  29 2.74
                            75 2.75
   8  0.378  0.958  0.418-   6 2.62  43 2.63  14 2.63  10 2.63  13 2.65  61 2.65  11 2.65  27 2.65
                            52 2.67
   9  0.878  0.209  0.422-   7 2.62  15 2.63  17 2.64   4 2.64  10 2.65  60 2.65   6 2.66  75 2.71
                            22 2.82
  10  0.129  0.207  0.423-  13 2.62   7 2.62   6 2.63   5 2.63   8 2.63   9 2.65  43 2.73  39 2.76
                            22 2.83
  11  0.626  0.961  0.429-  81 1.76  17 2.62  13 2.62   8 2.65   4 2.66  27 2.69  12 2.71  19 2.89
                             1 2.90  61 2.92
  12  0.883  0.705  0.426-  81 2.12   5 2.60  16 2.62   7 2.65   4 2.66  27 2.70  11 2.71  33 2.73
                            29 2.84   1 2.88
  13  0.377  0.208  0.427-  10 2.62  11 2.62   5 2.62   8 2.65  25 2.66  17 2.66   3 2.82  43 2.84
                            19 2.86
  14  0.379  0.709  0.426-  27 2.61   8 2.63   6 2.63  25 2.64  16 2.64  15 2.65  44 2.72  30 2.78
                            52 2.86
  15  0.630  0.458  0.424-  27 2.60   9 2.63   7 2.63  14 2.65  17 2.65  25 2.65  44 2.74  75 2.77
                            18 2.77
  16  0.129  0.708  0.426-  12 2.62  25 2.63   4 2.64  14 2.64   6 2.65   5 2.65  30 2.79  33 2.79
                             2 2.89
  17  0.629  0.208  0.425-  11 2.62   9 2.64   4 2.64  15 2.65  25 2.65  13 2.66  60 2.71  18 2.78
                            19 2.89
  18  0.555  0.370  0.318-  67 2.53  75 2.55  60 2.56  68 2.61  26 2.68  44 2.68  19 2.72  30 2.76
                            15 2.77   3 2.78  17 2.78  25 2.89
  19  0.539  0.121  0.316-  59 2.55  80 2.56  68 2.57  43 2.60  61 2.61   1 2.62   3 2.68  18 2.72
                            60 2.74  13 2.86  17 2.89  11 2.89
  20  0.547  0.122  0.038-  57 2.54  37 2.59  48 2.60  62 2.60  47 2.60  34 2.65  45 2.68  63 2.71
                            56 2.75
  21  0.124  0.462  0.127-  36 2.55  47 2.57  40 2.58  58 2.61  42 2.61  64 2.63  31 2.66  69 2.66
                            50 2.67  74 2.69  70 2.69  57 2.69
  22  0.041  0.135  0.313-  65 2.47  55 2.54  75 2.54  77 2.58  43 2.59  39 2.60  60 2.65   2 2.66
                            52 2.74   9 2.82  10 2.83   6 2.89
  23  0.032  0.135  0.034-  70 2.57  62 2.59  40 2.59  41 2.60  76 2.63  45 2.70  24 2.70  35 2.71
                            53 2.86
  24  0.127  0.955  0.132-  79 2.52  55 2.55  53 2.61  35 2.62  77 2.62  58 2.62  73 2.64  70 2.65
                            38 2.67  66 2.68  23 2.70  41 2.74
  25  0.378  0.459  0.426-  16 2.63  14 2.64   5 2.65  17 2.65  15 2.65  13 2.66   3 2.82  30 2.83
                            18 2.89
  26  0.458  0.546  0.220-  73 2.50  74 2.51  51 2.53  79 2.60  64 2.61  30 2.65  68 2.66  18 2.68
                            32 2.69  78 2.71  44 2.72  67 2.74
  27  0.627  0.706  0.430-  81 1.80  15 2.60  14 2.61   8 2.65   7 2.67  11 2.69  12 2.70  44 2.79
                            29 2.83  61 2.89
  28  0.964  0.793  0.218-  66 2.54  50 2.56  58 2.58  77 2.63  42 2.64  64 2.65   2 2.66  79 2.68
                             1 2.70  59 2.70  33 2.75  49 2.75
  29  0.788  0.624  0.320-  44 2.58  42 2.61  32 2.62  61 2.62  39 2.63  75 2.64  49 2.66   1 2.67
                            33 2.67   7 2.74  27 2.83  12 2.84
  30  0.294  0.631  0.319-  79 2.56  44 2.61  64 2.61  52 2.62   2 2.64  26 2.65  33 2.71   3 2.71
                            18 2.76  14 2.78  16 2.79  25 2.83
  31  0.211  0.284  0.223-  57 2.55  70 2.55  65 2.59  43 2.60  55 2.61  80 2.64   3 2.65  21 2.66
                            39 2.66  68 2.67  42 2.71  64 2.72
  32  0.717  0.537  0.221-  69 2.51  54 2.56  51 2.57  65 2.60  42 2.61  29 2.62  67 2.64  75 2.64
                            49 2.68  26 2.69  44 2.76  78 2.78
  33  0.041  0.625  0.321-  42 2.58  39 2.58   3 2.61  64 2.64   1 2.65  29 2.67  30 2.71  12 2.73
                             2 2.73  28 2.75  16 2.79   5 2.79
  34  0.797  0.870  0.037-  50 2.48  66 2.50  36 2.54  48 2.61  35 2.62  63 2.64  71 2.65  20 2.65
                            62 2.72
  35  0.044  0.872  0.035-  58 2.56  36 2.57  66 2.61  24 2.62  34 2.62  72 2.70  23 2.71  62 2.72
                            53 2.74
  36  0.039  0.631  0.035-  58 2.54  34 2.54  21 2.55  35 2.57  50 2.59  40 2.68  71 2.72  72 2.76
                            47 2.78
  37  0.626  0.214  0.133-  68 2.52  59 2.52  67 2.52  41 2.56  51 2.57  56 2.58  66 2.59  20 2.59
                            74 2.60  62 2.60  57 2.64  48 2.76
  38  0.376  0.961  0.131-  80 2.47  53 2.51  55 2.53  78 2.53  63 2.53  45 2.55  54 2.58  48 2.61
                            57 2.62  24 2.67  70 2.69  73 2.69
  39  0.041  0.380  0.320-  33 2.58  42 2.59  22 2.60   3 2.60  29 2.63  75 2.63  31 2.66  65 2.66
                             7 2.68  43 2.71  10 2.76   5 2.79
  40  0.040  0.377  0.033-  69 2.55  21 2.58  23 2.59  76 2.61  70 2.61  45 2.66  71 2.67  36 2.68
                            47 2.81
  41  0.868  0.215  0.131-  67 2.47  65 2.53  76 2.53  77 2.53  37 2.56  51 2.56  62 2.57  69 2.59
                            23 2.60  70 2.61  66 2.63  24 2.74
  42  0.960  0.545  0.225-  33 2.58  39 2.59  50 2.61  32 2.61  29 2.61  21 2.61  28 2.64  64 2.65
                            69 2.68  65 2.69  49 2.70  31 2.71
  43  0.293  0.120  0.319-  52 2.54  55 2.57  22 2.59  19 2.60  31 2.60  61 2.61   8 2.63  80 2.64
                             3 2.70  39 2.71  10 2.73  13 2.84
  44  0.541  0.631  0.322-  61 2.55  52 2.56  29 2.58  30 2.61  78 2.65  18 2.68  14 2.72  26 2.72
                            75 2.73  15 2.74  32 2.76  27 2.79
  45  0.292  0.126  0.037-  38 2.55  57 2.57  70 2.59  40 2.66  53 2.66  20 2.68  23 2.70  47 2.70
                            63 2.74
  46  0.545  0.626  0.042-  73 2.43  51 2.44  54 2.47  71 2.53  53 2.54  76 2.54  63 2.55  72 2.56
                            56 2.56
  47  0.307  0.374  0.039-  74 2.45  57 2.52  56 2.54  21 2.57  20 2.60  72 2.62  45 2.70  36 2.78
                            40 2.81
  48  0.628  0.952  0.133-  49 2.43  80 2.48  59 2.50  63 2.52  50 2.54  54 2.54  20 2.60  34 2.61
                            66 2.61  38 2.61  57 2.66  37 2.76
  49  0.701  0.798  0.223-  48 2.43  54 2.51  80 2.51  78 2.56   1 2.56  61 2.57  50 2.57  59 2.60
                            29 2.66  32 2.68  42 2.70  28 2.75
  50  0.866  0.710  0.128-  71 2.42  34 2.48  48 2.54  28 2.56  49 2.57  54 2.58  36 2.59  42 2.61
                            69 2.64  21 2.67  66 2.71  58 2.84
  51  0.625  0.458  0.128-  56 2.42  76 2.43  46 2.44  26 2.53  41 2.56  37 2.57  32 2.57  74 2.58
                            73 2.62  69 2.63  67 2.64  54 2.70
  52  0.301  0.876  0.316-  78 2.46  55 2.49  61 2.51  79 2.51  43 2.54  44 2.56  30 2.62   8 2.67
                             2 2.68  22 2.74   6 2.81  14 2.86
  53  0.306  0.867  0.039-  73 2.44  38 2.51  46 2.54  63 2.56  72 2.59  24 2.61  45 2.66  35 2.74
                            23 2.86
  54  0.619  0.716  0.132-  63 2.41  71 2.47  46 2.47  49 2.51  78 2.53  48 2.54  32 2.56  38 2.58
                            50 2.58  73 2.61  51 2.70  69 2.72
  55  0.216  0.035  0.224-  52 2.49  78 2.50  79 2.52  38 2.53  22 2.54  24 2.55  43 2.57  80 2.59
                            31 2.61  70 2.62  65 2.68  77 2.79
  56  0.541  0.385  0.039-  51 2.42  74 2.47  72 2.50  47 2.54  46 2.56  37 2.58  76 2.61  62 2.65
                            20 2.75
  57  0.379  0.208  0.130-  47 2.52  20 2.54  31 2.55  68 2.55  80 2.56  45 2.57  38 2.62  37 2.64
                            74 2.66  48 2.66  21 2.69  70 2.75
  58  0.140  0.700  0.126-  72 2.40  74 2.53  36 2.54  73 2.54  35 2.56  28 2.58  21 2.61  64 2.62
                            24 2.62  79 2.68  50 2.84  66 2.84
  59  0.703  0.043  0.222-  48 2.50  37 2.52  19 2.55  66 2.57   1 2.57  77 2.58  49 2.60  80 2.61
                            68 2.61  67 2.65  28 2.70  60 2.73
  60  0.795  0.126  0.323-  18 2.56  77 2.58  75 2.59   2 2.61  67 2.62  22 2.65   9 2.65   1 2.67
                             4 2.69  17 2.71  59 2.73  19 2.74
  61  0.540  0.873  0.318-  78 2.49  52 2.51  44 2.55  49 2.57  80 2.58  43 2.61  19 2.61  29 2.62
                             8 2.65   1 2.66  27 2.89  11 2.92
  62  0.789  0.132  0.036-  66 2.52  41 2.57  23 2.59  20 2.60  37 2.60  56 2.65  76 2.70  35 2.72
                            34 2.72
  63  0.550  0.865  0.041-  54 2.41  71 2.50  48 2.52  38 2.53  46 2.55  53 2.56  34 2.64  20 2.71
                            45 2.74
  64  0.213  0.540  0.225-   3 2.57  74 2.59  68 2.60  30 2.61  26 2.61  58 2.62  21 2.63  33 2.64
                            42 2.65  28 2.65  79 2.71  31 2.72
  65  0.963  0.290  0.222-  70 2.46  22 2.47  41 2.53  69 2.59  31 2.59  32 2.60  67 2.61  75 2.62
                            77 2.63  39 2.66  55 2.68  42 2.69
  66  0.867  0.966  0.127-  34 2.50  62 2.52  28 2.54  59 2.57  77 2.58  37 2.59  35 2.61  48 2.61
                            41 2.63  24 2.68  50 2.71  58 2.84
  67  0.718  0.287  0.225-  77 2.44  41 2.47  37 2.52  18 2.53  75 2.55  65 2.61  60 2.62  51 2.64
                            32 2.64  59 2.65  68 2.70  26 2.74
  68  0.459  0.293  0.224-  37 2.52  57 2.55  19 2.57  74 2.58  64 2.60  18 2.61  59 2.61   3 2.63
                            26 2.66  31 2.67  67 2.70  80 2.73
  69  0.874  0.457  0.127-  76 2.36  71 2.40  32 2.51  40 2.55  65 2.59  70 2.59  41 2.59  51 2.63
                            50 2.64  21 2.66  42 2.68  54 2.72
  70  0.117  0.210  0.130-  65 2.46  31 2.55  23 2.57  69 2.59  45 2.59  41 2.61  40 2.61  55 2.62
                            24 2.65  38 2.69  21 2.69  57 2.75
  71  0.785  0.626  0.043-  69 2.40  50 2.42  54 2.47  76 2.50  63 2.50  46 2.53  34 2.65  40 2.67
                            36 2.72
  72  0.304  0.623  0.041-  73 2.38  58 2.40  74 2.44  56 2.50  46 2.56  53 2.59  47 2.62  35 2.70
                            36 2.76
  73  0.377  0.706  0.128-  72 2.38  46 2.43  53 2.44  26 2.50  58 2.54  74 2.59  79 2.60  54 2.61
                            51 2.62  24 2.64  78 2.68  38 2.69
  74  0.379  0.460  0.129-  72 2.44  47 2.45  56 2.47  26 2.51  58 2.53  51 2.58  68 2.58  73 2.59
                            64 2.59  37 2.60  57 2.66  21 2.69
  75  0.797  0.370  0.319-  22 2.54  18 2.55  67 2.55  60 2.59  65 2.62  39 2.63  29 2.64  32 2.64
                             9 2.71  44 2.73   7 2.75  15 2.77
  76  0.788  0.388  0.041-  69 2.36  51 2.43  71 2.50  41 2.53  46 2.54  40 2.61  56 2.61  23 2.63
                            62 2.70
  77  0.944  0.051  0.223-  67 2.44  41 2.53   2 2.56  60 2.58  66 2.58  22 2.58  59 2.58  24 2.62
                            65 2.63  28 2.63  55 2.79  79 2.79
  78  0.457  0.803  0.225-  52 2.46  80 2.47  61 2.49  55 2.50  38 2.53  54 2.53  49 2.56  79 2.58
                            44 2.65  73 2.68  26 2.71  32 2.78
  79  0.216  0.795  0.225-  52 2.51  24 2.52  55 2.52   2 2.55  30 2.56  78 2.58  73 2.60  26 2.60
                            58 2.68  28 2.68  64 2.71  77 2.79
  80  0.461  0.034  0.222-  78 2.47  38 2.47  48 2.48  49 2.51  57 2.56  19 2.56  61 2.58  55 2.59
                            59 2.61  31 2.64  43 2.64  68 2.73
  81  0.685  0.808  0.477-  11 1.76  27 1.80  12 2.12
 
  LATTYP: Found a hexagonal cell.
 ALAT       =    10.5600004196
 C/A-ratio  =     2.0833332505
  
  Lattice vectors:
  
 A1 = (   5.2800002098,  -9.1452286274,   0.0000000000)
 A2 = ( -10.5600004196,   0.0000000000,   0.0000000000)
 A3 = (   0.0000000000,   0.0000000000, -22.0000000000)


Analysis of symmetry for initial positions (statically):
=====================================================================
 Subroutine PRICEL returns:
 Original cell was already a primitive cell.
 

 Routine SETGRP: Setting up the symmetry group for a 
 hexagonal supercell.


 Subroutine GETGRP returns: Found  1 space group operations
 (whereof  1 operations were pure point group operations)
 out of a pool of 24 trial point group operations.


The static configuration has the point symmetry C_1 .


Analysis of symmetry for dynamics (positions and initial velocities):
=====================================================================
 Subroutine PRICEL returns:
 Original cell was already a primitive cell.
 

 Routine SETGRP: Setting up the symmetry group for a 
 hexagonal supercell.


 Subroutine GETGRP returns: Found  1 space group operations
 (whereof  1 operations were pure point group operations)
 out of a pool of 24 trial point group operations.


The dynamic configuration has the point symmetry C_1 .


Analysis of constrained symmetry for selective dynamics:
=====================================================================
 Subroutine PRICEL returns:
 Original cell was already a primitive cell.
 

 Routine SETGRP: Setting up the symmetry group for a 
 hexagonal supercell.


 Subroutine GETGRP returns: Found  1 space group operations
 (whereof  1 operations were pure point group operations)
 out of a pool of 24 trial point group operations.


The constrained configuration has the point symmetry C_1 .


Analysis of structural, dynamic, and magnetic symmetry:
=====================================================================
 Subroutine PRICEL returns:
 Original cell was already a primitive cell.
 

 Routine SETGRP: Setting up the symmetry group for a 
 hexagonal supercell.


 Subroutine GETGRP returns: Found  1 space group operations
 (whereof  1 operations were pure point group operations)
 out of a pool of 24 trial point group operations.


The magnetic configuration has the point symmetry C_1 .


 Subroutine INISYM returns: Found  1 space group operations
 (whereof  1 operations are pure point group operations),
 and found     1 'primitive' translations

 
 
 KPOINTS: mesh auto                               

Automatic generation of k-mesh.
Space group operators:
 irot       det(A)        alpha          n_x          n_y          n_z        tau_x        tau_y        tau_z
    1     1.000000     0.000001     1.000000     0.000000     0.000000     0.000000     0.000000     0.000000
 
 Subroutine IBZKPT returns following result:
 ===========================================
 
 Found      4 irreducible k-points:
 
 Following reciprocal coordinates:
            Coordinates               Weight
  0.000000  0.000000  0.000000      1.000000
  0.500000  0.000000  0.000000      1.000000
  0.000000  0.500000  0.000000      1.000000
  0.500000  0.500000  0.000000      1.000000
 
 Following cartesian coordinates:
            Coordinates               Weight
  0.000000  0.000000  0.000000      1.000000
  0.047348 -0.027337  0.000000      1.000000
  0.000000  0.054673  0.000000      1.000000
  0.047348  0.027337  0.000000      1.000000
 
 TETIRR: Found     12 inequivalent tetrahedra from       24
 
 Subroutine IBZKPT_HF returns following result:
 ==============================================
 
 Found      4 k-points in 1st BZ
 the following      4 k-points will be used (e.g. in the exchange kernel)
 Following reciprocal coordinates:   # in IRBZ
  0.000000  0.000000  0.000000    0.25000000   1 t-inv F
  0.500000  0.000000  0.000000    0.25000000   2 t-inv F
  0.000000  0.500000  0.000000    0.25000000   3 t-inv F
  0.500000  0.500000  0.000000    0.25000000   4 t-inv F


--------------------------------------------------------------------------------------------------------




 Dimension of arrays:
   k-points           NKPTS =      4   k-points in BZ     NKDIM =      4   number of bands    NBANDS=    520
   number of dos      NEDOS =    301   number of ions     NIONS =     81
   non local maximal  LDIM  =      6   non local SUM 2l+1 LMDIM =     18
   total plane-waves  NPLWV = ******
   max r-space proj   IRMAX =   7802   max aug-charges    IRDMAX=  33988
   dimension x,y,z NGX =    84 NGY =   84 NGZ =  168
   dimension x,y,z NGXF=   168 NGYF=  168 NGZF=  336
   support grid    NGXF=   168 NGYF=  168 NGZF=  336
   ions per type =              32  13  10  13  12   1
   NGX,Y,Z   is equivalent  to a cutoff of  13.22, 13.22, 12.70 a.u.
   NGXF,Y,Z  is equivalent  to a cutoff of  26.45, 26.45, 25.39 a.u.

 SYSTEM =  Pt111                                   
 POSCAR =  Pt   Cu   Ni   Fe   Co   H              

 Startparameter for this run:
   NWRITE =      2    write-flag & timer
   PREC   = accura    normal or accurate (medium, high low for compatibility)
   ISTART =      0    job   : 0-new  1-cont  2-samecut
   ICHARG =      2    charge: 1-file 2-atom 10-const
   ISPIN  =      2    spin polarized calculation?
   LNONCOLLINEAR =      F non collinear calculations
   LSORBIT =      F    spin-orbit coupling
   INIWAV =      1    electr: 0-lowe 1-rand  2-diag
   LASPH  =      F    aspherical Exc in radial PAW
   METAGGA=      F    non-selfconsistent MetaGGA calc.

 Electronic Relaxation 1
   ENCUT  =  550.0 eV  40.42 Ry    6.36 a.u.  20.19 20.19 42.07*2*pi/ulx,y,z
   ENINI  =  550.0     initial cutoff
   ENAUG  =  587.0 eV  augmentation charge cutoff
   NELM   =    200;   NELMIN=  2; NELMDL= -5     # of ELM steps 
   EDIFF  = 0.1E-04   stopping-criterion for ELM
   LREAL  =      T    real-space projection
   NLSPLINE    = F    spline interpolate recip. space projectors
   LCOMPAT=      F    compatible to vasp.4.4
   GGA_COMPAT  = T    GGA compatible to vasp.4.4-vasp.4.6
   LMAXPAW     = -100 max onsite density
   LMAXMIX     =    2 max onsite mixed and CHGCAR
   VOSKOWN=      0    Vosko Wilk Nusair interpolation
   ROPT   =   -0.00025  -0.00025  -0.00025  -0.00025
   ROPT   =   -0.00025  -0.00025
 Ionic relaxation
   EDIFFG = -.5E-01   stopping-criterion for IOM
   NSW    =   1009    number of steps for IOM
   NBLOCK =      1;   KBLOCK =   1009    inner block; outer block 
   IBRION =      5    ionic relax: 0-MD 1-quasi-New 2-CG
   NFREE  =      2    steps in history (QN), initial steepest desc. (CG)
   ISIF   =      2    stress and relaxation
   IWAVPR =     11    prediction:  0-non 1-charg 2-wave 3-comb
   ISYM   =      2    0-nonsym 1-usesym 2-fastsym
   LCORR  =      T    Harris-Foulkes like correction to forces

   POTIM  = 0.5000    time-step for ionic-motion
   TEIN   =    0.0    initial temperature
   TEBEG  =    0.0;   TEEND  =   0.0 temperature during run
   SMASS  =  -3.00    Nose mass-parameter (am)
   estimated Nose-frequenzy (Omega)   =  0.10E-29 period in steps =****** mass=  -0.255E-26a.u.
   SCALEE = 1.0000    scale energy and forces
   NPACO  =    256;   APACO  = 16.0  distance and # of slots for P.C.
   PSTRESS=    0.0 pullay stress

  Mass of Ions in am
   POMASS = 195.08 63.55 58.69 55.85 58.93  1.00
  Ionic Valenz
   ZVAL   =  10.00 11.00 10.00  8.00  9.00  1.00
  Atomic Wigner-Seitz radii
   RWIGS  =  -1.00 -1.00 -1.00 -1.00 -1.00 -1.00
  virtual crystal weights 
   VCA    =   1.00  1.00  1.00  1.00  1.00  1.00
   NELECT =     776.0000    total number of electrons
   NUPDOWN=      -1.0000    fix difference up-down

 DOS related values:
   EMIN   =  10.00;   EMAX   =-10.00  energy-range for DOS
   EFERMI =   0.00
   ISMEAR =    -5;   SIGMA  =   0.10  broadening in eV -4-tet -1-fermi 0-gaus

 Electronic relaxation 2 (details)
   IALGO  =     68    algorithm
   LDIAG  =      T    sub-space diagonalisation (order eigenvalues)
   LSUBROT=      F    optimize rotation matrix (better conditioning)
   TURBO    =      0    0=normal 1=particle mesh
   IRESTART =      0    0=no restart 2=restart with 2 vectors
   NREBOOT  =      0    no. of reboots
   NMIN     =      0    reboot dimension
   EREF     =   0.00    reference energy to select bands
   IMIX   =      4    mixing-type and parameters
     AMIX     =   0.40;   BMIX     =  1.00
     AMIX_MAG =   1.60;   BMIX_MAG =  1.00
     AMIN     =   0.10
     WC   =   100.;   INIMIX=   1;  MIXPRE=   1;  MAXMIX= -45

 Intra band minimization:
   WEIMIN = 0.0010     energy-eigenvalue tresh-hold
   EBREAK =  0.48E-08  absolut break condition
   DEPER  =   0.30     relativ break condition  

   TIME   =   0.40     timestep for ELM

  volume/ion in A,a.u.               =      26.23       177.01
  Fermi-wavevector in a.u.,A,eV,Ry     =   1.170222  2.211399 18.632091  1.369420
  Thomas-Fermi vector in A             =   2.306684
 
 Write flags
   LWAVE        =      F    write WAVECAR
   LDOWNSAMPLE  =      F    k-point downsampling of WAVECAR
   LCHARG       =      F    write CHGCAR
   LVTOT        =      F    write LOCPOT, total local potential
   LVHAR        =      F    write LOCPOT, Hartree potential only
   LELF         =      F    write electronic localiz. function (ELF)
   LORBIT       =      0    0 simple, 1 ext, 2 COOP (PROOUT), +10 PAW based schemes


 Dipole corrections
   LMONO  =      F    monopole corrections only (constant potential shift)
   LDIPOL =      F    correct potential (dipole corrections)
   IDIPOL =      0    1-x, 2-y, 3-z, 4-all directions 
   EPSILON=  1.0000000 bulk dielectric constant

 Exchange correlation treatment:
   GGA     =    --    GGA type
   LEXCH   =     8    internal setting for exchange type
   VOSKOWN=      0    Vosko Wilk Nusair interpolation
   LHFCALC =     F    Hartree Fock is set to
   LHFONE  =     F    Hartree Fock one center treatment
   AEXX    =    0.0000 exact exchange contribution

 Linear response parameters
   LEPSILON=     F    determine dielectric tensor
   LRPA    =     F    only Hartree local field effects (RPA)
   LNABLA  =     F    use nabla operator in PAW spheres
   LVEL    =     F    velocity operator in full k-point grid
   LINTERFAST=   F  fast interpolation
   KINTER  =     0    interpolate to denser k-point grid
   CSHIFT  =0.1000    complex shift for real part using Kramers Kronig
   OMEGAMAX=  -1.0    maximum frequency
   DEG_THRESHOLD= 0.2000000E-02 threshold for treating states as degnerate
   RTIME   =   -0.100 relaxation time in fs
  (WPLASMAI=    0.000 imaginary part of plasma frequency in eV, 0.658/RTIME)
   DFIELD  = 0.0000000 0.0000000 0.0000000 field for delta impulse in time
 
 Orbital magnetization related:
   ORBITALMAG=     F  switch on orbital magnetization
   LCHIMAG   =     F  perturbation theory with respect to B field
   DQ        =  0.001000  dq finite difference perturbation B field
   LLRAUG    =     F  two centre corrections for induced B field



--------------------------------------------------------------------------------------------------------


 finite differences
   using selective dynamics as specified on POSCAR
   WARNING: If single coordinates had been selected the selection of coordinates
            is made according to the corresponding   d i r e c t   coordinates!
            Don't support selection of single cartesian coordinates -- sorry ...
  !
 charge density and potential will be updated during run
 spin polarized calculation
 RMM-DIIS sequential band-by-band and
  variant of blocked Davidson during initial phase
 perform sub-space diagonalisation
    before iterative eigenvector-optimisation
 modified Broyden-mixing scheme, WC =      100.0
 initial mixing is a Kerker type mixing with AMIX =  0.4000 and BMIX =      1.0000
 Hartree-type preconditioning will be used
 using additional bands          132
 real space projection scheme for non local part
 use partial core corrections
 calculate Harris-corrections to forces 
   (improved forces if not selfconsistent)
 use gradient corrections 
 use of overlap-Matrix (Vanderbilt PP)
 Fermi weights with tetrahedron method with Bloechl corrections


--------------------------------------------------------------------------------------------------------


  energy-cutoff  :      550.00
  volume of cell :     2124.62
      direct lattice vectors                 reciprocal lattice vectors
    10.560000420  0.000000000  0.000000000     0.094696966 -0.054673319  0.000000000
     5.280000210  9.145228627  0.000000000     0.000000000  0.109346638  0.000000000
     0.000000000  0.000000000 22.000000000     0.000000000  0.000000000  0.045454545

  length of vectors
    10.560000420 10.560000420 22.000000000     0.109346638  0.109346638  0.045454545


 
 k-points in units of 2pi/SCALE and weight: mesh auto                               
   0.00000000  0.00000000  0.00000000       0.250
   0.04734848 -0.02733666  0.00000000       0.250
   0.00000000  0.05467332  0.00000000       0.250
   0.04734848  0.02733666  0.00000000       0.250
 
 k-points in reciprocal lattice and weights: mesh auto                               
   0.00000000  0.00000000  0.00000000       0.250
   0.50000000  0.00000000  0.00000000       0.250
   0.00000000  0.50000000  0.00000000       0.250
   0.50000000  0.50000000  0.00000000       0.250
 
 position of ions in fractional coordinates (direct lattice) 
   0.79013656  0.87586869  0.31652731
   0.04471484  0.88123079  0.31590086
   0.28809496  0.37778920  0.31993578
   0.87974463  0.95806832  0.42342142
   0.12825155  0.45715138  0.42705906
   0.13019527  0.95792350  0.42215837
   0.88030668  0.45546106  0.42214424
   0.37791110  0.95757913  0.41794398
   0.87819224  0.20875637  0.42188536
   0.12941084  0.20745793  0.42300992
   0.62620983  0.96128153  0.42947193
   0.88279077  0.70494168  0.42622085
   0.37654554  0.20836123  0.42688678
   0.37886784  0.70883685  0.42594548
   0.62960675  0.45849257  0.42408608
   0.12891202  0.70816894  0.42579056
   0.62895641  0.20783826  0.42469122
   0.55518238  0.37026119  0.31768275
   0.53879925  0.12084397  0.31595460
   0.54745577  0.12241455  0.03835403
   0.12360644  0.46198687  0.12740666
   0.04101025  0.13452689  0.31332011
   0.03235129  0.13482511  0.03441534
   0.12671306  0.95484959  0.13162708
   0.37791085  0.45924248  0.42638152
   0.45779299  0.54562474  0.22008560
   0.62684426  0.70623398  0.42962282
   0.96413863  0.79272622  0.21761397
   0.78792826  0.62428499  0.31954344
   0.29396355  0.63112065  0.31918932
   0.21123592  0.28374023  0.22269626
   0.71709822  0.53685317  0.22058810
   0.04107838  0.62455175  0.32091551
   0.79720004  0.86975892  0.03740235
   0.04406258  0.87221915  0.03450723
   0.03926108  0.63118460  0.03512204
   0.62574752  0.21423502  0.13267817
   0.37608349  0.96104394  0.13055742
   0.04069315  0.38000177  0.32025203
   0.03961706  0.37680314  0.03348892
   0.86761936  0.21521963  0.13097207
   0.95962679  0.54542694  0.22473188
   0.29295917  0.11976449  0.31942408
   0.54070652  0.63114726  0.32213549
   0.29178315  0.12606023  0.03725420
   0.54545151  0.62597825  0.04206242
   0.30678791  0.37356804  0.03912988
   0.62788283  0.95185769  0.13263039
   0.70142059  0.79820208  0.22280830
   0.86633517  0.71047377  0.12834734
   0.62467538  0.45773867  0.12814478
   0.30112900  0.87563010  0.31603708
   0.30615091  0.86696452  0.03949459
   0.61892989  0.71603521  0.13157826
   0.21580132  0.03462027  0.22396955
   0.54130035  0.38549347  0.03924212
   0.37935969  0.20774149  0.13048593
   0.13970060  0.70042731  0.12601187
   0.70329280  0.04306983  0.22237866
   0.79526761  0.12574144  0.32289401
   0.54006485  0.87317357  0.31819111
   0.78866377  0.13163117  0.03568706
   0.55002307  0.86477454  0.04096764
   0.21334288  0.54014670  0.22460931
   0.96280137  0.28964998  0.22158834
   0.86740749  0.96641026  0.12740667
   0.71753219  0.28687300  0.22453182
   0.45915719  0.29304584  0.22376919
   0.87387308  0.45689803  0.12677291
   0.11726506  0.21049175  0.13008946
   0.78478084  0.62565658  0.04309165
   0.30446760  0.62284293  0.04138738
   0.37746416  0.70582480  0.12774454
   0.37902910  0.46003850  0.12899471
   0.79653292  0.37023584  0.31881506
   0.78782398  0.38752064  0.04111567
   0.94385566  0.05104212  0.22344851
   0.45702340  0.80263442  0.22502694
   0.21629647  0.79533135  0.22474012
   0.46108857  0.03393525  0.22161390
   0.68512128  0.80767001  0.47653987
 
 position of ions in cartesian coordinates  (Angst):
  12.96842922  8.01001939  6.96360078
   5.12508746  8.05905709  6.94981888
   5.03700998  3.45496865  7.03858710
  14.34870454  8.76175379  9.31527124
   3.76809580  4.18075387  9.39529937
   6.43269843  8.76042940  9.28748416
  11.70087337  4.16529554  9.28717331
   9.04675934  8.75728006  9.19476765
  10.37594411  1.90912470  9.28147796
   2.46195645  1.89725019  9.30621824
  11.68834275  8.79113935  9.44838255
  13.04436317  6.44685284  9.37685863
   5.07646844  1.90551112  9.39150918
   7.74350320  6.48247501  9.37080053
   9.06948840  4.19301941  9.32989382
   5.10044307  6.47636683  9.36739225
   7.73916602  1.90072837  9.34320691
   7.81770529  3.38612319  6.98902049
   6.32777655  1.10514576  6.95100130
   6.42748199  1.11950902  0.84378857
   3.74457485  4.22497551  2.80294662
   1.14337029  1.23027921  6.89304245
   1.05350625  1.23300646  0.75713746
   6.37969601  8.73231780  2.89579587
   6.41553913  4.19987744  9.38039338
   7.71519296  4.98986301  4.84188323
  10.34839128  6.45867125  9.45170193
  14.36689896  7.24966250  4.78750741
  11.61674768  5.70922898  7.02995572
   6.43657243  5.77174265  7.02216512
   3.72879985  2.59486929  4.89931774
  10.40714241  4.90964500  4.85293829
   3.73142110  5.71166858  7.06014124
  13.01076010  7.95414421  0.82285169
   5.07061818  7.97664351  0.75915899
   3.74725186  5.77232751  0.77268479
   7.73905501  1.95922823  2.91891969
   9.04575401  8.78896659  2.87226322
   2.43612907  3.47520306  7.04554471
   2.40787681  3.44595088  0.73675630
  10.29842047  1.96823277  2.88138548
  13.01351367  4.98805409  4.94410139
   3.72600550  1.09527364  7.02732968
   9.04231878  5.77198601  7.08698078
   3.74682824  1.15284966  0.81959249
   9.06513349  5.72471418  0.92537331
   5.21211980  3.41636512  0.86085731
  11.65625177  8.70495616  2.91786869
  11.62150883  7.29974048  4.90178269
  12.89980144  6.49744505  2.82364142
   9.01343253  4.18612478  2.81918506
   7.80324949  8.00783742  6.95281586
   7.81052654  7.92858872  0.86888091
  10.31656596  6.54830568  2.89472164
   2.46165709  0.31661030  4.92733016
   7.75153750  3.52542591  0.86332671
   5.10291361  1.89984346  2.87069041
   5.17349471  6.40556785  2.77226120
   7.65418102  0.39388344  4.89233061
   9.06194111  1.14993419  7.10366830
  10.31344166  7.98537196  7.00020447
   9.02330237  1.20379713  0.78511532
  10.37425363  7.90856090  0.90128811
   5.10487562  4.93976509  4.94140483
  11.69653478  2.64891530  4.87494337
  14.26246981  8.83804282  2.80294666
   9.09182970  2.62351917  4.93970002
   6.39598222  2.67997121  4.92292219
  11.64052176  4.17843690  2.78900405
   2.34971562  1.92499520  2.86196808
  11.59075286  5.72177244  0.94801637
   6.50378879  5.69604102  0.91052233
   7.71277679  6.45492912  2.81037998
   6.43155077  4.20715724  2.83788366
  10.36623325  3.38589138  7.01393134
  10.36553066  3.54396488  0.90454481
  10.23661853  0.46679185  4.91586728
   9.06407717  7.34027527  4.95059278
   6.48344052  7.27348698  4.94428261
   5.04827358  0.31034563  4.87550584
  11.49937877  7.38632687 10.48387719
 


--------------------------------------------------------------------------------------------------------


 k-point  1 :   0.0000 0.0000 0.0000  plane waves:   62167
 k-point  2 :   0.5000 0.0000 0.0000  plane waves:   62242
 k-point  3 :   0.0000 0.5000 0.0000  plane waves:   62242
 k-point  4 :   0.5000 0.5000 0.0000  plane waves:   62242

 maximum and minimum number of plane-waves per node :     62242    62167

 maximum number of plane-waves:     62242
 maximum index in each direction: 
   IXMAX=   20   IYMAX=   20   IZMAX=   42
   IXMIN=  -20   IYMIN=  -20   IZMIN=  -42


 serial   3D FFT for wavefunctions
 parallel 3D FFT for charge:
    minimum data exchange during FFTs selected (reduces bandwidth)


 total amount of memory used by VASP MPI-rank0   377855. kBytes
=======================================================================

   base      :      30000. kBytes
   nonlr-proj:      98415. kBytes
   fftplans  :      13995. kBytes
   grid      :     126830. kBytes
   one-center:       2519. kBytes
   wavefun   :     106096. kBytes
 
     INWAV:  cpu time    0.0001: real time    0.0001
 Broyden mixing: mesh for mixing (old mesh)
   NGX = 41   NGY = 41   NGZ = 85
  (NGX  =168   NGY  =168   NGZ  =336)
  gives a total of 142885 points

 initial charge density was supplied:
 charge density of overlapping atoms calculated
 number of electron     776.0000000 magnetization      81.0000000
 keeping initial charge density in first step


--------------------------------------------------------------------------------------------------------


 Maximum index for non-local projection operator         7557
 Maximum index for augmentation-charges         2130 (set IRDMAX)


--------------------------------------------------------------------------------------------------------


 First call to EWALD:  gamma=   0.138
 Maximum number of real-space cells 4x 4x 2
 Maximum number of reciprocal cells 2x 2x 4

    FEWALD:  cpu time    0.0041: real time    0.0041


--------------------------------------- Iteration      1(   1)  ---------------------------------------


    POTLOK:  cpu time    0.4943: real time    0.4984
    SETDIJ:  cpu time    0.0333: real time    0.0336
     EDDAV:  cpu time   49.2946: real time   49.4254
 BZINTS: Fermi energy: 18.600612;776.000000 electrons
         Band energy:8072.285703;  BLOECHL correction: -0.018076
       DOS:  cpu time    0.0157: real time    0.0159
    --------------------------------------------
      LOOP:  cpu time   49.8380: real time   49.9732

 eigenvalue-minimisations  :  8320
 total energy-change (2. order) : 0.7667484E+04  (-0.3387444E+05)
 number of electron     776.0000000 magnetization      81.0000000
 augmentation part      776.0000000 magnetization      81.0000000

 Free energy of the ion-electron system (eV)
  ---------------------------------------------------
  alpha Z        PSCENC =      2230.33460859
  Ewald energy   TEWEN  =    216986.34865294
  -Hartree energ DENC   =   -288712.84418015
  -exchange      EXHF   =         0.00000000
  -V(xc)+E(xc)   XCENC  =      1276.88053479
  PAW double counting   =     63731.11119875   -65606.67393422
  entropy T*S    EENTRO =         0.00000000
  eigenvalues    EBANDS =      8072.28570303
  atomic energy  EATOM  =     69690.04112127
  Solvation  Ediel_sol  =         0.00000000
  ---------------------------------------------------
  free energy    TOTEN  =      7667.48370500 eV

  energy without entropy =     7667.48370500  energy(sigma->0) =     7667.48370500


--------------------------------------------------------------------------------------------------------




--------------------------------------- Iteration      1(   2)  ---------------------------------------


     EDDAV:  cpu time   49.2022: real time   49.3201
 BZINTS: Fermi energy:  6.183628;776.000000 electrons
         Band energy:1130.011753;  BLOECHL correction:  0.000000
       DOS:  cpu time    0.0046: real time    0.0046
    --------------------------------------------
      LOOP:  cpu time   49.2068: real time   49.3246

 eigenvalue-minimisations  :  8320
 total energy-change (2. order) :-0.6942274E+04  (-0.6372334E+04)
 number of electron     776.0000000 magnetization      81.0000000
 augmentation part      776.0000000 magnetization      81.0000000

 Free energy of the ion-electron system (eV)
  ---------------------------------------------------
  alpha Z        PSCENC =      2230.33460859
  Ewald energy   TEWEN  =    216986.34865294
  -Hartree energ DENC   =   -288712.84418015
  -exchange      EXHF   =         0.00000000
  -V(xc)+E(xc)   XCENC  =      1276.88053479
  PAW double counting   =     63731.11119875   -65606.67393422
  entropy T*S    EENTRO =         0.00000000
  eigenvalues    EBANDS =      1130.01175344
  atomic energy  EATOM  =     69690.04112127
  Solvation  Ediel_sol  =         0.00000000
  ---------------------------------------------------
  free energy    TOTEN  =       725.20975541 eV

  energy without entropy =      725.20975541  energy(sigma->0) =      725.20975541


--------------------------------------------------------------------------------------------------------




--------------------------------------- Iteration      1(   3)  ---------------------------------------


     EDDAV:  cpu time   53.0290: real time   53.1547
 BZINTS: Fermi energy:  3.244175;776.000000 electrons
         Band energy:   4.486130;  BLOECHL correction: -0.021699
       DOS:  cpu time    0.0130: real time    0.0130
    --------------------------------------------
      LOOP:  cpu time   53.0420: real time   53.1677

 eigenvalue-minimisations  :  9200
 total energy-change (2. order) :-0.1125526E+04  (-0.9444769E+03)
 number of electron     776.0000000 magnetization      81.0000000
 augmentation part      776.0000000 magnetization      81.0000000

 Free energy of the ion-electron system (eV)
  ---------------------------------------------------
  alpha Z        PSCENC =      2230.33460859
  Ewald energy   TEWEN  =    216986.34865294
  -Hartree energ DENC   =   -288712.84418015
  -exchange      EXHF   =         0.00000000
  -V(xc)+E(xc)   XCENC  =      1276.88053479
  PAW double counting   =     63731.11119875   -65606.67393422
  entropy T*S    EENTRO =         0.00000000
  eigenvalues    EBANDS =         4.48612997
  atomic energy  EATOM  =     69690.04112127
  Solvation  Ediel_sol  =         0.00000000
  ---------------------------------------------------
  free energy    TOTEN  =      -400.31586806 eV

  energy without entropy =     -400.31586806  energy(sigma->0) =     -400.31586806


--------------------------------------------------------------------------------------------------------




--------------------------------------- Iteration      1(   4)  ---------------------------------------


     EDDAV:  cpu time   65.2803: real time   65.4431
 BZINTS: Fermi energy:  2.995633;776.000000 electrons
         Band energy:-119.324795;  BLOECHL correction: -0.070264
       DOS:  cpu time    0.0168: real time    0.0168
    --------------------------------------------
      LOOP:  cpu time   65.2971: real time   65.4599

 eigenvalue-minimisations  : 11840
 total energy-change (2. order) :-0.1238109E+03  (-0.1132107E+03)
 number of electron     776.0000000 magnetization      81.0000000
 augmentation part      776.0000000 magnetization      81.0000000

 Free energy of the ion-electron system (eV)
  ---------------------------------------------------
  alpha Z        PSCENC =      2230.33460859
  Ewald energy   TEWEN  =    216986.34865294
  -Hartree energ DENC   =   -288712.84418015
  -exchange      EXHF   =         0.00000000
  -V(xc)+E(xc)   XCENC  =      1276.88053479
  PAW double counting   =     63731.11119875   -65606.67393422
  entropy T*S    EENTRO =         0.00000000
  eigenvalues    EBANDS =      -119.32479463
  atomic energy  EATOM  =     69690.04112127
  Solvation  Ediel_sol  =         0.00000000
  ---------------------------------------------------
  free energy    TOTEN  =      -524.12679266 eV

  energy without entropy =     -524.12679266  energy(sigma->0) =     -524.12679266


--------------------------------------------------------------------------------------------------------




--------------------------------------- Iteration      1(   5)  ---------------------------------------


     EDDAV:  cpu time   58.9498: real time   59.0899
 BZINTS: Fermi energy:  2.989127;776.000000 electrons
         Band energy:-122.707680;  BLOECHL correction: -0.075517
       DOS:  cpu time    0.0165: real time    0.0165
    CHARGE:  cpu time    2.8182: real time    2.8252
    MIXING:  cpu time    0.0105: real time    0.0111
    --------------------------------------------
      LOOP:  cpu time   61.7950: real time   61.9428

 eigenvalue-minimisations  : 10440
 total energy-change (2. order) :-0.3382885E+01  (-0.3362673E+01)
 number of electron     776.0000030 magnetization      77.7770222
 augmentation part      333.5712206 magnetization      62.2129076

 Broyden mixing:
  rms(total) = 0.98784E+01    rms(broyden)= 0.98784E+01
  rms(prec ) = 0.10198E+02
  weight for this iteration     100.00

 Free energy of the ion-electron system (eV)
  ---------------------------------------------------
  alpha Z        PSCENC =      2230.33460859
  Ewald energy   TEWEN  =    216986.34865294
  -Hartree energ DENC   =   -288712.84418015
  -exchange      EXHF   =         0.00000000
  -V(xc)+E(xc)   XCENC  =      1276.88053479
  PAW double counting   =     63731.11119875   -65606.67393422
  entropy T*S    EENTRO =         0.00000000
  eigenvalues    EBANDS =      -122.70767997
  atomic energy  EATOM  =     69690.04112127
  Solvation  Ediel_sol  =         0.00000000
  ---------------------------------------------------
  free energy    TOTEN  =      -527.50967800 eV

  energy without entropy =     -527.50967800  energy(sigma->0) =     -527.50967800


--------------------------------------------------------------------------------------------------------




--------------------------------------- Iteration      1(   6)  ---------------------------------------


    POTLOK:  cpu time    0.4517: real time    0.4528
    SETDIJ:  cpu time    0.0326: real time    0.0327
    EDDIAG:  cpu time    7.8221: real time    7.8414
  RMM-DIIS:  cpu time   32.8863: real time   32.9651
    ORTHCH:  cpu time    1.0024: real time    1.0048
 BZINTS: Fermi energy:  1.349562;776.000000 electrons
         Band energy:***********;  BLOECHL correction: -0.012877
       DOS:  cpu time    0.0169: real time    0.0169
    CHARGE:  cpu time    2.7657: real time    2.7722
    MIXING:  cpu time    0.0102: real time    0.0106
    --------------------------------------------
      LOOP:  cpu time   44.9879: real time   45.0965

 eigenvalue-minimisations  :  8349
 total energy-change (2. order) :-0.8551588E+02  (-0.8758580E+02)
 number of electron     776.0000040 magnetization      76.1091219
 augmentation part      387.9104056 magnetization      64.8107452

 Broyden mixing:
  rms(total) = 0.14088E+02    rms(broyden)= 0.14087E+02
  rms(prec ) = 0.15591E+02
  weight for this iteration     100.00

 eigenvalues of (default mixing * dielectric matrix)
  average eigenvalue GAMMA=   0.3454
  0.3454

 Free energy of the ion-electron system (eV)
  ---------------------------------------------------
  alpha Z        PSCENC =      2230.33460859
  Ewald energy   TEWEN  =    216986.34865294
  -Hartree energ DENC   =   -287354.43373067
  -exchange      EXHF   =         0.00000000
  -V(xc)+E(xc)   XCENC  =      1221.36382112
  PAW double counting   =     68494.90682253   -70182.27497558
  entropy T*S    EENTRO =         0.00000000
  eigenvalues    EBANDS =     -1699.31188103
  atomic energy  EATOM  =     69690.04112127
  Solvation  Ediel_sol  =         0.00000000
  ---------------------------------------------------
  free energy    TOTEN  =      -613.02556082 eV

  energy without entropy =     -613.02556082  energy(sigma->0) =     -613.02556082


--------------------------------------------------------------------------------------------------------




--------------------------------------- Iteration      1(   7)  ---------------------------------------


    POTLOK:  cpu time    0.4204: real time    0.4214
    SETDIJ:  cpu time    0.0328: real time    0.0328
    EDDIAG:  cpu time    7.8254: real time    7.8444
  RMM-DIIS:  cpu time   32.7881: real time   32.8677
    ORTHCH:  cpu time    1.1934: real time    1.1963
 BZINTS: Fermi energy:  2.873076;776.000000 electrons
         Band energy:***********;  BLOECHL correction: -0.012262
       DOS:  cpu time    0.0169: real time    0.0170
    CHARGE:  cpu time    2.7704: real time    2.7770
    MIXING:  cpu time    0.0104: real time    0.0104
    --------------------------------------------
      LOOP:  cpu time   45.0578: real time   45.1671

 eigenvalue-minimisations  :  8333
 total energy-change (2. order) :-0.2601797E+02  (-0.2848155E+02)
 number of electron     776.0000029 magnetization      74.4384791
 augmentation part      359.7514934 magnetization      61.2785479

 Broyden mixing:
  rms(total) = 0.15171E+02    rms(broyden)= 0.15171E+02
  rms(prec ) = 0.18335E+02
  weight for this iteration     100.00

 eigenvalues of (default mixing * dielectric matrix)
  average eigenvalue GAMMA=   0.3184
  0.4897  0.1471

 Free energy of the ion-electron system (eV)
  ---------------------------------------------------
  alpha Z        PSCENC =      2230.33460859
  Ewald energy   TEWEN  =    216986.34865294
  -Hartree energ DENC   =   -287780.60198441
  -exchange      EXHF   =         0.00000000
  -V(xc)+E(xc)   XCENC  =      1232.20191420
  PAW double counting   =     69971.80612002   -71809.35858126
  entropy T*S    EENTRO =         0.00000000
  eigenvalues    EBANDS =     -1159.81537719
  atomic energy  EATOM  =     69690.04112127
  Solvation  Ediel_sol  =         0.00000000
  ---------------------------------------------------
  free energy    TOTEN  =      -639.04352584 eV

  energy without entropy =     -639.04352584  energy(sigma->0) =     -639.04352584


--------------------------------------------------------------------------------------------------------




--------------------------------------- Iteration      1(   8)  ---------------------------------------


    POTLOK:  cpu time    0.4365: real time    0.4376
    SETDIJ:  cpu time    0.0325: real time    0.0326
    EDDIAG:  cpu time    7.8249: real time    7.8439
  RMM-DIIS:  cpu time   32.9885: real time   33.0789
    ORTHCH:  cpu time    1.0095: real time    1.0120
 BZINTS: Fermi energy:  2.232476;776.000000 electrons
         Band energy:-909.375726;  BLOECHL correction: -0.069534
       DOS:  cpu time    0.0160: real time    0.0161
    CHARGE:  cpu time    2.7623: real time    2.7689
    MIXING:  cpu time    0.0095: real time    0.0095
    --------------------------------------------
      LOOP:  cpu time   45.0798: real time   45.1994

 eigenvalue-minimisations  :  8355
[...]
      9.042319  5.771986  7.086981            0           0           0  
      3.746828  1.152850  0.819592            0           0           0  
      9.065133  5.724714  0.925373            0           0           0  
      5.212120  3.416365  0.860857            0           0           0  
     11.656252  8.704956  2.917869            0           0           0  
     11.621509  7.299740  4.901783            0           0           0  
     12.899801  6.497445  2.823641            0           0           0  
      9.013433  4.186125  2.819185            0           0           0  
      7.803249  8.007837  6.952816            0           0           0  
      7.810527  7.928589  0.868881            0           0           0  
     10.316566  6.548306  2.894722            0           0           0  
      2.461657  0.316610  4.927330            0           0           0  
      7.751538  3.525426  0.863327            0           0           0  
      5.102914  1.899843  2.870690            0           0           0  
      5.173495  6.405568  2.772261            0           0           0  
      7.654181  0.393883  4.892331            0           0           0  
      9.061941  1.149934  7.103668            0           0           0  
     10.313442  7.985372  7.000204            0           0           0  
      9.023302  1.203797  0.785115            0           0           0  
     10.374254  7.908561  0.901288            0           0           0  
      5.104876  4.939765  4.941405            0           0           0  
     11.696535  2.648915  4.874943            0           0           0  
     14.262470  8.838043  2.802947            0           0           0  
      9.091830  2.623519  4.939700            0           0           0  
      6.395982  2.679971  4.922922            0           0           0  
     11.640522  4.178437  2.789004            0           0           0  
      2.349716  1.924995  2.861968            0           0           0  
     11.590753  5.721772  0.948016            0           0           0  
      6.503789  5.696041  0.910522            0           0           0  
      7.712777  6.454929  2.810380            0           0           0  
      6.431551  4.207157  2.837884            0           0           0  
     10.366233  3.385891  7.013931            0           0           0  
     10.365531  3.543965  0.904545            0           0           0  
     10.236619  0.466792  4.915867            0           0           0  
      9.064077  7.340275  4.950593            0           0           0  
      6.483441  7.273487  4.944283            0           0           0  
      5.048274  0.310346  4.875506            0           0           0  
     11.499379  7.386327 10.483877     0.162443   -0.264810    0.950520  
 
   2 f  =   23.536244 THz   147.882581 2PiTHz  785.084559 cm-1    97.338115 meV
             X         Y         Z           dx          dy          dz
     12.968429  8.010019  6.963601            0           0           0  
      5.125087  8.059057  6.949819            0           0           0  
      5.037010  3.454969  7.038587            0           0           0  
     14.348705  8.761754  9.315271            0           0           0  
      3.768096  4.180754  9.395299            0           0           0  
      6.432698  8.760429  9.287484            0           0           0  
     11.700873  4.165296  9.287173            0           0           0  
      9.046759  8.757280  9.194768            0           0           0  
     10.375944  1.909125  9.281478            0           0           0  
      2.461956  1.897250  9.306218            0           0           0  
     11.688343  8.791139  9.448383            0           0           0  
     13.044363  6.446853  9.376859            0           0           0  
      5.076468  1.905511  9.391509            0           0           0  
      7.743503  6.482475  9.370801            0           0           0  
      9.069488  4.193019  9.329894            0           0           0  
      5.100443  6.476367  9.367392            0           0           0  
      7.739166  1.900728  9.343207            0           0           0  
      7.817705  3.386123  6.989020            0           0           0  
      6.327777  1.105146  6.951001            0           0           0  
      6.427482  1.119509  0.843789            0           0           0  
      3.744575  4.224976  2.802947            0           0           0  
      1.143370  1.230279  6.893042            0           0           0  
      1.053506  1.233006  0.757137            0           0           0  
      6.379696  8.732318  2.895796            0           0           0  
      6.415539  4.199877  9.380393            0           0           0  
      7.715193  4.989863  4.841883            0           0           0  
     10.348391  6.458671  9.451702            0           0           0  
     14.366899  7.249662  4.787507            0           0           0  
     11.616748  5.709229  7.029956            0           0           0  
      6.436572  5.771743  7.022165            0           0           0  
      3.728800  2.594869  4.899318            0           0           0  
     10.407142  4.909645  4.852938            0           0           0  
      3.731421  5.711669  7.060141            0           0           0  
     13.010760  7.954144  0.822852            0           0           0  
      5.070618  7.976644  0.759159            0           0           0  
      3.747252  5.772328  0.772685            0           0           0  
      7.739055  1.959228  2.918920            0           0           0  
      9.045754  8.788967  2.872263            0           0           0  
      2.436129  3.475203  7.045545            0           0           0  
      2.407877  3.445951  0.736756            0           0           0  
     10.298420  1.968233  2.881385            0           0           0  
     13.013514  4.988054  4.944101            0           0           0  
      3.726006  1.095274  7.027330            0           0           0  
      9.042319  5.771986  7.086981            0           0           0  
      3.746828  1.152850  0.819592            0           0           0  
      9.065133  5.724714  0.925373            0           0           0  
      5.212120  3.416365  0.860857            0           0           0  
     11.656252  8.704956  2.917869            0           0           0  
     11.621509  7.299740  4.901783            0           0           0  
     12.899801  6.497445  2.823641            0           0           0  
      9.013433  4.186125  2.819185            0           0           0  
      7.803249  8.007837  6.952816            0           0           0  
      7.810527  7.928589  0.868881            0           0           0  
     10.316566  6.548306  2.894722            0           0           0  
      2.461657  0.316610  4.927330            0           0           0  
      7.751538  3.525426  0.863327            0           0           0  
      5.102914  1.899843  2.870690            0           0           0  
      5.173495  6.405568  2.772261            0           0           0  
      7.654181  0.393883  4.892331            0           0           0  
      9.061941  1.149934  7.103668            0           0           0  
     10.313442  7.985372  7.000204            0           0           0  
      9.023302  1.203797  0.785115            0           0           0  
     10.374254  7.908561  0.901288            0           0           0  
      5.104876  4.939765  4.941405            0           0           0  
     11.696535  2.648915  4.874943            0           0           0  
     14.262470  8.838043  2.802947            0           0           0  
      9.091830  2.623519  4.939700            0           0           0  
      6.395982  2.679971  4.922922            0           0           0  
     11.640522  4.178437  2.789004            0           0           0  
      2.349716  1.924995  2.861968            0           0           0  
     11.590753  5.721772  0.948016            0           0           0  
      6.503789  5.696041  0.910522            0           0           0  
      7.712777  6.454929  2.810380            0           0           0  
      6.431551  4.207157  2.837884            0           0           0  
     10.366233  3.385891  7.013931            0           0           0  
     10.365531  3.543965  0.904545            0           0           0  
     10.236619  0.466792  4.915867            0           0           0  
      9.064077  7.340275  4.950593            0           0           0  
      6.483441  7.273487  4.944283            0           0           0  
      5.048274  0.310346  4.875506            0           0           0  
     11.499379  7.386327 10.483877     0.523512    0.839682    0.144463  
 
   3 f/i=    6.649573 THz    41.780500 2PiTHz  221.805878 cm-1    27.500434 meV
             X         Y         Z           dx          dy          dz
     12.968429  8.010019  6.963601            0           0           0  
      5.125087  8.059057  6.949819            0           0           0  
      5.037010  3.454969  7.038587            0           0           0  
     14.348705  8.761754  9.315271            0           0           0  
      3.768096  4.180754  9.395299            0           0           0  
      6.432698  8.760429  9.287484            0           0           0  
     11.700873  4.165296  9.287173            0           0           0  
      9.046759  8.757280  9.194768            0           0           0  
     10.375944  1.909125  9.281478            0           0           0  
      2.461956  1.897250  9.306218            0           0           0  
     11.688343  8.791139  9.448383            0           0           0  
     13.044363  6.446853  9.376859            0           0           0  
      5.076468  1.905511  9.391509            0           0           0  
      7.743503  6.482475  9.370801            0           0           0  
      9.069488  4.193019  9.329894            0           0           0  
      5.100443  6.476367  9.367392            0           0           0  
      7.739166  1.900728  9.343207            0           0           0  
      7.817705  3.386123  6.989020            0           0           0  
      6.327777  1.105146  6.951001            0           0           0  
      6.427482  1.119509  0.843789            0           0           0  
      3.744575  4.224976  2.802947            0           0           0  
      1.143370  1.230279  6.893042            0           0           0  
      1.053506  1.233006  0.757137            0           0           0  
      6.379696  8.732318  2.895796            0           0           0  
      6.415539  4.199877  9.380393            0           0           0  
      7.715193  4.989863  4.841883            0           0           0  
     10.348391  6.458671  9.451702            0           0           0  
     14.366899  7.249662  4.787507            0           0           0  
     11.616748  5.709229  7.029956            0           0           0  
      6.436572  5.771743  7.022165            0           0           0  
      3.728800  2.594869  4.899318            0           0           0  
     10.407142  4.909645  4.852938            0           0           0  
      3.731421  5.711669  7.060141            0           0           0  
     13.010760  7.954144  0.822852            0           0           0  
      5.070618  7.976644  0.759159            0           0           0  
      3.747252  5.772328  0.772685            0           0           0  
      7.739055  1.959228  2.918920            0           0           0  
      9.045754  8.788967  2.872263            0           0           0  
      2.436129  3.475203  7.045545            0           0           0  
      2.407877  3.445951  0.736756            0           0           0  
     10.298420  1.968233  2.881385            0           0           0  
     13.013514  4.988054  4.944101            0           0           0  
      3.726006  1.095274  7.027330            0           0           0  
      9.042319  5.771986  7.086981            0           0           0  
      3.746828  1.152850  0.819592            0           0           0  
      9.065133  5.724714  0.925373            0           0           0  
      5.212120  3.416365  0.860857            0           0           0  
     11.656252  8.704956  2.917869            0           0           0  
     11.621509  7.299740  4.901783            0           0           0  
     12.899801  6.497445  2.823641            0           0           0  
      9.013433  4.186125  2.819185            0           0           0  
      7.803249  8.007837  6.952816            0           0           0  
      7.810527  7.928589  0.868881            0           0           0  
     10.316566  6.548306  2.894722            0           0           0  
      2.461657  0.316610  4.927330            0           0           0  
      7.751538  3.525426  0.863327            0           0           0  
      5.102914  1.899843  2.870690            0           0           0  
      5.173495  6.405568  2.772261            0           0           0  
      7.654181  0.393883  4.892331            0           0           0  
      9.061941  1.149934  7.103668            0           0           0  
     10.313442  7.985372  7.000204            0           0           0  
      9.023302  1.203797  0.785115            0           0           0  
     10.374254  7.908561  0.901288            0           0           0  
      5.104876  4.939765  4.941405            0           0           0  
     11.696535  2.648915  4.874943            0           0           0  
     14.262470  8.838043  2.802947            0           0           0  
      9.091830  2.623519  4.939700            0           0           0  
      6.395982  2.679971  4.922922            0           0           0  
     11.640522  4.178437  2.789004            0           0           0  
      2.349716  1.924995  2.861968            0           0           0  
     11.590753  5.721772  0.948016            0           0           0  
      6.503789  5.696041  0.910522            0           0           0  
      7.712777  6.454929  2.810380            0           0           0  
      6.431551  4.207157  2.837884            0           0           0  
     10.366233  3.385891  7.013931            0           0           0  
     10.365531  3.543965  0.904545            0           0           0  
     10.236619  0.466792  4.915867            0           0           0  
      9.064077  7.340275  4.950593            0           0           0  
      6.483441  7.273487  4.944283            0           0           0  
      5.048274  0.310346  4.875506            0           0           0  
     11.499379  7.386327 10.483877    -0.836390    0.474141    0.275032  
 
 Finite differences POTIM=  1.500000000000000E-002
  LATTYP: Found a hexagonal cell.
 ALAT       =    10.5600004196
 C/A-ratio  =     2.0833332505
  
  Lattice vectors:
  
 A1 = (   5.2800002098,  -9.1452286274,   0.0000000000)
 A2 = ( -10.5600004196,   0.0000000000,   0.0000000000)
 A3 = (   0.0000000000,   0.0000000000, -22.0000000000)


Analysis of symmetry for initial positions (statically):
=====================================================================
 Subroutine PRICEL returns:
 Original cell was already a primitive cell.
 

 Routine SETGRP: Setting up the symmetry group for a 
 hexagonal supercell.


 Subroutine GETGRP returns: Found  1 space group operations
 (whereof  1 operations were pure point group operations)
 out of a pool of 24 trial point group operations.


The static configuration has the point symmetry C_1 .


Analysis of symmetry for dynamics (positions and initial velocities):
=====================================================================
 Subroutine PRICEL returns:
 Original cell was already a primitive cell.
 

 Routine SETGRP: Setting up the symmetry group for a 
 hexagonal supercell.


 Subroutine GETGRP returns: Found  1 space group operations
 (whereof  1 operations were pure point group operations)
 out of a pool of 24 trial point group operations.


The dynamic configuration has the point symmetry C_1 .


Analysis of constrained symmetry for selective dynamics:
=====================================================================
 Subroutine PRICEL returns:
 Original cell was already a primitive cell.
 

 Routine SETGRP: Setting up the symmetry group for a 
 hexagonal supercell.


 Subroutine GETGRP returns: Found  1 space group operations
 (whereof  1 operations were pure point group operations)
 out of a pool of 24 trial point group operations.


The constrained configuration has the point symmetry C_1 .


Analysis of structural, dynamic, and magnetic symmetry:
=====================================================================
 Subroutine PRICEL returns:
 Original cell was already a primitive cell.
 

 Routine SETGRP: Setting up the symmetry group for a 
 hexagonal supercell.


 Subroutine GETGRP returns: Found  1 space group operations
 (whereof  1 operations were pure point group operations)
 out of a pool of 24 trial point group operations.


The magnetic configuration has the point symmetry C_1 .


 Subroutine INISYM returns: Found  1 space group operations
 (whereof  1 operations are pure point group operations),
 and found     1 'primitive' translations

 
 KPOINTS: mesh auto                               

Automatic generation of k-mesh.
Space group operators:
 irot       det(A)        alpha          n_x          n_y          n_z        tau_x        tau_y        tau_z
    1     1.000000     0.000001     1.000000     0.000000     0.000000     0.000000     0.000000     0.000000
 
 Subroutine IBZKPT returns following result:
 ===========================================
 
 Found      4 irreducible k-points:
 
 Following reciprocal coordinates:
            Coordinates               Weight
  0.000000  0.000000  0.000000      1.000000
  0.500000  0.000000  0.000000      1.000000
  0.000000  0.500000  0.000000      1.000000
  0.500000  0.500000  0.000000      1.000000
 
 Following cartesian coordinates:
            Coordinates               Weight
  0.000000  0.000000  0.000000      1.000000
  0.047348 -0.027337  0.000000      1.000000
  0.000000  0.054673  0.000000      1.000000
  0.047348  0.027337  0.000000      1.000000
 
 TETIRR: Found     12 inequivalent tetrahedra from       24
     LOOP+:  cpu time  687.7017: real time  689.4815
    4ORBIT:  cpu time    0.0000: real time    0.0000
 BZINTS: Fermi energy:  2.043797;776.000000 electrons
         Band energy:-677.188261;  BLOECHL correction: -0.103385

 total amount of memory used by VASP MPI-rank0   377855. kBytes
=======================================================================

   base      :      30000. kBytes
   nonlr-proj:      98415. kBytes
   fftplans  :      13995. kBytes
   grid      :     126830. kBytes
   one-center:       2519. kBytes
   wavefun   :     106096. kBytes
 
  
  
 General timing and accounting informations for this job:
 ========================================================
  
                  Total CPU time used (sec):     9696.763
                            User time (sec):     9669.058
                          System time (sec):       27.704
                         Elapsed time (sec):     9723.247
  
                   Maximum memory used (kb):     1183600.
                   Average memory used (kb):           0.
  
                          Minor page faults:      3405479
                          Major page faults:            0
                 Voluntary context switches:         4261
