 vasp.5.4.4.18Apr17-6-g9f103f2a35 (build Nov 30 2020 22:55:02) complex          
  
 executed on             LinuxIFC date 2023.09.10  15:41:08
 running on   40 total cores
 distrk:  each k-point on   40 cores,    1 groups
 distr:  one band on NCORES_PER_BAND=   1 cores,   40 groups


--------------------------------------------------------------------------------------------------------


 INCAR:
 POTCAR:    PAW_PBE Co 02Aug2007                  
 POTCAR:    PAW_PBE Pt 04Feb2005                  
 POTCAR:    PAW_PBE H 15Jun2001                   

 ----------------------------------------------------------------------------- 
|                                                                             |
|           W    W    AA    RRRRR   N    N  II  N    N   GGGG   !!!           |
|           W    W   A  A   R    R  NN   N  II  NN   N  G    G  !!!           |
|           W    W  A    A  R    R  N N  N  II  N N  N  G       !!!           |
|           W WW W  AAAAAA  RRRRR   N  N N  II  N  N N  G  GGG   !            |
|           WW  WW  A    A  R   R   N   NN  II  N   NN  G    G                |
|           W    W  A    A  R    R  N    N  II  N    N   GGGG   !!!           |
|                                                                             |
|      For optimal performance we recommend to set                            |
|        NCORE= 4 - approx SQRT( number of cores)                             |
|      NCORE specifies how many cores store one orbital (NPAR=cpu/NCORE).     |
|      This setting can  greatly improve the performance of VASP for DFT.     |
|      The default,   NCORE=1            might be grossly inefficient         |
|      on modern multi-core architectures or massively parallel machines.     |
|      Do your own testing !!!!                                               |
|      Unfortunately you need to use the default for GW and RPA calculations. |
|      (for HF NCORE is supported but not extensively tested yet)             |
|                                                                             |
 ----------------------------------------------------------------------------- 

 POTCAR:    PAW_PBE Co 02Aug2007                  
   VRHFIN =Co: d8 s1                                                            
   LEXCH  = PE                                                                  
   EATOM  =   813.3670 eV,   59.7808 Ry                                         
                                                                                
   TITEL  = PAW_PBE Co 02Aug2007                                                
   LULTRA =        F    use ultrasoft PP ?                                      
   IUNSCR =        1    unscreen: 0-lin 1-nonlin 2-no                           
   RPACOR =    2.000    partial core radius                                     
   POMASS =   58.933; ZVAL   =    9.000    mass and valenz                      
   RCORE  =    2.300    outmost cutoff radius                                   
   RWIGS  =    2.460; RWIGS  =    1.302    wigner-seitz radius (au A)           
   ENMAX  =  267.968; ENMIN  =  200.976 eV                                      
   RCLOC  =    1.203    cutoff for local pot                                    
   LCOR   =        T    correct aug charges                                     
   LPAW   =        T    paw PP                                                  
   EAUG   =  477.818                                                            
   DEXC   =    0.000                                                            
   RMAX   =    2.360    core radius for proj-oper                               
   RAUG   =    1.300    factor for augmentation sphere                          
   RDEP   =    2.393    radius for radial grids                                 
   RDEPT  =    1.864    core radius for aug-charge                              
                                                                                
   Atomic configuration                                                         
    9 entries                                                                   
     n  l   j            E        occ.                                          
     1  0  0.50     -7587.6674   2.0000                                         
     2  0  0.50      -893.6084   2.0000                                         
     2  1  1.50      -764.5805   6.0000                                         
     3  0  0.50       -97.5973   2.0000                                         
     3  1  1.50       -60.9648   6.0000                                         
     3  2  2.50        -4.2382   8.0000                                         
     4  0  0.50        -4.3746   1.0000                                         
     4  1  1.50        -4.0817   0.0000                                         
     4  3  2.50        -1.3606   0.0000                                         
   Description                                                                  
     l       E           TYP  RCUT    TYP  RCUT                                 
     2     -4.2382362     23  2.300                                             
     2     -5.5988188     23  2.300                                             
     0     -4.3745797     23  2.300                                             
     0      5.7660125     23  2.300                                             
     1     -2.7211652     23  2.300                                             
     1     16.9860234     23  2.300                                             
  local pseudopotential read in
  partial core-charges read in
  partial kinetic energy density read in
  atomic valenz-charges read in
  non local Contribution for L=           2  read in
    real space projection operators read in
  non local Contribution for L=           2  read in
    real space projection operators read in
  non local Contribution for L=           0  read in
    real space projection operators read in
  non local Contribution for L=           0  read in
    real space projection operators read in
  non local Contribution for L=           1  read in
    real space projection operators read in
  non local Contribution for L=           1  read in
    real space projection operators read in
    PAW grid and wavefunctions read in
 
   number of l-projection  operators is LMAX  =           6
   number of lm-projection operators is LMMAX =          18
 
 POTCAR:    PAW_PBE Pt 04Feb2005                  
   VRHFIN =Pt: s1d9                                                             
   LEXCH  = PE                                                                  
   EATOM  =   729.1176 eV,   53.5886 Ry                                         
                                                                                
   TITEL  = PAW_PBE Pt 04Feb2005                                                
   LULTRA =        F    use ultrasoft PP ?                                      
   IUNSCR =        1    unscreen: 0-lin 1-nonlin 2-no                           
   RPACOR =    2.330    partial core radius                                     
   POMASS =  195.080; ZVAL   =   10.000    mass and valenz                      
   RCORE  =    2.600    outmost cutoff radius                                   
   RWIGS  =    2.750; RWIGS  =    1.455    wigner-seitz radius (au A)           
   ENMAX  =  230.283; ENMIN  =  172.712 eV                                      
   ICORE  =        3    local potential                                         
   LCOR   =        T    correct aug charges                                     
   LPAW   =        T    paw PP                                                  
   EAUG   =  358.966                                                            
   DEXC   =    0.000                                                            
   RMAX   =    2.658    core radius for proj-oper                               
   RAUG   =    1.300    factor for augmentation sphere                          
   RDEP   =    2.761    radius for radial grids                                 
   RDEPT  =    2.203    core radius for aug-charge                              
                                                                                
   Atomic configuration                                                         
   16 entries                                                                   
     n  l   j            E        occ.                                          
     1  0  0.50    -78401.1885   2.0000                                         
     2  0  0.50    -13770.7750   2.0000                                         
     2  1  1.50    -11931.0468   6.0000                                         
     3  0  0.50     -3234.7234   2.0000                                         
     3  1  1.50     -2699.2216   6.0000                                         
     3  2  2.50     -2119.5714  10.0000                                         
     4  0  0.50      -695.1528   2.0000                                         
     4  1  1.50      -519.6034   6.0000                                         
     4  2  2.50      -306.6786  10.0000                                         
     4  3  3.50       -70.1041  14.0000                                         
     5  0  0.50      -101.7747   2.0000                                         
     5  1  1.50       -55.9873   6.0000                                         
     5  2  2.50        -6.1423   9.0000                                         
     6  0  0.50        -5.6573   1.0000                                         
     6  1  1.50        -6.8029   0.0000                                         
     5  3  2.50        -1.3606   0.0000                                         
   Description                                                                  
     l       E           TYP  RCUT    TYP  RCUT                                 
     2     -6.1423404     23  2.500                                             
     2     -7.5029230     23  2.500                                             
     0     -5.6573207     23  2.500                                             
     0      0.7416693     23  2.500                                             
     1     -2.7211652     23  2.600                                             
     1     20.4087390     23  2.600                                             
     3     -1.3605826     23  2.500                                             
  local pseudopotential read in
  partial core-charges read in
  partial kinetic energy density read in
  atomic valenz-charges read in
  non local Contribution for L=           2  read in
    real space projection operators read in
  non local Contribution for L=           2  read in
    real space projection operators read in
  non local Contribution for L=           0  read in
    real space projection operators read in
  non local Contribution for L=           0  read in
    real space projection operators read in
  non local Contribution for L=           1  read in
    real space projection operators read in
  non local Contribution for L=           1  read in
    real space projection operators read in
    PAW grid and wavefunctions read in
 
   number of l-projection  operators is LMAX  =           6
   number of lm-projection operators is LMMAX =          18
 
 POTCAR:    PAW_PBE H 15Jun2001                   
   VRHFIN =H: ultrasoft test                                                    
   LEXCH  = PE                                                                  
   EATOM  =    12.4884 eV,    0.9179 Ry                                         
                                                                                
   TITEL  = PAW_PBE H 15Jun2001                                                 
   LULTRA =        F    use ultrasoft PP ?                                      
   IUNSCR =        0    unscreen: 0-lin 1-nonlin 2-no                           
   RPACOR =    0.000    partial core radius                                     
   POMASS =    1.000; ZVAL   =    1.000    mass and valenz                      
   RCORE  =    1.100    outmost cutoff radius                                   
   RWIGS  =    0.700; RWIGS  =    0.370    wigner-seitz radius (au A)           
   ENMAX  =  250.000; ENMIN  =  200.000 eV                                      
   RCLOC  =    0.701    cutoff for local pot                                    
   LCOR   =        T    correct aug charges                                     
   LPAW   =        T    paw PP                                                  
   EAUG   =  400.000                                                            
   RMAX   =    1.123    core radius for proj-oper                               
   RAUG   =    1.200    factor for augmentation sphere                          
   RDEP   =    1.112    radius for radial grids                                 
   RDEPT  =    0.926    core radius for aug-charge                              
                                                                                
   Atomic configuration                                                         
    2 entries                                                                   
     n  l   j            E        occ.                                          
     1  0  0.50        -6.4927   1.0000                                         
     2  1  0.50        -3.4015   0.0000                                         
   Description                                                                  
     l       E           TYP  RCUT    TYP  RCUT                                 
     0     -6.4927494     23  1.100                                             
     0      6.8029130     23  1.100                                             
     1     -4.0817478     23  1.100                                             
  local pseudopotential read in
  atomic valenz-charges read in
  non local Contribution for L=           0  read in
    real space projection operators read in
  non local Contribution for L=           0  read in
    real space projection operators read in
  non local Contribution for L=           1  read in
    real space projection operators read in
    PAW grid and wavefunctions read in
 
   number of l-projection  operators is LMAX  =           3
   number of lm-projection operators is LMMAX =           5
 
 Optimization of the real space projectors (new method)

 maximal supplied QI-value         = 16.25
 optimisation between [QCUT,QGAM] = [ 11.86, 23.89] = [ 39.41,159.82] Ry 
 Optimized for a Real-space Cutoff    1.33 Angstroem

   l    n(q)    QCUT    max X(q) W(low)/X(q) W(high)/X(q)  e(spline) 
   2      9    11.864    65.824    0.22E-03    0.53E-03    0.26E-06
   2      9    11.864    61.429    0.22E-03    0.53E-03    0.26E-06
   0      9    11.864    56.174    0.21E-03    0.32E-04    0.15E-06
   0      9    11.864    31.263    0.19E-03    0.30E-04    0.14E-06
   1      9    11.864    19.828    0.63E-04    0.30E-03    0.16E-06
   1      9    11.864    15.139    0.49E-04    0.25E-03    0.13E-06
 Optimization of the real space projectors (new method)

 maximal supplied QI-value         = 14.36
 optimisation between [QCUT,QGAM] = [ 11.92, 23.98] = [ 39.79,161.09] Ry 
 Optimized for a Real-space Cutoff    1.49 Angstroem

   l    n(q)    QCUT    max X(q) W(low)/X(q) W(high)/X(q)  e(spline) 
   2     10    11.920    66.195    0.79E-04    0.18E-03    0.24E-06
   2     10    11.920    64.643    0.81E-04    0.19E-03    0.24E-06
   0     11    11.920    95.520    0.28E-04    0.54E-04    0.18E-06
   0     11    11.920    63.403    0.27E-04    0.52E-04    0.17E-06
   1     10    11.920    19.961    0.18E-04    0.11E-03    0.23E-06
   1     10    11.920    13.289    0.25E-04    0.87E-04    0.19E-06
 Optimization of the real space projectors (new method)

 maximal supplied QI-value         = 34.20
 optimisation between [QCUT,QGAM] = [ 11.97, 23.94] = [ 40.13,160.53] Ry 
 Optimized for a Real-space Cutoff    1.18 Angstroem

   l    n(q)    QCUT    max X(q) W(low)/X(q) W(high)/X(q)  e(spline) 
   0      8    11.971    19.460    0.15E-03    0.31E-03    0.25E-06
   0      8    11.971    12.209    0.13E-03    0.29E-03    0.25E-06
   1      8    11.971     4.655    0.22E-03    0.24E-03    0.21E-06
  PAW_PBE Co 02Aug2007                  :
 energy of atom  1       EATOM= -813.3670
 kinetic energy error for atom=    0.0026 (will be added to EATOM!!)
  PAW_PBE Pt 04Feb2005                  :
 energy of atom  2       EATOM= -729.1176
 kinetic energy error for atom=    0.0021 (will be added to EATOM!!)
  PAW_PBE H 15Jun2001                   :
 energy of atom  3       EATOM=  -12.4884
 kinetic energy error for atom=    0.0008 (will be added to EATOM!!)
 
 
 POSCAR: PtM\(2)                                 
  positions in cartesian coordinates
  No initial velocities read in
 exchange correlation table for  LEXCH =        8
   RHO(1)=    0.500       N(1)  =     2000
   RHO(2)=  100.500       N(2)  =     4000
 


--------------------------------------------------------------------------------------------------------


 ion  position               nearest neighbor table
   1  0.786  0.869  0.311-  55 2.41  39 2.41  20 2.42  73 2.62  72 2.63   2 2.63  56 2.63  65 2.64
                            40 2.64   3 2.64  29 2.64  57 2.64
   2  0.035  0.870  0.311-  49 2.41  39 2.42  52 2.42  77 2.62  56 2.63  65 2.63   1 2.63  33 2.63
                            67 2.63   3 2.64  23 2.64  41 2.66
   3  0.035  0.619  0.311-  39 2.41  60 2.41  12 2.42  73 2.62  77 2.62  66 2.63  15 2.64  40 2.64
                             1 2.64   9 2.64   2 2.64  41 2.66
   4  0.787  0.868  0.051-  21 2.41  62 2.41  19 2.41   5 2.64   6 2.64  42 2.64  59 2.64  58 2.64
                            30 2.64
   5  0.037  0.868  0.051-  54 2.41  35 2.41  62 2.41  58 2.64  24 2.64   4 2.64  43 2.64   6 2.64
                            34 2.64
   6  0.037  0.618  0.051-  32 2.41  54 2.41  21 2.41  43 2.64  10 2.64  18 2.64   4 2.64  42 2.64
                             5 2.64
   7  0.620  0.202  0.136-  28 2.41  30 2.41  58 2.41  55 2.49  63 2.50  64 2.51  62 2.64  11 2.64
                            37 2.64  19 2.64  45 2.64  22 2.64
   8  0.370  0.952  0.136-  16 2.41  24 2.41  59 2.41  53 2.49  26 2.50  50 2.51  38 2.64  25 2.64
                            44 2.64  19 2.64  37 2.64  35 2.64
   9  0.035  0.369  0.311-  61 2.42  12 2.42  46 2.42  68 2.62  66 2.62  15 2.62  71 2.63  13 2.64
                            40 2.64  33 2.64   3 2.64  47 2.66
  10  0.037  0.368  0.051-  38 2.41  32 2.41  31 2.41   6 2.64  48 2.64  34 2.64  18 2.64  42 2.64
                            16 2.64
  11  0.870  0.202  0.136-  48 2.41  58 2.41  34 2.41  49 2.49  61 2.50  63 2.51  35 2.64   7 2.64
                            22 2.64  38 2.64  31 2.64  62 2.64
  12  0.952  0.536  0.226-  40 2.42   3 2.42   9 2.42  21 2.49  31 2.49  32 2.50  20 2.64  39 2.64
                            61 2.64  46 2.64  51 2.65  60 2.66
  13  0.285  0.119  0.311-  26 2.42  53 2.42  46 2.42  69 2.61  74 2.62  15 2.62  71 2.63  57 2.64
                             9 2.64  33 2.64  29 2.64  23 2.66
  14  0.535  0.619  0.313-  50 2.43  36 2.43  51 2.44  23 2.62  41 2.62  47 2.62  27 2.62  57 2.64
                            40 2.65  80 2.68  76 2.70  75 2.71
  15  0.284  0.368  0.311-  46 2.41  60 2.41  64 2.42   9 2.62  13 2.62  74 2.62  66 2.63   3 2.64
                            29 2.64  79 2.67  27 2.67  41 2.67
  16  0.287  0.118  0.051-   8 2.41  37 2.41  38 2.41  18 2.64  30 2.64  59 2.64  34 2.64  10 2.64
                            24 2.64
  17  0.536  0.618  0.051-  22 2.41  25 2.41  44 2.41  43 2.64  28 2.64  24 2.64  59 2.64  48 2.64
                            42 2.64
  18  0.287  0.368  0.051-  37 2.41  45 2.41  32 2.41  16 2.64   6 2.64  43 2.64  10 2.64  28 2.64
                            30 2.64
  19  0.620  0.952  0.136-  30 2.41  59 2.41   4 2.41  20 2.50  55 2.50  53 2.50  62 2.64  21 2.64
                            37 2.64   7 2.64  25 2.64   8 2.64
  20  0.702  0.786  0.226-  40 2.41   1 2.42  57 2.42  19 2.50  25 2.50  21 2.50  53 2.63  12 2.64
                            51 2.64  50 2.64  55 2.64  39 2.65
  21  0.870  0.702  0.136-   4 2.41  42 2.41   6 2.41  12 2.49  39 2.50  20 2.50  31 2.64  19 2.64
                            62 2.64  25 2.64  32 2.64  54 2.64
  22  0.620  0.452  0.136-  17 2.41  28 2.41  48 2.41  63 2.50  51 2.50  36 2.51  31 2.64  25 2.64
                            45 2.64  11 2.64  44 2.64   7 2.64
  23  0.286  0.867  0.312-  50 2.42  52 2.42  26 2.43  41 2.61  14 2.62  69 2.62  67 2.63  57 2.64
                             2 2.64  13 2.66  33 2.66  75 2.68
  24  0.286  0.868  0.051-  44 2.41   8 2.41  35 2.41  34 2.64   5 2.64  17 2.64  43 2.64  59 2.64
                            16 2.64
  25  0.620  0.702  0.136-  59 2.41  17 2.41  42 2.41  20 2.50  51 2.50  50 2.51  22 2.64  31 2.64
                             8 2.64  44 2.64  19 2.64  21 2.64
  26  0.203  0.034  0.226-  13 2.42  33 2.42  23 2.43  35 2.49   8 2.50  38 2.51  52 2.63  49 2.64
                            50 2.64  53 2.64  46 2.65  61 2.66
  27  0.535  0.371  0.313-  36 2.42  63 2.43  64 2.43  78 2.61  47 2.62  41 2.62  14 2.62  29 2.66
                            56 2.66  15 2.67  79 2.67  76 2.70
  28  0.537  0.368  0.051-   7 2.41  22 2.41  45 2.41  30 2.64  58 2.64  17 2.64  18 2.64  48 2.64
                            43 2.64
  29  0.535  0.119  0.311-  64 2.41  55 2.42  53 2.42  72 2.62  78 2.62  74 2.63  57 2.64  15 2.64
                             1 2.64  56 2.64  13 2.64  27 2.66
  30  0.537  0.118  0.051-  19 2.41   7 2.41  37 2.41  28 2.64  16 2.64  59 2.64  58 2.64  18 2.64
                             4 2.64
  31  0.870  0.452  0.136-  42 2.41  48 2.41  10 2.41  12 2.49  61 2.49  51 2.52  22 2.64  21 2.64
                            25 2.64  11 2.64  32 2.64  38 2.64
  32  0.120  0.452  0.136-   6 2.41  10 2.41  18 2.41  46 2.49  12 2.50  60 2.51  38 2.64  54 2.64
                            21 2.64  37 2.64  45 2.64  31 2.64
  33  0.035  0.119  0.311-  49 2.42  61 2.42  26 2.42  67 2.62  70 2.63  71 2.63   2 2.63  56 2.63
                            13 2.64   9 2.64  23 2.66  47 2.66
  34  0.037  0.118  0.051-  35 2.41  38 2.41  11 2.41  24 2.64  10 2.64  48 2.64  16 2.64  58 2.64
                             5 2.64
  35  0.120  0.952  0.136-  34 2.41   5 2.41  24 2.41  26 2.49  49 2.50  52 2.51  11 2.64  38 2.64
                            54 2.64  44 2.64   8 2.64  62 2.64
  36  0.453  0.536  0.227-  27 2.42  41 2.42  14 2.43  44 2.50  22 2.51  45 2.51  51 2.62  50 2.62
                            63 2.63  52 2.63  60 2.63  64 2.63
  37  0.370  0.202  0.136-  18 2.41  16 2.41  30 2.41  53 2.49  46 2.50  64 2.51   7 2.64  19 2.64
                             8 2.64  45 2.64  32 2.64  38 2.64
  38  0.120  0.202  0.136-  10 2.41  34 2.41  16 2.41  46 2.48  26 2.51  61 2.51   8 2.64  35 2.64
                            32 2.64  11 2.64  37 2.64  31 2.64
  39  0.952  0.786  0.226-   1 2.41   3 2.41   2 2.42  62 2.49  21 2.50  54 2.50  52 2.64  12 2.64
                            49 2.64  60 2.64  55 2.64  20 2.65
  40  0.785  0.619  0.311-  20 2.41  12 2.42  51 2.42  73 2.63  68 2.63   3 2.64   9 2.64   1 2.64
                            57 2.64  47 2.64  14 2.65  80 2.67
  41  0.287  0.619  0.313-  36 2.42  52 2.43  60 2.43  23 2.61  77 2.62  27 2.62  14 2.62   3 2.66
                             2 2.66  79 2.67  15 2.67  75 2.70
  42  0.787  0.618  0.051-  31 2.41  21 2.41  25 2.41  48 2.64  10 2.64   4 2.64   6 2.64  59 2.64
                            17 2.64
  43  0.287  0.618  0.051-  45 2.41  44 2.41  54 2.41   6 2.64  18 2.64  17 2.64   5 2.64  24 2.64
                            28 2.64
  44  0.370  0.702  0.136-  24 2.41  43 2.41  17 2.41  50 2.50  36 2.50  52 2.51  54 2.64  25 2.64
                            45 2.64   8 2.64  35 2.64  22 2.64
  45  0.370  0.452  0.136-  43 2.41  18 2.41  28 2.41  64 2.49  60 2.50  36 2.51  22 2.64  44 2.64
                            37 2.64   7 2.64  54 2.64  32 2.64
  46  0.202  0.285  0.225-  15 2.41  13 2.42   9 2.42  38 2.48  32 2.49  37 2.50  53 2.64  12 2.64
                            26 2.65  61 2.65  64 2.65  60 2.66
  47  0.783  0.371  0.312-  51 2.42  63 2.42  61 2.44  27 2.62  68 2.62  14 2.62  70 2.62  56 2.64
                            40 2.64   9 2.66  33 2.66  76 2.68
  48  0.787  0.368  0.051-  11 2.41  31 2.41  22 2.41  10 2.64  42 2.64  34 2.64  58 2.64  28 2.64
                            17 2.64
  49  0.952  0.036  0.226-   2 2.41  33 2.42  56 2.42  11 2.49  62 2.50  35 2.50  26 2.64  61 2.64
                            39 2.64  55 2.64  52 2.65  63 2.65
  50  0.453  0.784  0.226-  57 2.42  23 2.42  14 2.43  44 2.50  25 2.51   8 2.51  51 2.62  36 2.62
                            52 2.64  26 2.64  20 2.64  53 2.65
  51  0.701  0.536  0.226-  40 2.42  47 2.42  14 2.44  22 2.50  25 2.50  31 2.52  50 2.62  36 2.62
                            63 2.64  20 2.64  61 2.64  12 2.65
  52  0.203  0.785  0.226-   2 2.42  23 2.42  41 2.43  54 2.50  35 2.51  44 2.51  60 2.62  36 2.63
                            26 2.63  50 2.64  39 2.64  49 2.65
  53  0.452  0.035  0.226-  57 2.41  29 2.42  13 2.42   8 2.49  37 2.49  19 2.50  20 2.63  55 2.64
                            26 2.64  46 2.64  50 2.65  64 2.66
  54  0.120  0.702  0.136-   5 2.41   6 2.41  43 2.41  60 2.50  39 2.50  52 2.50  44 2.64  35 2.64
                            32 2.64  62 2.64  21 2.64  45 2.64
  55  0.702  0.036  0.226-   1 2.41  29 2.42  56 2.42   7 2.49  19 2.50  62 2.50  53 2.64  63 2.64
                            64 2.64  49 2.64  39 2.64  20 2.64
  56  0.786  0.119  0.311-  63 2.41  55 2.42  49 2.42  78 2.62  65 2.63   2 2.63  70 2.63  33 2.63
                             1 2.63  47 2.64  29 2.64  27 2.66
  57  0.535  0.870  0.311-  53 2.41  50 2.42  20 2.42  72 2.63  69 2.63  29 2.64  13 2.64  40 2.64
                            23 2.64   1 2.64  14 2.64  80 2.66
  58  0.787  0.118  0.051-  62 2.41  11 2.41   7 2.41   5 2.64  28 2.64  48 2.64  30 2.64  34 2.64
                             4 2.64
  59  0.537  0.868  0.051-  25 2.41  19 2.41   8 2.41  16 2.64  30 2.64  42 2.64   4 2.64  17 2.64
                            24 2.64
  60  0.203  0.536  0.226-  15 2.41   3 2.41  41 2.43  54 2.50  45 2.50  32 2.51  52 2.62  64 2.63
                            36 2.63  39 2.64  46 2.66  12 2.66
  61  0.951  0.286  0.226-   9 2.42  33 2.42  47 2.44  31 2.49  11 2.50  38 2.51  63 2.63  49 2.64
                            51 2.64  12 2.64  46 2.65  26 2.66
  62  0.870  0.952  0.136-  58 2.41   4 2.41   5 2.41  39 2.49  49 2.50  55 2.50   7 2.64  19 2.64
                            21 2.64  54 2.64  11 2.64  35 2.64
  63  0.701  0.286  0.226-  56 2.41  47 2.42  27 2.43  22 2.50   7 2.50  11 2.51  64 2.62  36 2.63
                            61 2.63  51 2.64  55 2.64  49 2.65
  64  0.453  0.287  0.226-  29 2.41  15 2.42  27 2.43  45 2.49   7 2.51  37 2.51  63 2.62  60 2.63
                            36 2.63  55 2.64  46 2.65  53 2.66
  65  0.869  0.953  0.409-  78 2.62  77 2.62  56 2.63   2 2.63  67 2.63  70 2.63  72 2.64  73 2.64
                             1 2.64
  66  0.117  0.452  0.408-  79 2.60  68 2.61   9 2.62   3 2.63  15 2.63  71 2.63  73 2.64  74 2.64
                            77 2.65
  67  0.118  0.954  0.409-  75 2.62  33 2.62  70 2.63  23 2.63  65 2.63  71 2.63   2 2.63  77 2.64
                            69 2.64
  68  0.870  0.452  0.408-  66 2.61   9 2.62  47 2.62  71 2.62  40 2.63  76 2.64  70 2.64  73 2.65
                            80 2.66
  69  0.367  0.955  0.408-  13 2.61  74 2.61  23 2.62  71 2.62  57 2.63  75 2.64  67 2.64  72 2.65
                            80 2.66
  70  0.869  0.202  0.409-  76 2.62  47 2.62  67 2.63  33 2.63  65 2.63  56 2.63  71 2.63  78 2.64
                            68 2.64
  71  0.118  0.203  0.408-  68 2.62  69 2.62   9 2.63  33 2.63  13 2.63  66 2.63  74 2.63  67 2.63
                            70 2.63
  72  0.619  0.954  0.408-  80 2.60  78 2.62  29 2.62  57 2.63   1 2.63  65 2.64  74 2.64  73 2.65
                            69 2.65
  73  0.869  0.703  0.408-  80 2.60  77 2.61   3 2.62   1 2.62  40 2.63  65 2.64  66 2.64  72 2.65
                            68 2.65
  74  0.368  0.202  0.408-  79 2.60  69 2.61  13 2.62  15 2.62  29 2.63  71 2.63  72 2.64  66 2.64
                            78 2.65
  75  0.365  0.706  0.414-  81 1.96  82 1.98  67 2.62  77 2.64  69 2.64  23 2.68  41 2.70  76 2.71
                            14 2.71  79 2.71  80 2.71
  76  0.621  0.450  0.414-  81 1.96  82 1.97  70 2.62  78 2.64  68 2.64  47 2.68  27 2.70  14 2.70
                            75 2.71  79 2.71  80 2.71
  77  0.117  0.704  0.408-  73 2.61   2 2.62  41 2.62   3 2.62  65 2.62  75 2.64  67 2.64  66 2.65
                            79 2.66
  78  0.619  0.201  0.408-  27 2.61  72 2.62  56 2.62  29 2.62  65 2.62  76 2.64  70 2.64  74 2.65
                            79 2.66
  79  0.365  0.450  0.411-  81 1.72  66 2.60  74 2.60  78 2.66  77 2.66  41 2.67  15 2.67  27 2.67
                            76 2.71  75 2.71
  80  0.622  0.706  0.411-  82 1.70  72 2.60  73 2.60  69 2.66  68 2.66  57 2.66  40 2.67  14 2.68
                            76 2.71  75 2.71
  81  0.438  0.524  0.460-  79 1.72  75 1.96  76 1.96
  82  0.550  0.633  0.460-  80 1.70  76 1.97  75 1.98
 
  LATTYP: Found a hexagonal cell.
 ALAT       =    10.5600004196
 C/A-ratio  =     2.0833332505
  
  Lattice vectors:
  
 A1 = (   5.2800002098,  -9.1452286274,   0.0000000000)
 A2 = ( -10.5600004196,   0.0000000000,   0.0000000000)
 A3 = (   0.0000000000,   0.0000000000, -22.0000000000)


Analysis of symmetry for initial positions (statically):
=====================================================================
 Subroutine PRICEL returns:
 Original cell was already a primitive cell.
 

 Routine SETGRP: Setting up the symmetry group for a 
 hexagonal supercell.


 Subroutine GETGRP returns: Found  1 space group operations
 (whereof  1 operations were pure point group operations)
 out of a pool of 24 trial point group operations.


The static configuration has the point symmetry C_1 .


Analysis of symmetry for dynamics (positions and initial velocities):
=====================================================================
 Subroutine PRICEL returns:
 Original cell was already a primitive cell.
 

 Routine SETGRP: Setting up the symmetry group for a 
 hexagonal supercell.


 Subroutine GETGRP returns: Found  1 space group operations
 (whereof  1 operations were pure point group operations)
 out of a pool of 24 trial point group operations.


The dynamic configuration has the point symmetry C_1 .


Analysis of constrained symmetry for selective dynamics:
=====================================================================
 Subroutine PRICEL returns:
 Original cell was already a primitive cell.
 

 Routine SETGRP: Setting up the symmetry group for a 
 hexagonal supercell.


 Subroutine GETGRP returns: Found  1 space group operations
 (whereof  1 operations were pure point group operations)
 out of a pool of 24 trial point group operations.


The constrained configuration has the point symmetry C_1 .


Analysis of structural, dynamic, and magnetic symmetry:
=====================================================================
 Subroutine PRICEL returns:
 Original cell was already a primitive cell.
 

 Routine SETGRP: Setting up the symmetry group for a 
 hexagonal supercell.


 Subroutine GETGRP returns: Found  1 space group operations
 (whereof  1 operations were pure point group operations)
 out of a pool of 24 trial point group operations.


The magnetic configuration has the point symmetry C_1 .


 Subroutine INISYM returns: Found  1 space group operations
 (whereof  1 operations are pure point group operations),
 and found     1 'primitive' translations

 
 
 KPOINTS: mesh auto                               

Automatic generation of k-mesh.
Space group operators:
 irot       det(A)        alpha          n_x          n_y          n_z        tau_x        tau_y        tau_z
    1     1.000000     0.000001     1.000000     0.000000     0.000000     0.000000     0.000000     0.000000
 
 Subroutine IBZKPT returns following result:
 ===========================================
 
 Found      4 irreducible k-points:
 
 Following reciprocal coordinates:
            Coordinates               Weight
  0.000000  0.000000  0.000000      1.000000
  0.500000  0.000000  0.000000      1.000000
  0.000000  0.500000  0.000000      1.000000
  0.500000  0.500000  0.000000      1.000000
 
 Following cartesian coordinates:
            Coordinates               Weight
  0.000000  0.000000  0.000000      1.000000
  0.047348 -0.027337  0.000000      1.000000
  0.000000  0.054673  0.000000      1.000000
  0.047348  0.027337  0.000000      1.000000
 
 TETIRR: Found     12 inequivalent tetrahedra from       24
 
 Subroutine IBZKPT_HF returns following result:
 ==============================================
 
 Found      4 k-points in 1st BZ
 the following      4 k-points will be used (e.g. in the exchange kernel)
 Following reciprocal coordinates:   # in IRBZ
  0.000000  0.000000  0.000000    0.25000000   1 t-inv F
  0.500000  0.000000  0.000000    0.25000000   2 t-inv F
  0.000000  0.500000  0.000000    0.25000000   3 t-inv F
  0.500000  0.500000  0.000000    0.25000000   4 t-inv F


--------------------------------------------------------------------------------------------------------




 Dimension of arrays:
   k-points           NKPTS =      4   k-points in BZ     NKDIM =      4   number of bands    NBANDS=    520
   number of dos      NEDOS =    301   number of ions     NIONS =     82
   non local maximal  LDIM  =      6   non local SUM 2l+1 LMDIM =     18
   total plane-waves  NPLWV = ******
   max r-space proj   IRMAX =   7802   max aug-charges    IRDMAX=  33988
   dimension x,y,z NGX =    84 NGY =   84 NGZ =  168
   dimension x,y,z NGXF=   168 NGYF=  168 NGZF=  336
   support grid    NGXF=   168 NGYF=  168 NGZF=  336
   ions per type =              64  16   2
   NGX,Y,Z   is equivalent  to a cutoff of  13.22, 13.22, 12.70 a.u.
   NGXF,Y,Z  is equivalent  to a cutoff of  26.45, 26.45, 25.39 a.u.

 SYSTEM =  Pt111                                   
 POSCAR =  PtM\(2)                                 

 Startparameter for this run:
   NWRITE =      2    write-flag & timer
   PREC   = accura    normal or accurate (medium, high low for compatibility)
   ISTART =      0    job   : 0-new  1-cont  2-samecut
   ICHARG =      2    charge: 1-file 2-atom 10-const
   ISPIN  =      2    spin polarized calculation?
   LNONCOLLINEAR =      F non collinear calculations
   LSORBIT =      F    spin-orbit coupling
   INIWAV =      1    electr: 0-lowe 1-rand  2-diag
   LASPH  =      F    aspherical Exc in radial PAW
   METAGGA=      F    non-selfconsistent MetaGGA calc.

 Electronic Relaxation 1
   ENCUT  =  550.0 eV  40.42 Ry    6.36 a.u.  20.19 20.19 42.07*2*pi/ulx,y,z
   ENINI  =  550.0     initial cutoff
   ENAUG  =  477.8 eV  augmentation charge cutoff
   NELM   =    200;   NELMIN=  2; NELMDL= -5     # of ELM steps 
   EDIFF  = 0.1E-04   stopping-criterion for ELM
   LREAL  =      T    real-space projection
   NLSPLINE    = F    spline interpolate recip. space projectors
   LCOMPAT=      F    compatible to vasp.4.4
   GGA_COMPAT  = T    GGA compatible to vasp.4.4-vasp.4.6
   LMAXPAW     = -100 max onsite density
   LMAXMIX     =    2 max onsite mixed and CHGCAR
   VOSKOWN=      0    Vosko Wilk Nusair interpolation
   ROPT   =   -0.00025  -0.00025  -0.00025
 Ionic relaxation
   EDIFFG = -.5E-01   stopping-criterion for IOM
   NSW    =   1021    number of steps for IOM
   NBLOCK =      1;   KBLOCK =   1021    inner block; outer block 
   IBRION =      5    ionic relax: 0-MD 1-quasi-New 2-CG
   NFREE  =      2    steps in history (QN), initial steepest desc. (CG)
   ISIF   =      2    stress and relaxation
   IWAVPR =     11    prediction:  0-non 1-charg 2-wave 3-comb
   ISYM   =      2    0-nonsym 1-usesym 2-fastsym
   LCORR  =      T    Harris-Foulkes like correction to forces

   POTIM  = 0.5000    time-step for ionic-motion
   TEIN   =    0.0    initial temperature
   TEBEG  =    0.0;   TEEND  =   0.0 temperature during run
   SMASS  =  -3.00    Nose mass-parameter (am)
   estimated Nose-frequenzy (Omega)   =  0.10E-29 period in steps =****** mass=  -0.255E-26a.u.
   SCALEE = 1.0000    scale energy and forces
   NPACO  =    256;   APACO  = 16.0  distance and # of slots for P.C.
   PSTRESS=    0.0 pullay stress

  Mass of Ions in am
   POMASS =  58.93195.08  1.00
  Ionic Valenz
   ZVAL   =   9.00 10.00  1.00
  Atomic Wigner-Seitz radii
   RWIGS  =  -1.00 -1.00 -1.00
  virtual crystal weights 
   VCA    =   1.00  1.00  1.00
   NELECT =     738.0000    total number of electrons
   NUPDOWN=      -1.0000    fix difference up-down

 DOS related values:
   EMIN   =  10.00;   EMAX   =-10.00  energy-range for DOS
   EFERMI =   0.00
   ISMEAR =    -5;   SIGMA  =   0.10  broadening in eV -4-tet -1-fermi 0-gaus

 Electronic relaxation 2 (details)
   IALGO  =     68    algorithm
   LDIAG  =      T    sub-space diagonalisation (order eigenvalues)
   LSUBROT=      F    optimize rotation matrix (better conditioning)
   TURBO    =      0    0=normal 1=particle mesh
   IRESTART =      0    0=no restart 2=restart with 2 vectors
   NREBOOT  =      0    no. of reboots
   NMIN     =      0    reboot dimension
   EREF     =   0.00    reference energy to select bands
   IMIX   =      4    mixing-type and parameters
     AMIX     =   0.40;   BMIX     =  1.00
     AMIX_MAG =   1.60;   BMIX_MAG =  1.00
     AMIN     =   0.10
     WC   =   100.;   INIMIX=   1;  MIXPRE=   1;  MAXMIX= -45

 Intra band minimization:
   WEIMIN = 0.0010     energy-eigenvalue tresh-hold
   EBREAK =  0.48E-08  absolut break condition
   DEPER  =   0.30     relativ break condition  

   TIME   =   0.40     timestep for ELM

  volume/ion in A,a.u.               =      25.91       174.85
  Fermi-wavevector in a.u.,A,eV,Ry     =   1.150800  2.174697 18.018751  1.324341
  Thomas-Fermi vector in A             =   2.287462
 
 Write flags
   LWAVE        =      F    write WAVECAR
   LDOWNSAMPLE  =      F    k-point downsampling of WAVECAR
   LCHARG       =      F    write CHGCAR
   LVTOT        =      F    write LOCPOT, total local potential
   LVHAR        =      F    write LOCPOT, Hartree potential only
   LELF         =      F    write electronic localiz. function (ELF)
   LORBIT       =      0    0 simple, 1 ext, 2 COOP (PROOUT), +10 PAW based schemes


 Dipole corrections
   LMONO  =      F    monopole corrections only (constant potential shift)
   LDIPOL =      F    correct potential (dipole corrections)
   IDIPOL =      0    1-x, 2-y, 3-z, 4-all directions 
   EPSILON=  1.0000000 bulk dielectric constant

 Exchange correlation treatment:
   GGA     =    --    GGA type
   LEXCH   =     8    internal setting for exchange type
   VOSKOWN=      0    Vosko Wilk Nusair interpolation
   LHFCALC =     F    Hartree Fock is set to
   LHFONE  =     F    Hartree Fock one center treatment
   AEXX    =    0.0000 exact exchange contribution

 Linear response parameters
   LEPSILON=     F    determine dielectric tensor
   LRPA    =     F    only Hartree local field effects (RPA)
   LNABLA  =     F    use nabla operator in PAW spheres
   LVEL    =     F    velocity operator in full k-point grid
   LINTERFAST=   F  fast interpolation
   KINTER  =     0    interpolate to denser k-point grid
   CSHIFT  =0.1000    complex shift for real part using Kramers Kronig
   OMEGAMAX=  -1.0    maximum frequency
   DEG_THRESHOLD= 0.2000000E-02 threshold for treating states as degnerate
   RTIME   =   -0.100 relaxation time in fs
  (WPLASMAI=    0.000 imaginary part of plasma frequency in eV, 0.658/RTIME)
   DFIELD  = 0.0000000 0.0000000 0.0000000 field for delta impulse in time
 
 Orbital magnetization related:
   ORBITALMAG=     F  switch on orbital magnetization
   LCHIMAG   =     F  perturbation theory with respect to B field
   DQ        =  0.001000  dq finite difference perturbation B field
   LLRAUG    =     F  two centre corrections for induced B field



--------------------------------------------------------------------------------------------------------


 finite differences
   using selective dynamics as specified on POSCAR
   WARNING: If single coordinates had been selected the selection of coordinates
            is made according to the corresponding   d i r e c t   coordinates!
            Don't support selection of single cartesian coordinates -- sorry ...
  !
 charge density and potential will be updated during run
 spin polarized calculation
 RMM-DIIS sequential band-by-band and
  variant of blocked Davidson during initial phase
 perform sub-space diagonalisation
    before iterative eigenvector-optimisation
 modified Broyden-mixing scheme, WC =      100.0
 initial mixing is a Kerker type mixing with AMIX =  0.4000 and BMIX =      1.0000
 Hartree-type preconditioning will be used
 using additional bands          151
 real space projection scheme for non local part
 use partial core corrections
 calculate Harris-corrections to forces 
   (improved forces if not selfconsistent)
 use gradient corrections 
 use of overlap-Matrix (Vanderbilt PP)
 Fermi weights with tetrahedron method with Bloechl corrections


--------------------------------------------------------------------------------------------------------


  energy-cutoff  :      550.00
  volume of cell :     2124.62
      direct lattice vectors                 reciprocal lattice vectors
    10.560000420  0.000000000  0.000000000     0.094696966 -0.054673319  0.000000000
     5.280000210  9.145228627  0.000000000     0.000000000  0.109346638  0.000000000
     0.000000000  0.000000000 22.000000000     0.000000000  0.000000000  0.045454545

  length of vectors
    10.560000420 10.560000420 22.000000000     0.109346638  0.109346638  0.045454545


 
 k-points in units of 2pi/SCALE and weight: mesh auto                               
   0.00000000  0.00000000  0.00000000       0.250
   0.04734848 -0.02733666  0.00000000       0.250
   0.00000000  0.05467332  0.00000000       0.250
   0.04734848  0.02733666  0.00000000       0.250
 
 k-points in reciprocal lattice and weights: mesh auto                               
   0.00000000  0.00000000  0.00000000       0.250
   0.50000000  0.00000000  0.00000000       0.250
   0.00000000  0.50000000  0.00000000       0.250
   0.50000000  0.50000000  0.00000000       0.250
 
 position of ions in fractional coordinates (direct lattice) 
   0.78565487  0.86940763  0.31077956
   0.03458392  0.86985215  0.31111394
   0.03548953  0.61908406  0.31095822
   0.78672737  0.86796427  0.05124594
   0.03655829  0.86811559  0.05129685
   0.03663850  0.61800272  0.05132683
   0.61974581  0.20156539  0.13598422
   0.36965812  0.95165874  0.13596282
   0.03505034  0.36906463  0.31109036
   0.03659631  0.36812104  0.05134006
   0.86964458  0.20165938  0.13596857
   0.95162064  0.53584931  0.22586990
   0.28506621  0.11905273  0.31110416
   0.53502488  0.61921648  0.31324000
   0.28384097  0.36790948  0.31077843
   0.28668923  0.11816423  0.05129869
   0.53643122  0.61808880  0.05123215
   0.28654946  0.36808879  0.05135412
   0.61968552  0.95160862  0.13594574
   0.70182595  0.78554938  0.22594812
   0.86960684  0.70164345  0.13597445
   0.61967870  0.45169725  0.13595188
   0.28649695  0.86670774  0.31209010
   0.28644846  0.86814797  0.05128443
   0.61958777  0.70166494  0.13591218
   0.20272910  0.03412123  0.22613474
   0.53480398  0.37106049  0.31250353
   0.53667278  0.36796893  0.05129270
   0.53519902  0.11935322  0.31100308
   0.53667273  0.11808196  0.05128312
   0.86953476  0.45175991  0.13600323
   0.11968810  0.45163155  0.13605895
   0.03505819  0.11898768  0.31118617
   0.03670730  0.11813552  0.05129760
   0.11958412  0.95170982  0.13599964
   0.45260309  0.53612687  0.22662022
   0.36976480  0.20160926  0.13602383
   0.11971248  0.20160801  0.13602195
   0.95232917  0.78554623  0.22580656
   0.78541674  0.61947387  0.31120076
   0.28700253  0.61895832  0.31253845
   0.78661220  0.61805706  0.05124911
   0.28651464  0.61802871  0.05130543
   0.36959900  0.70170145  0.13596552
   0.36974844  0.45164511  0.13601924
   0.20193710  0.28531351  0.22545756
   0.78270280  0.37054312  0.31208248
   0.78671851  0.36806138  0.05126972
   0.95230067  0.03569697  0.22575688
   0.45254475  0.78422555  0.22647396
   0.70062346  0.53621374  0.22649273
   0.20269941  0.78474026  0.22631315
   0.45236499  0.03510953  0.22586218
   0.11964839  0.70167811  0.13601062
   0.70193084  0.03586687  0.22584915
   0.78572233  0.11886283  0.31104815
   0.53529099  0.86950634  0.31121685
   0.78671389  0.11805280  0.05126078
   0.53658682  0.86813335  0.05124811
   0.20333895  0.53606761  0.22625491
   0.95058942  0.28624288  0.22613094
   0.86955967  0.95164736  0.13596443
   0.70110626  0.28638634  0.22629563
   0.45257410  0.28679207  0.22625975
   0.86860033  0.95336245  0.40871285
   0.11746437  0.45240767  0.40813084
   0.11760260  0.95375624  0.40868195
   0.87022345  0.45185879  0.40822399
   0.36711870  0.95490643  0.40824778
   0.86896532  0.20239961  0.40863217
   0.11815823  0.20288242  0.40848687
   0.61871737  0.95402710  0.40809317
   0.86936557  0.70342119  0.40810091
   0.36773414  0.20212867  0.40814549
   0.36511533  0.70624474  0.41403922
   0.62143052  0.44996502  0.41405750
   0.11657937  0.70419943  0.40807489
   0.61948670  0.20130534  0.40807905
   0.36514188  0.44984625  0.41123159
   0.62163592  0.70638223  0.41139982
   0.43831975  0.52385433  0.45962611
   0.54958492  0.63331162  0.45990703
 
 position of ions in cartesian coordinates  (Angst):
  12.88698822  7.95093154  6.83715034
   4.95802573  7.95499681  6.84450678
   3.64353343  5.66166530  6.84108076
  12.89069282  7.93773165  1.12741065
   4.96970603  7.93911553  1.12853070
   3.64995711  5.65177617  1.12919030
   7.60878135  1.84336156  2.99165289
   8.92834820  8.70313676  2.99118200
   2.31879297  3.37518040  6.84398788
   2.33013621  3.36655108  1.12948134
  10.24820871  1.84422114  2.99130850
  12.87839882  4.90046447  4.96913788
   3.63889776  1.08876442  6.84429163
   8.91932616  5.66287631  6.89127998
   4.93992288  3.36461629  6.83712545
   3.65134558  1.08063889  1.12857113
   8.92822296  5.65256340  1.12710731
   4.96947128  3.36625614  1.12979070
  11.56837308  8.70267838  2.99080638
  11.55898319  7.18402868  4.97085853
  12.88772622  6.41668978  2.99143800
   8.92876895  4.13087463  2.99094130
   7.60162492  7.92624040  6.86598218
   7.60871732  7.93941164  1.12825737
  10.24763817  6.41688629  2.99006786
   2.32097955  0.31204648  4.97496423
   7.60672975  3.39343302  6.87507776
   7.61014081  3.36515998  1.12843932
   6.28188693  1.09151253  6.84206786
   6.29073703  1.07988653  1.12822855
  11.56757982  4.13144765  2.99207102
   3.64852106  4.13027377  2.99329699
   0.99846945  1.08816951  6.84609571
   1.01138472  1.08037638  1.12854727
   6.28783640  8.70360389  2.99199201
   7.61023887  4.90300284  4.98564495
   4.96921340  1.84376278  2.99252428
   2.32865418  1.84375135  2.99248299
  14.20428066  7.18399983  4.96774423
  11.56482320  5.66523013  6.84641665
   6.29884697  5.66051538  6.87584592
  11.56996659  5.65227313  1.12748032
   6.28878646  5.65201383  1.12871950
   7.60794938  6.41722021  2.99124143
   6.28923001  4.13039782  2.99242328
   3.63891121  2.60925729  4.96006641
  10.22180968  3.38870159  6.86581449
  10.25111193  3.36600545  1.12793384
  10.24477551  0.32645694  4.96665130
   8.91958377  7.17192195  4.98242702
  10.22979265  4.90379721  4.98284015
   6.28393459  7.17662910  4.97888922
   4.96235284  0.32108467  4.96896797
   4.96834764  6.41700677  2.99223361
   7.60176703  0.32801069  4.96868133
   8.92482392  1.08702774  6.84305940
  10.24366671  7.95183430  6.84677075
   8.93101782  1.07961985  1.12773711
  10.25010137  7.93927801  1.12745837
   4.97769652  4.90246082  4.97760797
  11.54958717  2.61775658  4.97488071
  14.20724879  8.70303269  2.99121738
   8.91580230  2.61906851  4.97850394
   6.29344493  2.62277908  4.97771447
  14.20617374  8.71871756  8.99168269
   3.62913635  4.13737154  8.97887853
   6.27771664  8.72231886  8.99100286
  11.57537447  4.13235193  8.98092772
   8.91867977  8.73283758  8.98145114
  10.24494418  1.85099072  8.98990773
   2.31897022  1.85540613  8.98671104
  11.57091900  8.72479593  8.97804982
  12.89456483  6.43294759  8.97822000
   4.95051213  1.84851292  8.97920088
   7.58459042  6.45876965  9.10886275
   8.93812199  4.11503300  9.10926494
   4.94925139  6.44006483  8.97764768
   7.60467198  1.84098332  8.97773901
   6.23108671  4.11394679  9.04709498
  10.29417388  6.46002695  9.05079607
   7.39460769  4.79076760 10.11177438
   9.14750244  5.79177958 10.11795463
 


--------------------------------------------------------------------------------------------------------


 k-point  1 :   0.0000 0.0000 0.0000  plane waves:   62167
 k-point  2 :   0.5000 0.0000 0.0000  plane waves:   62242
 k-point  3 :   0.0000 0.5000 0.0000  plane waves:   62242
 k-point  4 :   0.5000 0.5000 0.0000  plane waves:   62242

 maximum and minimum number of plane-waves per node :     62242    62167

 maximum number of plane-waves:     62242
 maximum index in each direction: 
   IXMAX=   20   IYMAX=   20   IZMAX=   42
   IXMIN=  -20   IYMIN=  -20   IZMIN=  -42


 serial   3D FFT for wavefunctions
 parallel 3D FFT for charge:
    minimum data exchange during FFTs selected (reduces bandwidth)


 total amount of memory used by VASP MPI-rank0   356229. kBytes
=======================================================================

   base      :      30000. kBytes
   nonlr-proj:      83572. kBytes
   fftplans  :      13995. kBytes
   grid      :     120016. kBytes
   one-center:       2550. kBytes
   wavefun   :     106096. kBytes
 
     INWAV:  cpu time    0.0000: real time    0.0000
 Broyden mixing: mesh for mixing (old mesh)
   NGX = 41   NGY = 41   NGZ = 85
  (NGX  =168   NGY  =168   NGZ  =336)
  gives a total of 142885 points

 initial charge density was supplied:
 charge density of overlapping atoms calculated
 number of electron     738.0000000 magnetization      82.0000000
 keeping initial charge density in first step


--------------------------------------------------------------------------------------------------------


 Maximum index for non-local projection operator         7539
 Maximum index for augmentation-charges         1524 (set IRDMAX)


--------------------------------------------------------------------------------------------------------


 First call to EWALD:  gamma=   0.138
 Maximum number of real-space cells 4x 4x 2
 Maximum number of reciprocal cells 2x 2x 4

    FEWALD:  cpu time    0.0041: real time    0.0041


--------------------------------------- Iteration      1(   1)  ---------------------------------------


    POTLOK:  cpu time    0.4997: real time    0.5051
    SETDIJ:  cpu time    0.0349: real time    0.0353
     EDDAV:  cpu time   45.8101: real time   45.9439
 BZINTS: Fermi energy: 14.781248;738.000000 electrons
         Band energy:6822.153382;  BLOECHL correction: -0.011720
       DOS:  cpu time    0.0162: real time    0.0163
    --------------------------------------------
      LOOP:  cpu time   46.3610: real time   46.5006

 eigenvalue-minimisations  :  8320
 total energy-change (2. order) : 0.6287285E+04  (-0.3265155E+05)
 number of electron     738.0000000 magnetization      82.0000000
 augmentation part      738.0000000 magnetization      82.0000000

 Free energy of the ion-electron system (eV)
  ---------------------------------------------------
  alpha Z        PSCENC =      1576.27060381
  Ewald energy   TEWEN  =    228386.20292109
  -Hartree energ DENC   =   -292422.40217709
  -exchange      EXHF   =         0.00000000
  -V(xc)+E(xc)   XCENC  =      1119.79766768
  PAW double counting   =     57277.87247862   -60218.75697726
  entropy T*S    EENTRO =         0.00000000
  eigenvalues    EBANDS =      6822.15338163
  atomic energy  EATOM  =     63746.14722204
  Solvation  Ediel_sol  =         0.00000000
  ---------------------------------------------------
  free energy    TOTEN  =      6287.28512053 eV

  energy without entropy =     6287.28512053  energy(sigma->0) =     6287.28512053


--------------------------------------------------------------------------------------------------------




--------------------------------------- Iteration      1(   2)  ---------------------------------------


     EDDAV:  cpu time   46.1682: real time   46.2882
 BZINTS: Fermi energy:  4.257716;738.000000 electrons
         Band energy: 708.633353;  BLOECHL correction: -0.011326
       DOS:  cpu time    0.0169: real time    0.0169
    --------------------------------------------
      LOOP:  cpu time   46.1850: real time   46.3051

 eigenvalue-minimisations  :  8320
 total energy-change (2. order) :-0.6113520E+04  (-0.5687719E+04)
 number of electron     738.0000000 magnetization      82.0000000
 augmentation part      738.0000000 magnetization      82.0000000

 Free energy of the ion-electron system (eV)
  ---------------------------------------------------
  alpha Z        PSCENC =      1576.27060381
  Ewald energy   TEWEN  =    228386.20292109
  -Hartree energ DENC   =   -292422.40217709
  -exchange      EXHF   =         0.00000000
  -V(xc)+E(xc)   XCENC  =      1119.79766768
  PAW double counting   =     57277.87247862   -60218.75697726
  entropy T*S    EENTRO =         0.00000000
  eigenvalues    EBANDS =       708.63335303
  atomic energy  EATOM  =     63746.14722204
  Solvation  Ediel_sol  =         0.00000000
  ---------------------------------------------------
  free energy    TOTEN  =       173.76509193 eV

  energy without entropy =      173.76509193  energy(sigma->0) =      173.76509193


--------------------------------------------------------------------------------------------------------




--------------------------------------- Iteration      1(   3)  ---------------------------------------


     EDDAV:  cpu time   49.9963: real time   50.1148
 BZINTS: Fermi energy:  2.849627;738.000000 electrons
         Band energy: -10.575463;  BLOECHL correction: -0.132041
       DOS:  cpu time    0.0176: real time    0.0177
    --------------------------------------------
      LOOP:  cpu time   50.0139: real time   50.1325

 eigenvalue-minimisations  :  9280
 total energy-change (2. order) :-0.7192088E+03  (-0.5869086E+03)
 number of electron     738.0000000 magnetization      82.0000000
 augmentation part      738.0000000 magnetization      82.0000000

 Free energy of the ion-electron system (eV)
  ---------------------------------------------------
  alpha Z        PSCENC =      1576.27060381
  Ewald energy   TEWEN  =    228386.20292109
  -Hartree energ DENC   =   -292422.40217709
  -exchange      EXHF   =         0.00000000
  -V(xc)+E(xc)   XCENC  =      1119.79766768
  PAW double counting   =     57277.87247862   -60218.75697726
  entropy T*S    EENTRO =         0.00000000
  eigenvalues    EBANDS =       -10.57546328
  atomic energy  EATOM  =     63746.14722204
  Solvation  Ediel_sol  =         0.00000000
  ---------------------------------------------------
  free energy    TOTEN  =      -545.44372439 eV

  energy without entropy =     -545.44372439  energy(sigma->0) =     -545.44372439


--------------------------------------------------------------------------------------------------------




--------------------------------------- Iteration      1(   4)  ---------------------------------------


     EDDAV:  cpu time   51.9135: real time   52.0560
 BZINTS: Fermi energy:  2.767851;738.000000 electrons
         Band energy: -58.521724;  BLOECHL correction: -0.144042
       DOS:  cpu time    0.0184: real time    0.0185
    --------------------------------------------
      LOOP:  cpu time   51.9319: real time   52.0745

 eigenvalue-minimisations  :  9720
 total energy-change (2. order) :-0.4794626E+02  (-0.4556796E+02)
 number of electron     738.0000000 magnetization      82.0000000
 augmentation part      738.0000000 magnetization      82.0000000

 Free energy of the ion-electron system (eV)
  ---------------------------------------------------
  alpha Z        PSCENC =      1576.27060381
  Ewald energy   TEWEN  =    228386.20292109
  -Hartree energ DENC   =   -292422.40217709
  -exchange      EXHF   =         0.00000000
  -V(xc)+E(xc)   XCENC  =      1119.79766768
  PAW double counting   =     57277.87247862   -60218.75697726
  entropy T*S    EENTRO =         0.00000000
  eigenvalues    EBANDS =       -58.52172438
  atomic energy  EATOM  =     63746.14722204
  Solvation  Ediel_sol  =         0.00000000
  ---------------------------------------------------
  free energy    TOTEN  =      -593.38998548 eV

  energy without entropy =     -593.38998548  energy(sigma->0) =     -593.38998548


--------------------------------------------------------------------------------------------------------




--------------------------------------- Iteration      1(   5)  ---------------------------------------


     EDDAV:  cpu time   53.5112: real time   53.6581
 BZINTS: Fermi energy:  2.766401;738.000000 electrons
         Band energy: -59.409608;  BLOECHL correction: -0.144094
       DOS:  cpu time    0.0188: real time    0.0188
    CHARGE:  cpu time    2.7174: real time    2.7247
    MIXING:  cpu time    0.0099: real time    0.0104
    --------------------------------------------
      LOOP:  cpu time   56.2573: real time   56.4121

 eigenvalue-minimisations  : 10080
 total energy-change (2. order) :-0.8878838E+00  (-0.8867514E+00)
 number of electron     738.0000212 magnetization      81.5343413
 augmentation part      341.2349202 magnetization      61.4381844

 Broyden mixing:
  rms(total) = 0.89671E+01    rms(broyden)= 0.89671E+01
  rms(prec ) = 0.94274E+01
  weight for this iteration     100.00

 Free energy of the ion-electron system (eV)
  ---------------------------------------------------
  alpha Z        PSCENC =      1576.27060381
  Ewald energy   TEWEN  =    228386.20292109
  -Hartree energ DENC   =   -292422.40217709
  -exchange      EXHF   =         0.00000000
  -V(xc)+E(xc)   XCENC  =      1119.79766768
  PAW double counting   =     57277.87247862   -60218.75697726
  entropy T*S    EENTRO =         0.00000000
  eigenvalues    EBANDS =       -59.40960822
  atomic energy  EATOM  =     63746.14722204
  Solvation  Ediel_sol  =         0.00000000
  ---------------------------------------------------
  free energy    TOTEN  =      -594.27786933 eV

  energy without entropy =     -594.27786933  energy(sigma->0) =     -594.27786933


--------------------------------------------------------------------------------------------------------




--------------------------------------- Iteration      1(   6)  ---------------------------------------


    POTLOK:  cpu time    0.4405: real time    0.4418
    SETDIJ:  cpu time    0.0344: real time    0.0345
    EDDIAG:  cpu time    7.8940: real time    7.9160
  RMM-DIIS:  cpu time   31.5487: real time   31.6353
    ORTHCH:  cpu time    1.0589: real time    1.0618
 BZINTS: Fermi energy:  1.892914;738.000000 electrons
         Band energy:***********;  BLOECHL correction: -0.086472
       DOS:  cpu time    0.0151: real time    0.0151
    CHARGE:  cpu time    2.6470: real time    2.6544
    MIXING:  cpu time    0.0102: real time    0.0105
    --------------------------------------------
      LOOP:  cpu time   43.6489: real time   43.7695

 eigenvalue-minimisations  :  8334
 total energy-change (2. order) :-0.1198618E+03  (-0.8080610E+02)
 number of electron     738.0000241 magnetization      80.7832652
 augmentation part      386.9123396 magnetization      71.5078728

 Broyden mixing:
  rms(total) = 0.17152E+02    rms(broyden)= 0.17152E+02
  rms(prec ) = 0.19937E+02
  weight for this iteration     100.00

 eigenvalues of (default mixing * dielectric matrix)
  average eigenvalue GAMMA=   0.2411
  0.2411

 Free energy of the ion-electron system (eV)
  ---------------------------------------------------
  alpha Z        PSCENC =      1576.27060381
  Ewald energy   TEWEN  =    228386.20292109
  -Hartree energ DENC   =   -291678.99613024
  -exchange      EXHF   =         0.00000000
  -V(xc)+E(xc)   XCENC  =      1069.88127809
  PAW double counting   =     62006.33186918   -64651.48512902
  entropy T*S    EENTRO =         0.00000000
  eigenvalues    EBANDS =     -1168.49231736
  atomic energy  EATOM  =     63746.14722204
  Solvation  Ediel_sol  =         0.00000000
  ---------------------------------------------------
  free energy    TOTEN  =      -714.13968241 eV

  energy without entropy =     -714.13968241  energy(sigma->0) =     -714.13968241


--------------------------------------------------------------------------------------------------------




--------------------------------------- Iteration      1(   7)  ---------------------------------------


    POTLOK:  cpu time    0.4401: real time    0.4414
    SETDIJ:  cpu time    0.0343: real time    0.0344
    EDDIAG:  cpu time    8.1439: real time    8.1660
  RMM-DIIS:  cpu time   31.7772: real time   31.8647
    ORTHCH:  cpu time    1.0598: real time    1.0627
 BZINTS: Fermi energy:  0.973049;738.000000 electrons
         Band energy:***********;  BLOECHL correction: -0.022396
       DOS:  cpu time    0.0189: real time    0.0190
    CHARGE:  cpu time    2.6416: real time    2.6485
    MIXING:  cpu time    0.0102: real time    0.0102
    --------------------------------------------
      LOOP:  cpu time   44.1260: real time   44.2469

 eigenvalue-minimisations  :  8356
 total energy-change (2. order) : 0.5725538E+02  (-0.2789578E+02)
 number of electron     738.0000248 magnetization      79.2613781
 augmentation part      394.9249060 magnetization      67.7339758

 Broyden mixing:
  rms(total) = 0.14041E+02    rms(broyden)= 0.14041E+02
  rms(prec ) = 0.17245E+02
  weight for this iteration     100.00

 eigenvalues of (default mixing * dielectric matrix)
  average eigenvalue GAMMA=   0.3664
  0.6142  0.1186

 Free energy of the ion-electron system (eV)
  ---------------------------------------------------
  alpha Z        PSCENC =      1576.27060381
  Ewald energy   TEWEN  =    228386.20292109
  -Hartree energ DENC   =   -291282.20909473
  -exchange      EXHF   =         0.00000000
  -V(xc)+E(xc)   XCENC  =      1070.16833794
  PAW double counting   =     62955.07475821   -65643.58179434
  entropy T*S    EENTRO =         0.00000000
  eigenvalues    EBANDS =     -1464.95725535
  atomic energy  EATOM  =     63746.14722204
  Solvation  Ediel_sol  =         0.00000000
  ---------------------------------------------------
  free energy    TOTEN  =      -656.88430134 eV

  energy without entropy =     -656.88430134  energy(sigma->0) =     -656.88430134


--------------------------------------------------------------------------------------------------------




--------------------------------------- Iteration      1(   8)  ---------------------------------------


    POTLOK:  cpu time    0.4383: real time    0.4397
    SETDIJ:  cpu time    0.0344: real time    0.0345
    EDDIAG:  cpu time    7.8850: real time    7.9067
  RMM-DIIS:  cpu time   31.4820: real time   31.5684
    ORTHCH:  cpu time    1.0593: real time    1.0622
 BZINTS: Fermi energy:  2.783203;738.000000 electrons
         Band energy:***********;  BLOECHL correction: -0.030766
       DOS:  cpu time    0.0177: real time    0.0177
    CHARGE:  cpu time    2.6858: real time    2.6934
    MIXING:  cpu time    0.0105: real time    0.0105
    --------------------------------------------
      LOOP:  cpu time   43.6131: real time   43.7332

 eigenvalue-minimisations  :  8327
 total energy-change (2. order) :-0.2164957E+03  (-0.1418300E+02)
 number of electron     738.0000235 magnetization      78.4353815
 augmentation part      376.6282756 magnetization      72.7846054

 Broyden mixing:
  rms(total) = 0.22089E+02    rms(broyden)= 0.22089E+02
  rms(prec ) = 0.32186E+02
  weight for this iteration     100.00

 eigenvalues of (default mixing * dielectric matrix)
  average eigenvalue GAMMA=   0.2682
  0.6279  0.1188  0.0579

 Free energy of the ion-electron system (eV)
  ---------------------------------------------------
  alpha Z        PSCENC =      1576.27060381
  Ewald energy   TEWEN  =    228386.20292109
  -Hartree energ DENC   =   -291594.98363365
  -exchange      EXHF   =         0.00000000
  -V(xc)+E(xc)   XCENC  =      1080.90285850
  PAW double counting   =     65146.21947318   -68005.53994918
  entropy T*S    EENTRO =         0.00000000
  eigenvalues    EBANDS =     -1208.59952422
  atomic energy  EATOM  =     63746.14722204
  Solvation  Ediel_sol  =         0.00000000
  ---------------------------------------------------
  free energy    TOTEN  =      -873.38002843 eV

  energy without entropy =     -873.38002843  energy(sigma->0) =     -873.38002843


--------------------------------------------------------------------------------------------------------




--------------------------------------- Iteration      1(   9)  ---------------------------------------


    POTLOK:  cpu time    0.4387: real time    0.4400
    SETDIJ:  cpu time    0.0344: real time    0.0345
    EDDIAG:  cpu time    7.8915: real time    7.9128
  RMM-DIIS:  cpu time   31.5969: real time   31.6842
    ORTHCH:  cpu time    1.0575: real time    1.0604
 BZINTS: Fermi energy:  1.852990;738.000000 electrons
         Band energy:-552.891395;  BLOECHL correction: -0.080182
       DOS:  cpu time    0.0153: real time    0.0154
    CHARGE:  cpu time    2.6823: real time    2.6899
    MIXING:  cpu time    0.0112: real time    0.0112
    --------------------------------------------
      LOOP:  cpu time   43.7278: real time   43.8483

 eigenvalue-minimisations  :  8345
 total energy-change (2. order) : 0.3456025E+03  (-0.3992569E+01)
 number of electron     738.0000237 magnetization      78.0007313
 augmentation part      375.1994364 magnetization      61.6536447

 Broyden mixing:
  rms(total) = 0.79586E+01    rms(broyden)= 0.79585E+01
  rms(prec ) = 0.96758E+01
  weight for this iteration     100.00

 eigenvalues of (default mixing * dielectric matrix)
  average eigenvalue GAMMA=   0.3716
  0.9419  0.3770  0.0837  0.0837

 Free energy of the ion-electron system (eV)
  ---------------------------------------------------
  alpha Z        PSCENC =      1576.27060381
  Ewald energy   TEWEN  =    228386.20292109
  -Hartree energ DENC   =   -291877.19319424
  -exchange      EXHF   =         0.00000000
  -V(xc)+E(xc)   XCENC  =      1080.42302611
  PAW double counting   =     65798.39917311   -68685.13593276
  entropy T*S    EENTRO =         0.00000000
  eigenvalues    EBANDS =      -552.89139515
  atomic energy  EATOM  =     63746.14722204
  Solvation  Ediel_sol  =         0.00000000
  ---------------------------------------------------
  free energy    TOTEN  =      -527.77757599 eV

  energy without entropy =     -527.77757599  energy(sigma->0) =     -527.77757599


--------------------------------------------------------------------------------------------------------




--------------------------------------- Iteration      1(  10)  ---------------------------------------


    POTLOK:  cpu time    0.4381: real time    0.4392
    SETDIJ:  cpu time    0.0341: real time    0.0342
    EDDIAG:  cpu time    7.8865: real time    7.9085
  RMM-DIIS:  cpu time   31.6496: real time   31.7368
    ORTHCH:  cpu time    1.0570: real time    1.0599
 BZINTS: Fermi energy:  2.012863;738.000000 electrons
         Band energy:-658.736669;  BLOECHL correction: -0.101006
       DOS:  cpu time    0.0167: real time    0.0168
    CHARGE:  cpu time    2.6902: real time    2.6975
    MIXING:  cpu time    0.0112: real time    0.0112
    --------------------------------------------
      LOOP:  cpu time   43.7835: real time   43.9040

 eigenvalue-minimisations  :  8335
 total energy-change (2. order) :-0.9270703E+02  (-0.1231965E+02)
 number of electron     738.0000217 magnetization      77.6347746
 augmentation part      375.7908280 magnetization      66.1283533

 Broyden mixing:
  rms(total) = 0.13117E+02    rms(broyden)= 0.13117E+02
  rms(prec ) = 0.15697E+02
  weight for this iteration     100.00

 eigenvalues of (default mixing * dielectric matrix)
  average eigenvalue GAMMA=   0.3514
  1.0610  0.3975  0.1350  0.0817  0.0817

 Free energy of the ion-electron system (eV)
  ---------------------------------------------------
  alpha Z        PSCENC =      1576.27060381
  Ewald energy   TEWEN  =    228386.20292109
  -Hartree energ DENC   =   -291833.56818477
  -exchange      EXHF   =         0.00000000
  -V(xc)+E(xc)   XCENC  =      1089.06196161
  PAW double counting   =     67097.99196982   -70023.85443549
  entropy T*S    EENTRO =         0.00000000
  eigenvalues    EBANDS =      -658.73666878
  atomic energy  EATOM  =     63746.14722204
  Solvation  Ediel_sol  =         0.00000000
  ---------------------------------------------------
  free energy    TOTEN  =      -620.48461067 eV

  energy without entropy =     -620.48461067  energy(sigma->0) =     -620.48461067


--------------------------------------------------------------------------------------------------------




--------------------------------------- Iteration      1(  11)  ---------------------------------------


    POTLOK:  cpu time    0.4360: real time    0.4370
    SETDIJ:  cpu time    0.0343: real time    0.0343
    EDDIAG:  cpu time    8.1343: real time    8.1569
  RMM-DIIS:  cpu time   31.7628: real time   31.8505
    ORTHCH:  cpu time    1.0594: real time    1.0623
 BZINTS: Fermi energy:  1.855294;738.000000 electrons
         Band energy:-614.807976;  BLOECHL correction: -0.028872
       DOS:  cpu time    0.0185: real time    0.0186
    CHARGE:  cpu time    2.6806: real time    2.6879
    MIXING:  cpu time    0.0114: real time    0.0114
    --------------------------------------------
      LOOP:  cpu time   44.1372: real time   44.2590

 eigenvalue-minimisations  :  8348
 total energy-change (2. order) : 0.7052455E+02  (-0.6568089E+01)
 number of electron     738.0000234 magnetization      77.6258253
 augmentation part      377.9197714 magnetization      62.2126611

 Broyden mixing:
  rms(total) = 0.84438E+01    rms(broyden)= 0.84437E+01
  rms(prec ) = 0.97002E+01
  weight for this iteration     100.00

 eigenvalues of (default mixing * dielectric matrix)
  average eigenvalue GAMMA=   0.3531
  1.2044  0.3234  0.3234  0.0973  0.0973  0.0726

 Free energy of the ion-electron system (eV)
  ---------------------------------------------------
  alpha Z        PSCENC =      1576.27060381
  Ewald energy   TEWEN  =    228386.20292109
  -Hartree energ DENC   =   -291798.97302592
  -exchange      EXHF   =         0.00000000
  -V(xc)+E(xc)   XCENC  =      1094.57020995
  PAW double counting   =     67716.33315898   -70655.70317325
  entropy T*S    EENTRO =         0.00000000
  eigenvalues    EBANDS =      -614.80797555
  atomic energy  EATOM  =     63746.14722204
  Solvation  Ediel_sol  =         0.00000000
  ---------------------------------------------------
  free energy    TOTEN  =      -549.96005885 eV

  energy without entropy =     -549.96005885  energy(sigma->0) =     -549.96005885


--------------------------------------------------------------------------------------------------------




--------------------------------------- Iteration      1(  12)  ---------------------------------------


    POTLOK:  cpu time    0.4371: real time    0.4384
    SETDIJ:  cpu time    0.0342: real time    0.0343
    EDDIAG:  cpu time    7.8863: real time    7.9076
  RMM-DIIS:  cpu time   31.7307: real time   31.8146
    ORTHCH:  cpu time    1.0646: real time    1.0671
 BZINTS: Fermi energy:  1.797558;738.000000 electrons
         Band energy:-575.284712;  BLOECHL correction: -0.012473
       DOS:  cpu time    0.0182: real time    0.0182
    CHARGE:  cpu time    2.6833: real time    2.6896
    MIXING:  cpu time    0.0119: real time    0.0120
    --------------------------------------------
      LOOP:  cpu time   43.8664: real time   43.9818

 eigenvalue-minimisations  :  8347
 total energy-change (2. order) : 0.1726371E+02  (-0.3774140E+01)
 number of electron     738.0000228 magnetization      77.6217067
 augmentation part      380.6224485 magnetization      64.8032861

 Broyden mixing:
  rms(total) = 0.86378E+01    rms(broyden)= 0.86378E+01
  rms(prec ) = 0.10419E+02
  weight for this iteration     100.00

 eigenvalues of (default mixing * dielectric matrix)
  average eigenvalue GAMMA=   0.3726
  1.3393  0.4459  0.4459  0.1098  0.1098  0.0787  0.0787

 Free energy of the ion-electron system (eV)
  ---------------------------------------------------
  alpha Z        PSCENC =      1576.27060381
  Ewald energy   TEWEN  =    228386.20292109
  -Hartree energ DENC   =   -291813.51074747
  -exchange      EXHF   =         0.00000000
  -V(xc)+E(xc)   XCENC  =      1096.64763120
  PAW double counting   =     68182.21635388   -71131.38562524
  entropy T*S    EENTRO =         0.00000000
  eigenvalues    EBANDS =      -575.28471175
  atomic energy  EATOM  =     63746.14722204
  Solvation  Ediel_sol  =         0.00000000
  ---------------------------------------------------
  free energy    TOTEN  =      -532.69635245 eV

  energy without entropy =     -532.69635245  energy(sigma->0) =     -532.69635245


--------------------------------------------------------------------------------------------------------




--------------------------------------- Iteration      1(  13)  ---------------------------------------


    POTLOK:  cpu time    0.4397: real time    0.4407
    SETDIJ:  cpu time    0.0340: real time    0.0341
    EDDIAG:  cpu time    7.9393: real time    7.9581
  RMM-DIIS:  cpu time   31.6714: real time   31.7462
    ORTHCH:  cpu time    1.1135: real time    1.1161
 BZINTS: Fermi energy:  1.945721;738.000000 electrons
         Band energy:-502.832831;  BLOECHL correction: -0.039268
       DOS:  cpu time    0.0182: real time    0.0183
    CHARGE:  cpu time    2.6877: real time    2.6940
    MIXING:  cpu time    0.0121: real time    0.0122
    --------------------------------------------
      LOOP:  cpu time   43.9159: real time   44.0197

 eigenvalue-minimisations  :  8345
 total energy-change (2. order) : 0.3727583E+01  (-0.3177308E+01)
 number of electron     738.0000245 magnetization      77.5803965
 augmentation part      378.6738459 magnetization      65.8308075

 Broyden mixing:
  rms(total) = 0.86777E+01    rms(broyden)= 0.86777E+01
  rms(prec ) = 0.10003E+02
  weight for this iteration     100.00

 eigenvalues of (default mixing * dielectric matrix)
  average eigenvalue GAMMA=   0.3733
  1.4929  0.5071  0.5071  0.1196  0.1196  0.0860  0.0860  0.0680

 Free energy of the ion-electron system (eV)
  ---------------------------------------------------
  alpha Z        PSCENC =      1576.27060381
  Ewald energy   TEWEN  =    228386.20292109
  -Hartree energ DENC   =   -291872.55986898
  -exchange      EXHF   =         0.00000000
  -V(xc)+E(xc)   XCENC  =      1099.04107544
  PAW double counting   =     68605.55516170   -71566.79305342
  entropy T*S    EENTRO =         0.00000000
  eigenvalues    EBANDS =      -502.83283139
  atomic energy  EATOM  =     63746.14722204
  Solvation  Ediel_sol  =         0.00000000
  ---------------------------------------------------
  free energy    TOTEN  =      -528.96876972 eV

  energy without entropy =     -528.96876972  energy(sigma->0) =     -528.96876972


--------------------------------------------------------------------------------------------------------




--------------------------------------- Iteration      1(  14)  ---------------------------------------


    POTLOK:  cpu time    0.4395: real time    0.4405
    SETDIJ:  cpu time    0.0342: real time    0.0342
    EDDIAG:  cpu time    7.9008: real time    7.9194
  RMM-DIIS:  cpu time   31.6883: real time   31.7634
    ORTHCH:  cpu time    1.0656: real time    1.0682
 BZINTS: Fermi energy:  1.916048;738.000000 electrons
         Band energy:-407.285318;  BLOECHL correction: -0.017987
       DOS:  cpu time    0.0183: real time    0.0183
    CHARGE:  cpu time    2.6975: real time    2.7039
    MIXING:  cpu time    0.0126: real time    0.0126
    --------------------------------------------
      LOOP:  cpu time   43.8567: real time   43.9606

 eigenvalue-minimisations  :  8345
 total energy-change (2. order) : 0.2790488E+02  (-0.2097857E+01)
 number of electron     738.0000234 magnetization      77.9118020
 augmentation part      378.5130385 magnetization      64.0592652

 Broyden mixing:
  rms(total) = 0.47035E+01    rms(broyden)= 0.47035E+01
  rms(prec ) = 0.52227E+01
  weight for this iteration     100.00

 eigenvalues of (default mixing * dielectric matrix)
  average eigenvalue GAMMA=   0.3615
  1.5527  0.5321  0.5321  0.1528  0.1528  0.0908  0.0908  0.0748  0.0748

 Free energy of the ion-electron system (eV)
  ---------------------------------------------------
  alpha Z        PSCENC =      1576.27060381
  Ewald energy   TEWEN  =    228386.20292109
  -Hartree energ DENC   =   -291930.97551566
  -exchange      EXHF   =         0.00000000
  -V(xc)+E(xc)   XCENC  =      1101.56670999
  PAW double counting   =     69159.62077919   -72132.61129315
  entropy T*S    EENTRO =         0.00000000
  eigenvalues    EBANDS =      -407.28531769
  atomic energy  EATOM  =     63746.14722204
  Solvation  Ediel_sol  =         0.00000000
  ---------------------------------------------------
  free energy    TOTEN  =      -501.06389038 eV

  energy without entropy =     -501.06389038  energy(sigma->0) =     -501.06389038


--------------------------------------------------------------------------------------------------------




--------------------------------------- Iteration      1(  15)  ---------------------------------------


    POTLOK:  cpu time    0.4462: real time    0.4473
    SETDIJ:  cpu time    0.0485: real time    0.0486
    EDDIAG:  cpu time    8.0595: real time    8.0786
  RMM-DIIS:  cpu time   31.6041: real time   31.6922
    ORTHCH:  cpu time    1.0604: real time    1.0633
 BZINTS: Fermi energy:  2.013904;738.000000 electrons
         Band energy:-349.729438;  BLOECHL correction: -0.079171
       DOS:  cpu time    0.0185: real time    0.0186
    CHARGE:  cpu time    2.6450: real time    2.6525
    MIXING:  cpu time    0.0129: real time    0.0130
    --------------------------------------------
      LOOP:  cpu time   43.8953: real time   44.0141

 eigenvalue-minimisations  :  8340
 total energy-change (2. order) : 0.2725647E+01  (-0.8050991E+00)
 number of electron     738.0000233 magnetization      78.4332931
 augmentation part      377.2804610 magnetization      64.2526956

 Broyden mixing:
  rms(total) = 0.37373E+01    rms(broyden)= 0.37373E+01
  rms(prec ) = 0.41280E+01
  weight for this iteration     100.00

 eigenvalues of (default mixing * dielectric matrix)
  average eigenvalue GAMMA=   0.3561
  1.6284  0.5622  0.5622  0.1879  0.1879  0.0971  0.0971  0.0851  0.0851  0.0684

 Free energy of the ion-electron system (eV)
  ---------------------------------------------------
  alpha Z        PSCENC =      1576.27060381
  Ewald energy   TEWEN  =    228386.20292109
  -Hartree energ DENC   =   -291979.20796157
  -exchange      EXHF   =         0.00000000
  -V(xc)+E(xc)   XCENC  =      1101.98352288
  PAW double counting   =     69328.67036104   -72308.67547502
[...]
     10.221810  3.388702  6.865814            0           0           0  
     10.251112  3.366005  1.127934            0           0           0  
     10.244776  0.326457  4.966651            0           0           0  
      8.919584  7.171922  4.982427            0           0           0  
     10.229793  4.903797  4.982840            0           0           0  
      6.283935  7.176629  4.978889            0           0           0  
      4.962353  0.321085  4.968968            0           0           0  
      4.968348  6.417007  2.992234            0           0           0  
      7.601767  0.328011  4.968681            0           0           0  
      8.924824  1.087028  6.843059            0           0           0  
     10.243667  7.951834  6.846771            0           0           0  
      8.931018  1.079620  1.127737            0           0           0  
     10.250101  7.939278  1.127458            0           0           0  
      4.977697  4.902461  4.977608            0           0           0  
     11.549587  2.617757  4.974881            0           0           0  
     14.207249  8.703033  2.991217            0           0           0  
      8.915802  2.619069  4.978504            0           0           0  
      6.293445  2.622779  4.977714            0           0           0  
     14.206174  8.718718  8.991683            0           0           0  
      3.629136  4.137372  8.978879            0           0           0  
      6.277717  8.722319  8.991003            0           0           0  
     11.575374  4.132352  8.980928            0           0           0  
      8.918680  8.732838  8.981451            0           0           0  
     10.244944  1.850991  8.989908            0           0           0  
      2.318970  1.855406  8.986711            0           0           0  
     11.570919  8.724796  8.978050            0           0           0  
     12.894565  6.432948  8.978220            0           0           0  
      4.950512  1.848513  8.979201            0           0           0  
      7.584590  6.458770  9.108863            0           0           0  
      8.938122  4.115033  9.109265            0           0           0  
      4.949251  6.440065  8.977648            0           0           0  
      7.604672  1.840983  8.977739            0           0           0  
      6.231087  4.113947  9.047095            0           0           0  
     10.294174  6.460027  9.050796            0           0           0  
      7.394608  4.790768 10.111774     0.496581    0.312135   -0.336181  
      9.147502  5.791780 10.117955     0.537282    0.330398    0.380955  
 
   5 f/i=    5.907859 THz    37.120173 2PiTHz  197.064957 cm-1    24.432949 meV
             X         Y         Z           dx          dy          dz
     12.886988  7.950932  6.837150            0           0           0  
      4.958026  7.954997  6.844507            0           0           0  
      3.643533  5.661665  6.841081            0           0           0  
     12.890693  7.937732  1.127411            0           0           0  
      4.969706  7.939116  1.128531            0           0           0  
      3.649957  5.651776  1.129190            0           0           0  
      7.608781  1.843362  2.991653            0           0           0  
      8.928348  8.703137  2.991182            0           0           0  
      2.318793  3.375180  6.843988            0           0           0  
      2.330136  3.366551  1.129481            0           0           0  
     10.248209  1.844221  2.991308            0           0           0  
     12.878399  4.900464  4.969138            0           0           0  
      3.638898  1.088764  6.844292            0           0           0  
      8.919326  5.662876  6.891280            0           0           0  
      4.939923  3.364616  6.837125            0           0           0  
      3.651346  1.080639  1.128571            0           0           0  
      8.928223  5.652563  1.127107            0           0           0  
      4.969471  3.366256  1.129791            0           0           0  
     11.568373  8.702678  2.990806            0           0           0  
     11.558983  7.184029  4.970859            0           0           0  
     12.887726  6.416690  2.991438            0           0           0  
      8.928769  4.130875  2.990941            0           0           0  
      7.601625  7.926240  6.865982            0           0           0  
      7.608717  7.939412  1.128257            0           0           0  
     10.247638  6.416886  2.990068            0           0           0  
      2.320980  0.312046  4.974964            0           0           0  
      7.606730  3.393433  6.875078            0           0           0  
      7.610141  3.365160  1.128439            0           0           0  
      6.281887  1.091513  6.842068            0           0           0  
      6.290737  1.079887  1.128229            0           0           0  
     11.567580  4.131448  2.992071            0           0           0  
      3.648521  4.130274  2.993297            0           0           0  
      0.998469  1.088170  6.846096            0           0           0  
      1.011385  1.080376  1.128547            0           0           0  
      6.287836  8.703604  2.991992            0           0           0  
      7.610239  4.903003  4.985645            0           0           0  
      4.969213  1.843763  2.992524            0           0           0  
      2.328654  1.843751  2.992483            0           0           0  
     14.204281  7.184000  4.967744            0           0           0  
     11.564823  5.665230  6.846417            0           0           0  
      6.298847  5.660515  6.875846            0           0           0  
     11.569967  5.652273  1.127480            0           0           0  
      6.288786  5.652014  1.128720            0           0           0  
      7.607949  6.417220  2.991241            0           0           0  
      6.289230  4.130398  2.992423            0           0           0  
      3.638911  2.609257  4.960066            0           0           0  
     10.221810  3.388702  6.865814            0           0           0  
     10.251112  3.366005  1.127934            0           0           0  
     10.244776  0.326457  4.966651            0           0           0  
      8.919584  7.171922  4.982427            0           0           0  
     10.229793  4.903797  4.982840            0           0           0  
      6.283935  7.176629  4.978889            0           0           0  
      4.962353  0.321085  4.968968            0           0           0  
      4.968348  6.417007  2.992234            0           0           0  
      7.601767  0.328011  4.968681            0           0           0  
      8.924824  1.087028  6.843059            0           0           0  
     10.243667  7.951834  6.846771            0           0           0  
      8.931018  1.079620  1.127737            0           0           0  
     10.250101  7.939278  1.127458            0           0           0  
      4.977697  4.902461  4.977608            0           0           0  
     11.549587  2.617757  4.974881            0           0           0  
     14.207249  8.703033  2.991217            0           0           0  
      8.915802  2.619069  4.978504            0           0           0  
      6.293445  2.622779  4.977714            0           0           0  
     14.206174  8.718718  8.991683            0           0           0  
      3.629136  4.137372  8.978879            0           0           0  
      6.277717  8.722319  8.991003            0           0           0  
     11.575374  4.132352  8.980928            0           0           0  
      8.918680  8.732838  8.981451            0           0           0  
     10.244944  1.850991  8.989908            0           0           0  
      2.318970  1.855406  8.986711            0           0           0  
     11.570919  8.724796  8.978050            0           0           0  
     12.894565  6.432948  8.978220            0           0           0  
      4.950512  1.848513  8.979201            0           0           0  
      7.584590  6.458770  9.108863            0           0           0  
      8.938122  4.115033  9.109265            0           0           0  
      4.949251  6.440065  8.977648            0           0           0  
      7.604672  1.840983  8.977739            0           0           0  
      6.231087  4.113947  9.047095            0           0           0  
     10.294174  6.460027  9.050796            0           0           0  
      7.394608  4.790768 10.111774     0.465082   -0.763911   -0.010627  
      9.147502  5.791780 10.117955     0.234825   -0.380526    0.009126  
 
   6 f/i=    8.418309 THz    52.893797 2PiTHz  280.804560 cm-1    34.815341 meV
             X         Y         Z           dx          dy          dz
     12.886988  7.950932  6.837150            0           0           0  
      4.958026  7.954997  6.844507            0           0           0  
      3.643533  5.661665  6.841081            0           0           0  
     12.890693  7.937732  1.127411            0           0           0  
      4.969706  7.939116  1.128531            0           0           0  
      3.649957  5.651776  1.129190            0           0           0  
      7.608781  1.843362  2.991653            0           0           0  
      8.928348  8.703137  2.991182            0           0           0  
      2.318793  3.375180  6.843988            0           0           0  
      2.330136  3.366551  1.129481            0           0           0  
     10.248209  1.844221  2.991308            0           0           0  
     12.878399  4.900464  4.969138            0           0           0  
      3.638898  1.088764  6.844292            0           0           0  
      8.919326  5.662876  6.891280            0           0           0  
      4.939923  3.364616  6.837125            0           0           0  
      3.651346  1.080639  1.128571            0           0           0  
      8.928223  5.652563  1.127107            0           0           0  
      4.969471  3.366256  1.129791            0           0           0  
     11.568373  8.702678  2.990806            0           0           0  
     11.558983  7.184029  4.970859            0           0           0  
     12.887726  6.416690  2.991438            0           0           0  
      8.928769  4.130875  2.990941            0           0           0  
      7.601625  7.926240  6.865982            0           0           0  
      7.608717  7.939412  1.128257            0           0           0  
     10.247638  6.416886  2.990068            0           0           0  
      2.320980  0.312046  4.974964            0           0           0  
      7.606730  3.393433  6.875078            0           0           0  
      7.610141  3.365160  1.128439            0           0           0  
      6.281887  1.091513  6.842068            0           0           0  
      6.290737  1.079887  1.128229            0           0           0  
     11.567580  4.131448  2.992071            0           0           0  
      3.648521  4.130274  2.993297            0           0           0  
      0.998469  1.088170  6.846096            0           0           0  
      1.011385  1.080376  1.128547            0           0           0  
      6.287836  8.703604  2.991992            0           0           0  
      7.610239  4.903003  4.985645            0           0           0  
      4.969213  1.843763  2.992524            0           0           0  
      2.328654  1.843751  2.992483            0           0           0  
     14.204281  7.184000  4.967744            0           0           0  
     11.564823  5.665230  6.846417            0           0           0  
      6.298847  5.660515  6.875846            0           0           0  
     11.569967  5.652273  1.127480            0           0           0  
      6.288786  5.652014  1.128720            0           0           0  
      7.607949  6.417220  2.991241            0           0           0  
      6.289230  4.130398  2.992423            0           0           0  
      3.638911  2.609257  4.960066            0           0           0  
     10.221810  3.388702  6.865814            0           0           0  
     10.251112  3.366005  1.127934            0           0           0  
     10.244776  0.326457  4.966651            0           0           0  
      8.919584  7.171922  4.982427            0           0           0  
     10.229793  4.903797  4.982840            0           0           0  
      6.283935  7.176629  4.978889            0           0           0  
      4.962353  0.321085  4.968968            0           0           0  
      4.968348  6.417007  2.992234            0           0           0  
      7.601767  0.328011  4.968681            0           0           0  
      8.924824  1.087028  6.843059            0           0           0  
     10.243667  7.951834  6.846771            0           0           0  
      8.931018  1.079620  1.127737            0           0           0  
     10.250101  7.939278  1.127458            0           0           0  
      4.977697  4.902461  4.977608            0           0           0  
     11.549587  2.617757  4.974881            0           0           0  
     14.207249  8.703033  2.991217            0           0           0  
      8.915802  2.619069  4.978504            0           0           0  
      6.293445  2.622779  4.977714            0           0           0  
     14.206174  8.718718  8.991683            0           0           0  
      3.629136  4.137372  8.978879            0           0           0  
      6.277717  8.722319  8.991003            0           0           0  
     11.575374  4.132352  8.980928            0           0           0  
      8.918680  8.732838  8.981451            0           0           0  
     10.244944  1.850991  8.989908            0           0           0  
      2.318970  1.855406  8.986711            0           0           0  
     11.570919  8.724796  8.978050            0           0           0  
     12.894565  6.432948  8.978220            0           0           0  
      4.950512  1.848513  8.979201            0           0           0  
      7.584590  6.458770  9.108863            0           0           0  
      8.938122  4.115033  9.109265            0           0           0  
      4.949251  6.440065  8.977648            0           0           0  
      7.604672  1.840983  8.977739            0           0           0  
      6.231087  4.113947  9.047095            0           0           0  
     10.294174  6.460027  9.050796            0           0           0  
      7.394608  4.790768 10.111774    -0.226283    0.385727    0.001822  
      9.147502  5.791780 10.117955     0.454254   -0.770452    0.008073  
 
 Finite differences POTIM=  1.500000000000000E-002
  LATTYP: Found a hexagonal cell.
 ALAT       =    10.5600004196
 C/A-ratio  =     2.0833332505
  
  Lattice vectors:
  
 A1 = (   5.2800002098,  -9.1452286274,   0.0000000000)
 A2 = ( -10.5600004196,   0.0000000000,   0.0000000000)
 A3 = (   0.0000000000,   0.0000000000, -22.0000000000)


Analysis of symmetry for initial positions (statically):
=====================================================================
 Subroutine PRICEL returns:
 Original cell was already a primitive cell.
 

 Routine SETGRP: Setting up the symmetry group for a 
 hexagonal supercell.


 Subroutine GETGRP returns: Found  1 space group operations
 (whereof  1 operations were pure point group operations)
 out of a pool of 24 trial point group operations.


The static configuration has the point symmetry C_1 .


Analysis of symmetry for dynamics (positions and initial velocities):
=====================================================================
 Subroutine PRICEL returns:
 Original cell was already a primitive cell.
 

 Routine SETGRP: Setting up the symmetry group for a 
 hexagonal supercell.


 Subroutine GETGRP returns: Found  1 space group operations
 (whereof  1 operations were pure point group operations)
 out of a pool of 24 trial point group operations.


The dynamic configuration has the point symmetry C_1 .


Analysis of constrained symmetry for selective dynamics:
=====================================================================
 Subroutine PRICEL returns:
 Original cell was already a primitive cell.
 

 Routine SETGRP: Setting up the symmetry group for a 
 hexagonal supercell.


 Subroutine GETGRP returns: Found  1 space group operations
 (whereof  1 operations were pure point group operations)
 out of a pool of 24 trial point group operations.


The constrained configuration has the point symmetry C_1 .


Analysis of structural, dynamic, and magnetic symmetry:
=====================================================================
 Subroutine PRICEL returns:
 Original cell was already a primitive cell.
 

 Routine SETGRP: Setting up the symmetry group for a 
 hexagonal supercell.


 Subroutine GETGRP returns: Found  1 space group operations
 (whereof  1 operations were pure point group operations)
 out of a pool of 24 trial point group operations.


The magnetic configuration has the point symmetry C_1 .


 Subroutine INISYM returns: Found  1 space group operations
 (whereof  1 operations are pure point group operations),
 and found     1 'primitive' translations

 
 KPOINTS: mesh auto                               

Automatic generation of k-mesh.
Space group operators:
 irot       det(A)        alpha          n_x          n_y          n_z        tau_x        tau_y        tau_z
    1     1.000000     0.000001     1.000000     0.000000     0.000000     0.000000     0.000000     0.000000
 
 Subroutine IBZKPT returns following result:
 ===========================================
 
 Found      4 irreducible k-points:
 
 Following reciprocal coordinates:
            Coordinates               Weight
  0.000000  0.000000  0.000000      1.000000
  0.500000  0.000000  0.000000      1.000000
  0.000000  0.500000  0.000000      1.000000
  0.500000  0.500000  0.000000      1.000000
 
 Following cartesian coordinates:
            Coordinates               Weight
  0.000000  0.000000  0.000000      1.000000
  0.047348 -0.027337  0.000000      1.000000
  0.000000  0.054673  0.000000      1.000000
  0.047348  0.027337  0.000000      1.000000
 
 TETIRR: Found     12 inequivalent tetrahedra from       24
     LOOP+:  cpu time  468.8595: real time  470.1482
    4ORBIT:  cpu time    0.0000: real time    0.0000
 BZINTS: Fermi energy:  2.037957;738.000000 electrons
         Band energy:-493.594057;  BLOECHL correction: -0.343679

 total amount of memory used by VASP MPI-rank0   356229. kBytes
=======================================================================

   base      :      30000. kBytes
   nonlr-proj:      83572. kBytes
   fftplans  :      13995. kBytes
   grid      :     120016. kBytes
   one-center:       2550. kBytes
   wavefun   :     106096. kBytes
 
  
  
 General timing and accounting informations for this job:
 ========================================================
  
                  Total CPU time used (sec):     9638.816
                            User time (sec):     9615.791
                          System time (sec):       23.025
                         Elapsed time (sec):     9672.625
  
                   Maximum memory used (kb):     1124592.
                   Average memory used (kb):           0.
  
                          Minor page faults:      3883009
                          Major page faults:            0
                 Voluntary context switches:         2723
