 vasp.5.4.4.18Apr17-6-g9f103f2a35 (build Nov 30 2020 22:55:02) complex          
  
 executed on             LinuxIFC date 2023.09.08  21:36:37
 running on   40 total cores
 distrk:  each k-point on   40 cores,    1 groups
 distr:  one band on NCORES_PER_BAND=   4 cores,   10 groups


--------------------------------------------------------------------------------------------------------


 INCAR:
 POTCAR:    PAW_PBE Pt 04Feb2005                  
 POTCAR:    PAW_PBE H 15Jun2001                   
 POTCAR:    PAW_PBE Pt 04Feb2005                  
   VRHFIN =Pt: s1d9                                                             
   LEXCH  = PE                                                                  
   EATOM  =   729.1176 eV,   53.5886 Ry                                         
                                                                                
   TITEL  = PAW_PBE Pt 04Feb2005                                                
   LULTRA =        F    use ultrasoft PP ?                                      
   IUNSCR =        1    unscreen: 0-lin 1-nonlin 2-no                           
   RPACOR =    2.330    partial core radius                                     
   POMASS =  195.080; ZVAL   =   10.000    mass and valenz                      
   RCORE  =    2.600    outmost cutoff radius                                   
   RWIGS  =    2.750; RWIGS  =    1.455    wigner-seitz radius (au A)           
   ENMAX  =  230.283; ENMIN  =  172.712 eV                                      
   ICORE  =        3    local potential                                         
   LCOR   =        T    correct aug charges                                     
   LPAW   =        T    paw PP                                                  
   EAUG   =  358.966                                                            
   DEXC   =    0.000                                                            
   RMAX   =    2.658    core radius for proj-oper                               
   RAUG   =    1.300    factor for augmentation sphere                          
   RDEP   =    2.761    radius for radial grids                                 
   RDEPT  =    2.203    core radius for aug-charge                              
                                                                                
   Atomic configuration                                                         
   16 entries                                                                   
     n  l   j            E        occ.                                          
     1  0  0.50    -78401.1885   2.0000                                         
     2  0  0.50    -13770.7750   2.0000                                         
     2  1  1.50    -11931.0468   6.0000                                         
     3  0  0.50     -3234.7234   2.0000                                         
     3  1  1.50     -2699.2216   6.0000                                         
     3  2  2.50     -2119.5714  10.0000                                         
     4  0  0.50      -695.1528   2.0000                                         
     4  1  1.50      -519.6034   6.0000                                         
     4  2  2.50      -306.6786  10.0000                                         
     4  3  3.50       -70.1041  14.0000                                         
     5  0  0.50      -101.7747   2.0000                                         
     5  1  1.50       -55.9873   6.0000                                         
     5  2  2.50        -6.1423   9.0000                                         
     6  0  0.50        -5.6573   1.0000                                         
     6  1  1.50        -6.8029   0.0000                                         
     5  3  2.50        -1.3606   0.0000                                         
   Description                                                                  
     l       E           TYP  RCUT    TYP  RCUT                                 
     2     -6.1423404     23  2.500                                             
     2     -7.5029230     23  2.500                                             
     0     -5.6573207     23  2.500                                             
     0      0.7416693     23  2.500                                             
     1     -2.7211652     23  2.600                                             
     1     20.4087390     23  2.600                                             
     3     -1.3605826     23  2.500                                             
  local pseudopotential read in
  partial core-charges read in
  partial kinetic energy density read in
  atomic valenz-charges read in
  non local Contribution for L=           2  read in
    real space projection operators read in
  non local Contribution for L=           2  read in
    real space projection operators read in
  non local Contribution for L=           0  read in
    real space projection operators read in
  non local Contribution for L=           0  read in
    real space projection operators read in
  non local Contribution for L=           1  read in
    real space projection operators read in
  non local Contribution for L=           1  read in
    real space projection operators read in
    PAW grid and wavefunctions read in
 
   number of l-projection  operators is LMAX  =           6
   number of lm-projection operators is LMMAX =          18
 
 POTCAR:    PAW_PBE H 15Jun2001                   
   VRHFIN =H: ultrasoft test                                                    
   LEXCH  = PE                                                                  
   EATOM  =    12.4884 eV,    0.9179 Ry                                         
                                                                                
   TITEL  = PAW_PBE H 15Jun2001                                                 
   LULTRA =        F    use ultrasoft PP ?                                      
   IUNSCR =        0    unscreen: 0-lin 1-nonlin 2-no                           
   RPACOR =    0.000    partial core radius                                     
   POMASS =    1.000; ZVAL   =    1.000    mass and valenz                      
   RCORE  =    1.100    outmost cutoff radius                                   
   RWIGS  =    0.700; RWIGS  =    0.370    wigner-seitz radius (au A)           
   ENMAX  =  250.000; ENMIN  =  200.000 eV                                      
   RCLOC  =    0.701    cutoff for local pot                                    
   LCOR   =        T    correct aug charges                                     
   LPAW   =        T    paw PP                                                  
   EAUG   =  400.000                                                            
   RMAX   =    1.123    core radius for proj-oper                               
   RAUG   =    1.200    factor for augmentation sphere                          
   RDEP   =    1.112    radius for radial grids                                 
   RDEPT  =    0.926    core radius for aug-charge                              
                                                                                
   Atomic configuration                                                         
    2 entries                                                                   
     n  l   j            E        occ.                                          
     1  0  0.50        -6.4927   1.0000                                         
     2  1  0.50        -3.4015   0.0000                                         
   Description                                                                  
     l       E           TYP  RCUT    TYP  RCUT                                 
     0     -6.4927494     23  1.100                                             
     0      6.8029130     23  1.100                                             
     1     -4.0817478     23  1.100                                             
  local pseudopotential read in
  atomic valenz-charges read in
  non local Contribution for L=           0  read in
    real space projection operators read in
  non local Contribution for L=           0  read in
    real space projection operators read in
  non local Contribution for L=           1  read in
    real space projection operators read in
    PAW grid and wavefunctions read in
 
   number of l-projection  operators is LMAX  =           3
   number of lm-projection operators is LMMAX =           5
 
 Optimization of the real space projectors (new method)

 maximal supplied QI-value         = 14.36
 optimisation between [QCUT,QGAM] = [ 11.92, 23.98] = [ 39.79,161.09] Ry 
 Optimized for a Real-space Cutoff    1.49 Angstroem

   l    n(q)    QCUT    max X(q) W(low)/X(q) W(high)/X(q)  e(spline) 
   2     10    11.920    66.195    0.79E-04    0.18E-03    0.24E-06
   2     10    11.920    64.643    0.81E-04    0.19E-03    0.24E-06
   0     11    11.920    95.520    0.28E-04    0.54E-04    0.18E-06
   0     11    11.920    63.403    0.27E-04    0.52E-04    0.17E-06
   1     10    11.920    19.961    0.18E-04    0.11E-03    0.23E-06
   1     10    11.920    13.289    0.25E-04    0.87E-04    0.19E-06
 Optimization of the real space projectors (new method)

 maximal supplied QI-value         = 34.20
 optimisation between [QCUT,QGAM] = [ 11.97, 23.94] = [ 40.13,160.53] Ry 
 Optimized for a Real-space Cutoff    1.18 Angstroem

   l    n(q)    QCUT    max X(q) W(low)/X(q) W(high)/X(q)  e(spline) 
   0      8    11.971    19.460    0.15E-03    0.31E-03    0.25E-06
   0      8    11.971    12.209    0.13E-03    0.29E-03    0.25E-06
   1      8    11.971     4.655    0.22E-03    0.24E-03    0.21E-06
  PAW_PBE Pt 04Feb2005                  :
 energy of atom  1       EATOM= -729.1176
 kinetic energy error for atom=    0.0021 (will be added to EATOM!!)
  PAW_PBE H 15Jun2001                   :
 energy of atom  2       EATOM=  -12.4884
 kinetic energy error for atom=    0.0008 (will be added to EATOM!!)
 
 
 POSCAR: Pt111                                   
  positions in direct lattice
  velocities in cartesian coordinates
 exchange correlation table for  LEXCH =        8
   RHO(1)=    0.500       N(1)  =     2000
   RHO(2)=  100.500       N(2)  =     4000
 


--------------------------------------------------------------------------------------------------------


 ion  position               nearest neighbor table
   1  0.784  0.870  0.333-   3 2.69   2 2.69  56 2.69  73 2.69  72 2.69  43 2.69  71 2.81  20 2.81
                            55 2.82  35 2.85  27 2.85  34 2.85
   2  0.034  0.870  0.333-  23 2.69  47 2.69   1 2.69   3 2.69  72 2.69  57 2.70  65 2.80  68 2.80
                            55 2.80  39 2.83  29 2.84  27 2.86
   3  0.034  0.620  0.333-  15 2.69   1 2.69   2 2.69   9 2.69  56 2.69  57 2.70  12 2.80  55 2.80
                            76 2.80  39 2.83  28 2.84  35 2.86
   4  0.787  0.868  0.012-  44 2.69  75 2.69  74 2.69  58 2.69   5 2.69   6 2.69  78 2.84  21 2.84
                            19 2.85
   5  0.037  0.868  0.012-  59 2.69   6 2.69  24 2.69  48 2.69   4 2.69  74 2.69  70 2.84  49 2.84
                            78 2.85
   6  0.037  0.618  0.012-  59 2.69   5 2.69  10 2.69  58 2.69  18 2.69   4 2.69  46 2.84  70 2.84
                            21 2.85
   7  0.619  0.202  0.120-  11 2.69  78 2.69  61 2.69  22 2.69  19 2.69  53 2.69  71 2.80  79 2.81
                            80 2.82  42 2.84  44 2.84  74 2.85
   8  0.370  0.952  0.120-  19 2.69  53 2.69  60 2.69  25 2.69  54 2.69  49 2.69  66 2.81  26 2.81
                            69 2.81  16 2.84  24 2.84  75 2.85
   9  0.034  0.370  0.333-  47 2.68  13 2.68  56 2.69   3 2.69  15 2.70  63 2.70  12 2.80  77 2.81
                            62 2.81  33 2.83  28 2.85  30 2.85
  10  0.037  0.368  0.012-  16 2.69  18 2.69   6 2.69  48 2.69  58 2.69  64 2.69  54 2.84  46 2.84
                            45 2.85
  11  0.869  0.202  0.120-  78 2.69  22 2.69   7 2.69  49 2.69  45 2.69  54 2.69  77 2.81  65 2.81
                            79 2.82  64 2.84  74 2.84  48 2.85
  12  0.952  0.536  0.227-  20 2.69  55 2.69  62 2.69  77 2.69  76 2.69  67 2.69   9 2.80   3 2.80
                            56 2.80  21 2.81  45 2.81  46 2.81
  13  0.284  0.120  0.333-   9 2.68  47 2.69  43 2.69  73 2.69  15 2.70  23 2.70  62 2.80  26 2.81
                            69 2.81  31 2.84  33 2.84  36 2.85
  14  0.534  0.620  0.335-  41 2.68  57 2.68  63 2.68  23 2.68  56 2.70  73 2.70  51 2.80  52 2.81
                            66 2.83  67 2.85  38 2.89  37 2.90
  15  0.284  0.371  0.334-  57 2.68  41 2.68  43 2.69   3 2.69  13 2.70   9 2.70  76 2.81  80 2.83
                            36 2.83  62 2.83  28 2.84  50 2.89
  16  0.287  0.118  0.012-  10 2.69  48 2.69  18 2.69  24 2.69  44 2.69  75 2.69   8 2.84  53 2.84
                            54 2.85
  17  0.537  0.618  0.012-  75 2.69  58 2.69  64 2.69  42 2.69  24 2.69  59 2.69  22 2.84  25 2.84
                            60 2.85
  18  0.287  0.368  0.012-  10 2.69  16 2.69  44 2.69  42 2.69   6 2.69  59 2.69  53 2.84  61 2.84
                            46 2.85
  19  0.619  0.952  0.120-   8 2.69  25 2.69  53 2.69   7 2.69  78 2.69  21 2.69  20 2.80  71 2.81
                            69 2.82  44 2.84  75 2.84   4 2.85
  20  0.702  0.786  0.226-  55 2.69  12 2.69  69 2.69  71 2.69  67 2.69  66 2.69  56 2.80  19 2.80
                            25 2.80  21 2.81   1 2.81  73 2.81
  21  0.870  0.702  0.120-  70 2.69  46 2.69  78 2.69  25 2.69  45 2.69  19 2.69  55 2.80  12 2.81
                            20 2.81  58 2.84   4 2.84   6 2.85
  22  0.620  0.452  0.120-  11 2.69  45 2.69   7 2.69  60 2.69  61 2.69  25 2.69  79 2.80  67 2.81
                            17 2.84  42 2.84  51 2.85  64 2.85
  23  0.285  0.869  0.334-  14 2.68  57 2.68  73 2.69   2 2.69  13 2.70  47 2.70  68 2.81  66 2.82
                            26 2.82  31 2.83  29 2.84  37 2.89
  24  0.287  0.868  0.012-   5 2.69  48 2.69  16 2.69  59 2.69  75 2.69  17 2.69  60 2.84   8 2.84
                            49 2.85
  25  0.620  0.702  0.120-  19 2.69  60 2.69   8 2.69  45 2.69  21 2.69  22 2.69  20 2.80  67 2.81
                            66 2.82  17 2.84  75 2.84  58 2.85
  26  0.202  0.036  0.226-  68 2.69  66 2.69  65 2.69  69 2.69  77 2.69  62 2.69  54 2.80  49 2.80
                            13 2.81   8 2.81  47 2.81  23 2.82
  27  0.866  0.954  0.442-  39 2.67  40 2.67  32 2.69  29 2.69  34 2.69  35 2.69   1 2.85  72 2.85
                             2 2.86
  28  0.116  0.455  0.441-  50 2.66  30 2.68  35 2.68  33 2.69  39 2.69  36 2.70  15 2.84   3 2.84
                             9 2.85
  29  0.116  0.955  0.441-  37 2.67  32 2.68  27 2.69  33 2.69  39 2.69  31 2.70  23 2.84  47 2.84
                             2 2.84
  30  0.867  0.455  0.441-  38 2.66  28 2.68  35 2.68  33 2.69  52 2.69  32 2.70  63 2.83  56 2.84
                             9 2.85
  31  0.366  0.955  0.441-  37 2.67  36 2.68  34 2.69  33 2.69  52 2.69  29 2.70  23 2.83  13 2.84
                            73 2.85
  32  0.867  0.204  0.441-  38 2.67  29 2.68  27 2.69  40 2.69  33 2.69  30 2.70  63 2.83  72 2.84
                            47 2.85
  33  0.116  0.204  0.441-  31 2.69  30 2.69  29 2.69  28 2.69  32 2.69  36 2.69   9 2.83  47 2.84
                            13 2.84
  34  0.616  0.954  0.442-  52 2.67  40 2.67  36 2.69  31 2.69  27 2.69  35 2.69  43 2.85   1 2.85
                            73 2.86
  35  0.866  0.704  0.442-  52 2.67  39 2.67  28 2.68  30 2.68  34 2.69  27 2.69   1 2.85  56 2.86
                             3 2.86
  36  0.367  0.204  0.441-  50 2.67  31 2.68  34 2.69  40 2.69  33 2.69  28 2.70  15 2.83  13 2.85
                            43 2.85
  37  0.364  0.708  0.446-  81 1.87  29 2.67  31 2.67  52 2.71  39 2.71  38 2.75  50 2.75  23 2.89
                            57 2.90  14 2.90
  38  0.620  0.453  0.446-  81 1.85  30 2.66  32 2.67  52 2.71  40 2.71  37 2.75  50 2.76  63 2.89
                            14 2.89  41 2.90
  39  0.114  0.706  0.441-  27 2.67  35 2.67  29 2.69  28 2.69  37 2.71  50 2.71  57 2.82   2 2.83
                             3 2.83
  40  0.617  0.202  0.441-  34 2.67  27 2.67  32 2.69  36 2.69  50 2.71  38 2.71  41 2.81  43 2.83
                            72 2.84
  41  0.534  0.371  0.335-  57 2.68  14 2.68  63 2.68  15 2.68  43 2.69  72 2.70  51 2.80  40 2.81
                            80 2.84  79 2.85  38 2.90  50 2.91
  42  0.537  0.368  0.012-  64 2.69  17 2.69  18 2.69  59 2.69  74 2.69  44 2.69   7 2.84  22 2.84
                            61 2.85
  43  0.534  0.121  0.333-  15 2.69  13 2.69  72 2.69  73 2.69   1 2.69  41 2.69  80 2.79  69 2.80
                            71 2.81  40 2.83  36 2.85  34 2.85
  44  0.537  0.118  0.012-   4 2.69  74 2.69  18 2.69  75 2.69  42 2.69  16 2.69  19 2.84   7 2.84
                            53 2.85
  45  0.870  0.452  0.120-  22 2.69  54 2.69  25 2.69  21 2.69  46 2.69  11 2.69  77 2.80  12 2.81
                            67 2.82  58 2.84  64 2.85  10 2.85
  46  0.120  0.452  0.121-  61 2.69  70 2.69  21 2.69  53 2.69  45 2.69  54 2.69  62 2.80  76 2.81
                            12 2.81   6 2.84  10 2.84  18 2.85
  47  0.034  0.120  0.333-   9 2.68  13 2.69   2 2.69  72 2.69  63 2.70  23 2.70  77 2.80  65 2.80
                            26 2.81  33 2.84  29 2.84  32 2.85
  48  0.037  0.118  0.012-  16 2.69  24 2.69  64 2.69  74 2.69  10 2.69   5 2.69  49 2.84  54 2.85
                            11 2.85
  49  0.119  0.952  0.120-  78 2.69  70 2.69  11 2.69  54 2.69   8 2.69  60 2.69  26 2.80  68 2.81
                            65 2.81  48 2.84   5 2.84  24 2.85
  50  0.364  0.453  0.446-  81 1.86  28 2.66  36 2.67  39 2.71  40 2.71  37 2.75  38 2.76  15 2.89
                            57 2.89  41 2.91
  51  0.452  0.536  0.229-  79 2.69  67 2.69  66 2.69  76 2.69  68 2.69  80 2.69  41 2.80  14 2.80
                            57 2.81  60 2.84  61 2.84  22 2.85
  52  0.617  0.706  0.440-  34 2.67  35 2.67  31 2.69  30 2.69  37 2.71  38 2.71  14 2.81  73 2.82
                            56 2.84
  53  0.369  0.202  0.121-  54 2.69  19 2.69   8 2.69  46 2.69  61 2.69   7 2.69  69 2.80  62 2.81
                            80 2.81  18 2.84  16 2.84  44 2.85
  54  0.119  0.202  0.120-  53 2.69  45 2.69   8 2.69  49 2.69  46 2.69  11 2.69  26 2.80  62 2.81
                            77 2.81  10 2.84  48 2.85  16 2.85
  55  0.952  0.786  0.227-  20 2.69  65 2.69  12 2.69  71 2.69  68 2.69  76 2.69   3 2.80  78 2.80
                             2 2.80  21 2.80  70 2.81   1 2.82
  56  0.784  0.620  0.333-  63 2.69  73 2.69   1 2.69   9 2.69   3 2.69  14 2.70  67 2.80  20 2.80
                            12 2.80  52 2.84  30 2.84  35 2.86
  57  0.285  0.620  0.335-  41 2.68  14 2.68  15 2.68  23 2.68   3 2.70   2 2.70  51 2.81  39 2.82
                            68 2.84  76 2.84  50 2.89  37 2.90
  58  0.787  0.618  0.012-  17 2.69  75 2.69   6 2.69   4 2.69  10 2.69  64 2.69  45 2.84  21 2.84
                            25 2.85
  59  0.287  0.618  0.012-   5 2.69   6 2.69  24 2.69  42 2.69  18 2.69  17 2.69  61 2.84  60 2.84
                            70 2.85
  60  0.370  0.702  0.120-   8 2.69  25 2.69  22 2.69  61 2.69  70 2.69  49 2.69  66 2.81  68 2.81
                            51 2.84  24 2.84  59 2.84  17 2.85
  61  0.370  0.452  0.121-  46 2.69   7 2.69  70 2.69  53 2.69  60 2.69  22 2.69  80 2.80  76 2.82
                            51 2.84  59 2.84  18 2.84  42 2.85
  62  0.202  0.286  0.227-  69 2.69  12 2.69  80 2.69  76 2.69  77 2.69  26 2.69  13 2.80  46 2.80
                            54 2.81   9 2.81  53 2.81  15 2.83
  63  0.783  0.371  0.334-  14 2.68  41 2.68  72 2.69  56 2.69  47 2.70   9 2.70  67 2.81  79 2.82
                            32 2.83  30 2.83  77 2.84  38 2.89
  64  0.787  0.368  0.012-  74 2.69  17 2.69  48 2.69  42 2.69  58 2.69  10 2.69  11 2.84  45 2.85
                            22 2.85
  65  0.952  0.036  0.227-  55 2.69  71 2.69  77 2.69  26 2.69  79 2.69  68 2.69   2 2.80  47 2.80
                            72 2.81  11 2.81  78 2.81  49 2.81
  66  0.452  0.786  0.227-  67 2.69  51 2.69  68 2.69  26 2.69  20 2.69  69 2.69  73 2.80  60 2.81
                             8 2.81  25 2.82  23 2.82  14 2.83
  67  0.701  0.536  0.227-  66 2.69  51 2.69  79 2.69  77 2.69  20 2.69  12 2.69  56 2.80  25 2.81
                            22 2.81  63 2.81  45 2.82  14 2.85
  68  0.202  0.786  0.227-  76 2.69  51 2.69  66 2.69  26 2.69  55 2.69  65 2.69   2 2.80  70 2.81
                            49 2.81  23 2.81  60 2.81  57 2.84
  69  0.452  0.036  0.227-  71 2.69  20 2.69  62 2.69  26 2.69  66 2.69  80 2.69  73 2.79  43 2.80
                            53 2.80  13 2.81   8 2.81  19 2.82
  70  0.120  0.702  0.120-  46 2.69  21 2.69  49 2.69  61 2.69  78 2.69  60 2.69  76 2.81  55 2.81
                            68 2.81   5 2.84   6 2.84  59 2.85
  71  0.702  0.036  0.226-  69 2.69  65 2.69  20 2.69  80 2.69  79 2.69  55 2.69   7 2.80  72 2.80
                            19 2.81   1 2.81  78 2.81  43 2.81
  72  0.784  0.121  0.333-  63 2.69  47 2.69  43 2.69   1 2.69   2 2.69  41 2.70  79 2.80  71 2.80
                            65 2.81  40 2.84  32 2.84  27 2.85
  73  0.534  0.870  0.333-  23 2.69  13 2.69  56 2.69   1 2.69  43 2.69  14 2.70  69 2.79  66 2.80
                            20 2.81  52 2.82  31 2.85  34 2.86
  74  0.787  0.118  0.012-  64 2.69  44 2.69   4 2.69  48 2.69  42 2.69   5 2.69  78 2.84  11 2.84
                             7 2.85
  75  0.537  0.868  0.012-  17 2.69   4 2.69  58 2.69  24 2.69  44 2.69  16 2.69  25 2.84  19 2.84
                             8 2.85
  76  0.202  0.536  0.227-  68 2.69  51 2.69  80 2.69  62 2.69  55 2.69  12 2.69   3 2.80  70 2.81
                            15 2.81  46 2.81  61 2.82  57 2.84
  77  0.952  0.286  0.226-  65 2.69  67 2.69  79 2.69  12 2.69  26 2.69  62 2.69  45 2.80  47 2.80
                            11 2.81   9 2.81  54 2.81  63 2.84
  78  0.869  0.952  0.120-  11 2.69  49 2.69   7 2.69  21 2.69  70 2.69  19 2.69  55 2.80  65 2.81
                            71 2.81  74 2.84   4 2.84   5 2.85
  79  0.701  0.286  0.227-  80 2.68  51 2.69  67 2.69  71 2.69  77 2.69  65 2.69  72 2.80  22 2.80
                             7 2.81  63 2.82  11 2.82  41 2.85
  80  0.452  0.286  0.227-  79 2.68  76 2.69  51 2.69  62 2.69  71 2.69  69 2.69  43 2.79  61 2.80
                            53 2.81   7 2.82  15 2.83  41 2.84
  81  0.451  0.536  0.490-  38 1.85  50 1.86  37 1.87
 
  LATTYP: Found a hexagonal cell.
 ALAT       =    10.7600001566
 C/A-ratio  =     2.0446096357
  
  Lattice vectors:
  
 A1 = (   5.3799999700,  -9.3184335429,   0.0000000000)
 A2 = ( -10.7600000000,   0.0000000000,   0.0000000000)
 A3 = (   0.0000000000,   0.0000000000, -22.0000000000)


Analysis of symmetry for initial positions (statically):
=====================================================================
 Subroutine PRICEL returns:
 Original cell was already a primitive cell.
 

 Routine SETGRP: Setting up the symmetry group for a 
 hexagonal supercell.


 Subroutine GETGRP returns: Found  1 space group operations
 (whereof  1 operations were pure point group operations)
 out of a pool of 24 trial point group operations.


The static configuration has the point symmetry C_1 .


Analysis of symmetry for dynamics (positions and initial velocities):
=====================================================================
 Subroutine PRICEL returns:
 Original cell was already a primitive cell.
 

 Routine SETGRP: Setting up the symmetry group for a 
 hexagonal supercell.


 Subroutine GETGRP returns: Found  1 space group operations
 (whereof  1 operations were pure point group operations)
 out of a pool of 24 trial point group operations.


The dynamic configuration has the point symmetry C_1 .


Analysis of constrained symmetry for selective dynamics:
=====================================================================
 Subroutine PRICEL returns:
 Original cell was already a primitive cell.
 

 Routine SETGRP: Setting up the symmetry group for a 
 hexagonal supercell.


 Subroutine GETGRP returns: Found  1 space group operations
 (whereof  1 operations were pure point group operations)
 out of a pool of 24 trial point group operations.


The constrained configuration has the point symmetry C_1 .


 Subroutine INISYM returns: Found  1 space group operations
 (whereof  1 operations are pure point group operations),
 and found     1 'primitive' translations

 
 
 KPOINTS: mesh auto                               

Automatic generation of k-mesh.
Space group operators:
 irot       det(A)        alpha          n_x          n_y          n_z        tau_x        tau_y        tau_z
    1     1.000000     0.000000     1.000000     0.000000     0.000000     0.000000     0.000000     0.000000
 
 Subroutine IBZKPT returns following result:
 ===========================================
 
 Found      4 irreducible k-points:
 
 Following reciprocal coordinates:
            Coordinates               Weight
  0.000000  0.000000  0.000000      1.000000
  0.500000  0.000000  0.000000      1.000000
  0.000000  0.500000  0.000000      1.000000
  0.500000  0.500000  0.000000      1.000000
 
 Following cartesian coordinates:
            Coordinates               Weight
  0.000000  0.000000  0.000000      1.000000
  0.046468 -0.026829  0.000000      1.000000
  0.000000  0.053657  0.000000      1.000000
  0.046468  0.026829  0.000000      1.000000
 


--------------------------------------------------------------------------------------------------------




 Dimension of arrays:
   k-points           NKPTS =      4   k-points in BZ     NKDIM =      4   number of bands    NBANDS=    480
   number of dos      NEDOS =    301   number of ions     NIONS =     81
   non local maximal  LDIM  =      6   non local SUM 2l+1 LMDIM =     18
   total plane-waves  NPLWV = ******
   max r-space proj   IRMAX =   7517   max aug-charges    IRDMAX=  32744
   dimension x,y,z NGX =    84 NGY =   84 NGZ =  168
   dimension x,y,z NGXF=   168 NGYF=  168 NGZF=  336
   support grid    NGXF=   168 NGYF=  168 NGZF=  336
   ions per type =              80   1
   NGX,Y,Z   is equivalent  to a cutoff of  12.98, 12.98, 12.70 a.u.
   NGXF,Y,Z  is equivalent  to a cutoff of  25.96, 25.96, 25.39 a.u.

 SYSTEM =  Pt111                                   
 POSCAR =  Pt111                                   

 Startparameter for this run:
   NWRITE =      2    write-flag & timer
   PREC   = accura    normal or accurate (medium, high low for compatibility)
   ISTART =      0    job   : 0-new  1-cont  2-samecut
   ICHARG =      2    charge: 1-file 2-atom 10-const
   ISPIN  =      1    spin polarized calculation?
   LNONCOLLINEAR =      F non collinear calculations
   LSORBIT =      F    spin-orbit coupling
   INIWAV =      1    electr: 0-lowe 1-rand  2-diag
   LASPH  =      F    aspherical Exc in radial PAW
   METAGGA=      F    non-selfconsistent MetaGGA calc.

 Electronic Relaxation 1
   ENCUT  =  550.0 eV  40.42 Ry    6.36 a.u.  20.58 20.58 42.07*2*pi/ulx,y,z
   ENINI  =  550.0     initial cutoff
   ENAUG  =  400.0 eV  augmentation charge cutoff
   NELM   =    200;   NELMIN=  2; NELMDL= -5     # of ELM steps 
   EDIFF  = 0.1E-04   stopping-criterion for ELM
   LREAL  =      T    real-space projection
   NLSPLINE    = F    spline interpolate recip. space projectors
   LCOMPAT=      F    compatible to vasp.4.4
   GGA_COMPAT  = T    GGA compatible to vasp.4.4-vasp.4.6
   LMAXPAW     = -100 max onsite density
   LMAXMIX     =    2 max onsite mixed and CHGCAR
   VOSKOWN=      0    Vosko Wilk Nusair interpolation
   ROPT   =   -0.00025  -0.00025
 Ionic relaxation
   EDIFFG = -.5E-01   stopping-criterion for IOM
   NSW    =    300    number of steps for IOM
   NBLOCK =      1;   KBLOCK =    300    inner block; outer block 
   IBRION =      2    ionic relax: 0-MD 1-quasi-New 2-CG
   NFREE  =      1    steps in history (QN), initial steepest desc. (CG)
   ISIF   =      2    stress and relaxation
   IWAVPR =     11    prediction:  0-non 1-charg 2-wave 3-comb
   ISYM   =      2    0-nonsym 1-usesym 2-fastsym
   LCORR  =      T    Harris-Foulkes like correction to forces

   POTIM  = 0.5000    time-step for ionic-motion
   TEIN   =    0.0    initial temperature
   TEBEG  =    0.0;   TEEND  =   0.0 temperature during run
   SMASS  =  -3.00    Nose mass-parameter (am)
   estimated Nose-frequenzy (Omega)   =  0.10E-29 period in steps =****** mass=  -0.265E-26a.u.
   SCALEE = 1.0000    scale energy and forces
   NPACO  =    256;   APACO  = 16.0  distance and # of slots for P.C.
   PSTRESS=    0.0 pullay stress

  Mass of Ions in am
   POMASS = 195.08  1.00
  Ionic Valenz
   ZVAL   =  10.00  1.00
  Atomic Wigner-Seitz radii
   RWIGS  =  -1.00 -1.00
  virtual crystal weights 
   VCA    =   1.00  1.00
   NELECT =     801.0000    total number of electrons
   NUPDOWN=      -1.0000    fix difference up-down

 DOS related values:
   EMIN   =  10.00;   EMAX   =-10.00  energy-range for DOS
   EFERMI =   0.00
   ISMEAR =     1;   SIGMA  =   0.10  broadening in eV -4-tet -1-fermi 0-gaus

 Electronic relaxation 2 (details)
   IALGO  =     68    algorithm
   LDIAG  =      T    sub-space diagonalisation (order eigenvalues)
   LSUBROT=      F    optimize rotation matrix (better conditioning)
   TURBO    =      0    0=normal 1=particle mesh
   IRESTART =      0    0=no restart 2=restart with 2 vectors
   NREBOOT  =      0    no. of reboots
   NMIN     =      0    reboot dimension
   EREF     =   0.00    reference energy to select bands
   IMIX   =      4    mixing-type and parameters
     AMIX     =   0.40;   BMIX     =  1.00
     AMIX_MAG =   1.60;   BMIX_MAG =  1.00
     AMIN     =   0.10
     WC   =   100.;   INIMIX=   1;  MIXPRE=   1;  MAXMIX= -45

 Intra band minimization:
   WEIMIN = 0.0010     energy-eigenvalue tresh-hold
   EBREAK =  0.52E-08  absolut break condition
   DEPER  =   0.30     relativ break condition  

   TIME   =   0.40     timestep for ELM

  volume/ion in A,a.u.               =      27.23       183.78
  Fermi-wavevector in a.u.,A,eV,Ry     =   1.167956  2.207116 18.559987  1.364121
  Thomas-Fermi vector in A             =   2.304449
 
 Write flags
   LWAVE        =      F    write WAVECAR
   LDOWNSAMPLE  =      F    k-point downsampling of WAVECAR
   LCHARG       =      F    write CHGCAR
   LVTOT        =      F    write LOCPOT, total local potential
   LVHAR        =      F    write LOCPOT, Hartree potential only
   LELF         =      F    write electronic localiz. function (ELF)
   LORBIT       =      0    0 simple, 1 ext, 2 COOP (PROOUT), +10 PAW based schemes


 Dipole corrections
   LMONO  =      F    monopole corrections only (constant potential shift)
   LDIPOL =      F    correct potential (dipole corrections)
   IDIPOL =      0    1-x, 2-y, 3-z, 4-all directions 
   EPSILON=  1.0000000 bulk dielectric constant

 Exchange correlation treatment:
   GGA     =    --    GGA type
   LEXCH   =     8    internal setting for exchange type
   VOSKOWN=      0    Vosko Wilk Nusair interpolation
   LHFCALC =     F    Hartree Fock is set to
   LHFONE  =     F    Hartree Fock one center treatment
   AEXX    =    0.0000 exact exchange contribution

 Linear response parameters
   LEPSILON=     F    determine dielectric tensor
   LRPA    =     F    only Hartree local field effects (RPA)
   LNABLA  =     F    use nabla operator in PAW spheres
   LVEL    =     F    velocity operator in full k-point grid
   LINTERFAST=   F  fast interpolation
   KINTER  =     0    interpolate to denser k-point grid
   CSHIFT  =0.1000    complex shift for real part using Kramers Kronig
   OMEGAMAX=  -1.0    maximum frequency
   DEG_THRESHOLD= 0.2000000E-02 threshold for treating states as degnerate
   RTIME   =   -0.100 relaxation time in fs
  (WPLASMAI=    0.000 imaginary part of plasma frequency in eV, 0.658/RTIME)
   DFIELD  = 0.0000000 0.0000000 0.0000000 field for delta impulse in time
 
 Orbital magnetization related:
   ORBITALMAG=     F  switch on orbital magnetization
   LCHIMAG   =     F  perturbation theory with respect to B field
   DQ        =  0.001000  dq finite difference perturbation B field
   LLRAUG    =     F  two centre corrections for induced B field



--------------------------------------------------------------------------------------------------------


 conjugate gradient relaxation of ions
   using selective dynamics as specified on POSCAR
 charge density and potential will be updated during run
 non-spin polarized calculation
 RMM-DIIS sequential band-by-band and
  variant of blocked Davidson during initial phase
 perform sub-space diagonalisation
    before iterative eigenvector-optimisation
 modified Broyden-mixing scheme, WC =      100.0
 initial mixing is a Kerker type mixing with AMIX =  0.4000 and BMIX =      1.0000
 Hartree-type preconditioning will be used
 using additional bands           79
 real space projection scheme for non local part
 use partial core corrections
 calculate Harris-corrections to forces 
   (improved forces if not selfconsistent)
 use gradient corrections 
 use of overlap-Matrix (Vanderbilt PP)
 Methfessel and Paxton  Order N= 1 SIGMA  =   0.10


--------------------------------------------------------------------------------------------------------


  energy-cutoff  :      550.00
  volume of cell :     2205.86
      direct lattice vectors                 reciprocal lattice vectors
    10.760000000  0.000000000  0.000000000     0.092936803 -0.053657087  0.000000000
     5.380000030  9.318433543  0.000000000     0.000000000  0.107314174  0.000000000
     0.000000000  0.000000000 22.000000000     0.000000000  0.000000000  0.045454545

  length of vectors
    10.760000000 10.760000187 22.000000000     0.107314176  0.107314174  0.045454545


 
 k-points in units of 2pi/SCALE and weight: mesh auto                               
   0.00000000  0.00000000  0.00000000       0.250
   0.04646840 -0.02682854  0.00000000       0.250
   0.00000000  0.05365709  0.00000000       0.250
   0.04646840  0.02682854  0.00000000       0.250
 
 k-points in reciprocal lattice and weights: mesh auto                               
   0.00000000  0.00000000  0.00000000       0.250
   0.50000000  0.00000000  0.00000000       0.250
   0.00000000  0.50000000  0.00000000       0.250
   0.50000000  0.50000000  0.00000000       0.250
 
 position of ions in fractional coordinates (direct lattice) 
   0.78404989  0.87016705  0.33306469
   0.03421723  0.87021300  0.33267680
   0.03416099  0.62003320  0.33280543
   0.78705077  0.86784265  0.01189147
   0.03727793  0.86759573  0.01202723
   0.03721765  0.61770434  0.01214216
   0.61949887  0.20174958  0.12029971
   0.36952475  0.95171599  0.12041262
   0.03411632  0.36982376  0.33282737
   0.03732961  0.36769119  0.01220904
   0.86940931  0.20170267  0.12021775
   0.95189439  0.53590830  0.22687070
   0.28370400  0.12034904  0.33276494
   0.53360747  0.61973679  0.33487440
   0.28446398  0.37077196  0.33396867
   0.28706002  0.11776341  0.01215837
   0.53733718  0.61770409  0.01206401
   0.28723046  0.36763935  0.01221852
   0.61939605  0.95176001  0.12027306
   0.70196444  0.78585459  0.22646819
   0.86956830  0.70173885  0.12035805
   0.61960658  0.45166863  0.12035424
   0.28458187  0.86908706  0.33374217
   0.28713287  0.86773717  0.01210887
   0.61954509  0.70176677  0.12033167
   0.20198041  0.03555977  0.22649223
   0.86620322  0.95433362  0.44158312
   0.11559091  0.45471709  0.44128975
   0.11562418  0.95482382  0.44109079
   0.86657986  0.45471390  0.44109719
   0.36635191  0.95490262  0.44115281
   0.86651069  0.20379877  0.44110359
   0.11617119  0.20447228  0.44078966
   0.61637196  0.95434277  0.44154853
   0.86623284  0.70441533  0.44173019
   0.36655005  0.20381130  0.44128391
   0.36448622  0.70796650  0.44578259
   0.62023670  0.45257319  0.44572305
   0.11391632  0.70568891  0.44064649
   0.61736344  0.20216228  0.44053451
   0.53353616  0.37100358  0.33495316
   0.53715249  0.36779616  0.01202389
   0.53369005  0.12052208  0.33270277
   0.53723947  0.11768709  0.01198975
   0.86951096  0.45173779  0.12039640
   0.11954664  0.45178316  0.12055505
   0.03408849  0.12034078  0.33264307
   0.03720682  0.11771233  0.01196428
   0.11942259  0.95173499  0.12038949
   0.36414248  0.45252728  0.44592878
   0.45189172  0.53590063  0.22871096
   0.61721979  0.70581568  0.44049317
   0.36944487  0.20171322  0.12051891
   0.11948894  0.20174156  0.12048135
   0.95187662  0.78585883  0.22657096
   0.78391663  0.62004017  0.33265565
   0.28476787  0.61973810  0.33507959
   0.78724511  0.61770366  0.01201728
   0.28710747  0.61775577  0.01213995
   0.36960454  0.70171654  0.12047054
   0.36952376  0.45171075  0.12051227
   0.20199970  0.28595083  0.22673615
   0.78281374  0.37071828  0.33369032
   0.78721155  0.36766757  0.01192219
   0.95177455  0.03584171  0.22669812
   0.45194765  0.78550647  0.22682218
   0.70149818  0.53591525  0.22681077
   0.20220135  0.78551475  0.22693667
   0.45194995  0.03585298  0.22682715
   0.11951660  0.70173931  0.12048280
   0.70178163  0.03596283  0.22649452
   0.78390444  0.12051173  0.33260458
   0.53378207  0.87022733  0.33261159
   0.78717410  0.11775621  0.01184648
   0.53722897  0.86763205  0.01190011
   0.20224924  0.53589510  0.22706054
   0.95160795  0.28594864  0.22647632
   0.86947635  0.95179220  0.12025512
   0.70140362  0.28621806  0.22669563
   0.45192372  0.28622515  0.22688513
   0.45077470  0.53621731  0.48965023
 
 position of ions in cartesian coordinates  (Angst):
  13.11787560  8.10859384  7.32742322
   5.04992331  8.10902197  7.31888952
   3.70335085  5.77773820  7.32171945
  13.13765981  8.08693406  0.26161223
   5.06877555  8.08463315  0.26459907
   3.72371131  5.75603680  0.26712753
   7.75122059  1.87999005  2.64659359
   9.09631837  8.86850224  2.64907764
   2.35674345  3.44617811  7.32220213
   2.37984519  3.42630588  0.26859898
  10.44000456  1.87955290  2.64479041
  13.12557037  4.99382592  4.99115541
   3.70013288  1.12146456  7.32082860
   9.07580036  5.77497609  7.36723674
   5.05558562  3.45501390  7.34731079
   3.72233294  1.09737047  0.26748422
   9.10499613  5.75603454  0.26540829
   5.06849943  3.42582285  0.26880741
  11.78517042  8.86891242  2.64600734
  11.78103509  7.32293382  4.98230026
  13.13191000  6.53910686  2.64787716
   9.09694405  4.20884409  2.64779324
   7.73778931  8.09853002  7.34232770
   7.75797572  8.08595118  0.26639516
  10.44181040  6.53936702  2.64729680
   2.36462073  0.33136134  4.98282905
  14.45466157  8.89289440  9.71482867
   3.69013621  4.23725102  9.70837454
   6.38106833  8.89746231  9.70399737
  11.77076010  4.23722124  9.70413813
   9.07932268  8.89819663  9.70536193
  10.42009244  1.89908527  9.70427897
   2.35006291  1.90536132  9.69737254
  11.76652636  8.89297966  9.71406777
  13.11041987  6.56404745  9.71806414
   5.04058331  1.89920203  9.70824598
   7.73073150  6.59713879  9.80721691
   9.10859065  4.21727319  9.80590709
   5.02234594  6.57591521  9.69422268
   7.73046371  1.88383577  9.69175925
   7.73684831  3.45717221  7.36896961
   7.75850417  3.42728403  0.26452552
   6.39091371  1.12307698  7.31946087
   6.41385330  1.09665934  0.26377444
  11.78628726  4.20948859  2.64872091
   3.71691529  4.20991133  2.65221114
   1.01422554  1.12138756  7.31814746
   1.03363771  1.09689453  0.26321425
   6.40532135  8.86867924  2.64856878
   6.35276989  4.21684535  9.81043325
   7.74550025  4.99375439  5.03164117
  10.43857328  6.57709651  9.69084964
   5.06044389  1.87965119  2.65141612
   2.37107060  1.87991529  2.65058967
  14.47011296  7.32297328  4.98456112
  11.77075912  5.77780314  7.31842440
   6.39829325  5.77498834  7.37175100
  11.79400305  5.75603048  0.26438009
   6.41280248  5.75651609  0.26707900
   7.75217984  6.53889896  2.65035189
   6.40627948  4.20923658  2.65126993
   3.71193226  2.66461381  4.98819523
  10.41754019  3.45451365  7.34118703
  10.44844777  3.42608583  0.26228810
  10.43392258  0.33398862  4.98735860
   9.08898156  7.31968987  4.99008805
  10.43134451  4.99389062  4.98983689
   6.40175586  7.31976699  4.99260672
   5.05587045  0.33409360  4.99019722
   5.06135616  6.53911113  2.65062150
   7.74465040  0.33511727  4.98287949
   9.08316493  1.12298055  7.31730077
  10.42531814  8.10915556  7.31745493
   9.10352177  1.09730341  0.26062252
  10.44844413  8.08497156  0.26180232
   5.05931750  4.99370290  4.99533185
  11.77770529  2.66459343  4.98247894
  14.47620763  8.86921240  2.64561265
   9.08695613  2.66710393  4.98730384
   6.40259057  2.66717006  4.99147287
   7.73518488  4.99670539 10.77230516
 


--------------------------------------------------------------------------------------------------------


 k-point  1 :   0.0000 0.0000 0.0000  plane waves:   64687
 k-point  2 :   0.5000 0.0000 0.0000  plane waves:   64612
 k-point  3 :   0.0000 0.5000 0.0000  plane waves:   64612
 k-point  4 :   0.5000 0.5000 0.0000  plane waves:   64612

 maximum and minimum number of plane-waves per node :     16191    16134

 maximum number of plane-waves:     64687
 maximum index in each direction: 
   IXMAX=   20   IYMAX=   20   IZMAX=   42
   IXMIN=  -21   IYMIN=  -21   IZMIN=  -42


 real space projection operators:
  total allocation   :      81811.59 KBytes
  max/ min on nodes  :      20460.43      20445.49


 parallel 3D FFT for wavefunctions:
    minimum data exchange during FFTs selected (reduces bandwidth)
 parallel 3D FFT for charge:
    minimum data exchange during FFTs selected (reduces bandwidth)


 total amount of memory used by VASP MPI-rank0   162324. kBytes
=======================================================================

   base      :      30000. kBytes
   nonlr-proj:      35494. kBytes
   fftplans  :      17970. kBytes
   grid      :      27754. kBytes
   one-center:        326. kBytes
   wavefun   :      50780. kBytes
 
     INWAV:  cpu time    0.0000: real time    0.0000
 Broyden mixing: mesh for mixing (old mesh)
   NGX = 41   NGY = 41   NGZ = 85
  (NGX  =168   NGY  =168   NGZ  =336)
  gives a total of 142885 points

 initial charge density was supplied:
 charge density of overlapping atoms calculated
 number of electron     801.0000000 magnetization 
 keeping initial charge density in first step


--------------------------------------------------------------------------------------------------------


 Maximum index for non-local projection operator         1831
 Maximum index for augmentation-charges         2031 (set IRDMAX)


--------------------------------------------------------------------------------------------------------


 First call to EWALD:  gamma=   0.136
 Maximum number of real-space cells 4x 4x 2
 Maximum number of reciprocal cells 2x 2x 4

    FEWALD:  cpu time    0.0125: real time    0.0125


--------------------------------------- Iteration      1(   1)  ---------------------------------------


    POTLOK:  cpu time    0.1811: real time    0.1838
    SETDIJ:  cpu time    0.0168: real time    0.0173
     EDDAV:  cpu time   25.7767: real time   25.8558
       DOS:  cpu time    0.0010: real time    0.0011
    --------------------------------------------
      LOOP:  cpu time   25.9756: real time   26.0580

 eigenvalue-minimisations  :  3840
 total energy-change (2. order) : 0.5709893E+04  (-0.3970960E+05)
 number of electron     801.0000000 magnetization 
 augmentation part      801.0000000 magnetization 

 Free energy of the ion-electron system (eV)
  ---------------------------------------------------
  alpha Z        PSCENC =      2762.31776126
  Ewald energy   TEWEN  =    170314.01808895
  -Hartree energ DENC   =   -235081.61476662
  -exchange      EXHF   =         0.00000000
  -V(xc)+E(xc)   XCENC  =       296.17101929
  PAW double counting   =     55692.01686169   -53429.36650374
  entropy T*S    EENTRO =        -0.00076723
  eigenvalues    EBANDS =      6814.62002239
  atomic energy  EATOM  =     58341.73154849
  Solvation  Ediel_sol  =         0.00000000
  ---------------------------------------------------
  free energy    TOTEN  =      5709.89326448 eV

  energy without entropy =     5709.89403170  energy(sigma->0) =     5709.89352022


--------------------------------------------------------------------------------------------------------




--------------------------------------- Iteration      1(   2)  ---------------------------------------


     EDDAV:  cpu time   28.1915: real time   28.2581
       DOS:  cpu time    0.0010: real time    0.0010
    --------------------------------------------
      LOOP:  cpu time   28.1925: real time   28.2591

 eigenvalue-minimisations  :  4280
 total energy-change (2. order) :-0.5858037E+04  (-0.5459184E+04)
 number of electron     801.0000000 magnetization 
 augmentation part      801.0000000 magnetization 

 Free energy of the ion-electron system (eV)
  ---------------------------------------------------
  alpha Z        PSCENC =      2762.31776126
  Ewald energy   TEWEN  =    170314.01808895
  -Hartree energ DENC   =   -235081.61476662
  -exchange      EXHF   =         0.00000000
  -V(xc)+E(xc)   XCENC  =       296.17101929
  PAW double counting   =     55692.01686169   -53429.36650374
  entropy T*S    EENTRO =         0.00308574
  eigenvalues    EBANDS =       956.57952346
  atomic energy  EATOM  =     58341.73154849
  Solvation  Ediel_sol  =         0.00000000
  ---------------------------------------------------
  free energy    TOTEN  =      -148.14338149 eV

  energy without entropy =     -148.14646723  energy(sigma->0) =     -148.14441007


--------------------------------------------------------------------------------------------------------




--------------------------------------- Iteration      1(   3)  ---------------------------------------


     EDDAV:  cpu time   29.6871: real time   29.7572
       DOS:  cpu time    0.0011: real time    0.0011
    --------------------------------------------
      LOOP:  cpu time   29.6882: real time   29.7583

 eigenvalue-minimisations  :  4560
 total energy-change (2. order) :-0.3372174E+03  (-0.3026926E+03)
 number of electron     801.0000000 magnetization 
 augmentation part      801.0000000 magnetization 

 Free energy of the ion-electron system (eV)
  ---------------------------------------------------
  alpha Z        PSCENC =      2762.31776126
  Ewald energy   TEWEN  =    170314.01808895
  -Hartree energ DENC   =   -235081.61476662
  -exchange      EXHF   =         0.00000000
  -V(xc)+E(xc)   XCENC  =       296.17101929
  PAW double counting   =     55692.01686169   -53429.36650374
  entropy T*S    EENTRO =        -0.09136143
  eigenvalues    EBANDS =       619.45657861
  atomic energy  EATOM  =     58341.73154849
  Solvation  Ediel_sol  =         0.00000000
  ---------------------------------------------------
  free energy    TOTEN  =      -485.36077350 eV

  energy without entropy =     -485.26941207  energy(sigma->0) =     -485.33031969


--------------------------------------------------------------------------------------------------------




--------------------------------------- Iteration      1(   4)  ---------------------------------------


     EDDAV:  cpu time   31.3837: real time   31.4692
       DOS:  cpu time    0.0012: real time    0.0012
    --------------------------------------------
      LOOP:  cpu time   31.3849: real time   31.4704

 eigenvalue-minimisations  :  4890
 total energy-change (2. order) :-0.1508965E+02  (-0.1447591E+02)
 number of electron     801.0000000 magnetization 
 augmentation part      801.0000000 magnetization 

 Free energy of the ion-electron system (eV)
  ---------------------------------------------------
  alpha Z        PSCENC =      2762.31776126
  Ewald energy   TEWEN  =    170314.01808895
  -Hartree energ DENC   =   -235081.61476662
  -exchange      EXHF   =         0.00000000
  -V(xc)+E(xc)   XCENC  =       296.17101929
  PAW double counting   =     55692.01686169   -53429.36650374
  entropy T*S    EENTRO =        -0.10022255
  eigenvalues    EBANDS =       604.37578794
  atomic energy  EATOM  =     58341.73154849
  Solvation  Ediel_sol  =         0.00000000
  ---------------------------------------------------
  free energy    TOTEN  =      -500.45042530 eV

  energy without entropy =     -500.35020275  energy(sigma->0) =     -500.41701778


--------------------------------------------------------------------------------------------------------




--------------------------------------- Iteration      1(   5)  ---------------------------------------


     EDDAV:  cpu time   30.4254: real time   30.5034
       DOS:  cpu time    0.0012: real time    0.0012
    CHARGE:  cpu time    2.0302: real time    2.0351
    MIXING:  cpu time    0.0054: real time    0.0061
    --------------------------------------------
      LOOP:  cpu time   32.4622: real time   32.5458

 eigenvalue-minimisations  :  4700
 total energy-change (2. order) :-0.3674214E+00  (-0.3658044E+00)
 number of electron     800.9999974 magnetization 
 augmentation part      232.1222097 magnetization 

 Broyden mixing:
  rms(total) = 0.11136E+02    rms(broyden)= 0.11136E+02
  rms(prec ) = 0.11250E+02
  weight for this iteration     100.00

 Free energy of the ion-electron system (eV)
  ---------------------------------------------------
  alpha Z        PSCENC =      2762.31776126
  Ewald energy   TEWEN  =    170314.01808895
  -Hartree energ DENC   =   -235081.61476662
  -exchange      EXHF   =         0.00000000
  -V(xc)+E(xc)   XCENC  =       296.17101929
  PAW double counting   =     55692.01686169   -53429.36650374
  entropy T*S    EENTRO =        -0.09981607
  eigenvalues    EBANDS =       604.00796006
  atomic energy  EATOM  =     58341.73154849
  Solvation  Ediel_sol  =         0.00000000
  ---------------------------------------------------
  free energy    TOTEN  =      -500.81784670 eV

  energy without entropy =     -500.71803063  energy(sigma->0) =     -500.78457468


--------------------------------------------------------------------------------------------------------




--------------------------------------- Iteration      1(   6)  ---------------------------------------


    POTLOK:  cpu time    0.1695: real time    0.1699
    SETDIJ:  cpu time    0.0158: real time    0.0158
    EDDIAG:  cpu time    4.5970: real time    4.6082
  RMM-DIIS:  cpu time   15.8866: real time   15.9242
    ORTHCH:  cpu time    0.4670: real time    0.4681
       DOS:  cpu time    0.0012: real time    0.0012
    CHARGE:  cpu time    2.0058: real time    2.0106
    MIXING:  cpu time    0.0058: real time    0.0062
    --------------------------------------------
      LOOP:  cpu time   23.1487: real time   23.2042

 eigenvalue-minimisations  :  3860
 total energy-change (2. order) : 0.1603515E+02  (-0.7170726E+01)
 number of electron     800.9999963 magnetization 
 augmentation part      244.3747944 magnetization 

 Broyden mixing:
  rms(total) = 0.77328E+01    rms(broyden)= 0.77328E+01
  rms(prec ) = 0.83691E+01
  weight for this iteration     100.00

 eigenvalues of (default mixing * dielectric matrix)
  average eigenvalue GAMMA=   1.5363
  1.5363

 Free energy of the ion-electron system (eV)
  ---------------------------------------------------
  alpha Z        PSCENC =      2762.31776126
  Ewald energy   TEWEN  =    170314.01808895
  -Hartree energ DENC   =   -234117.76273240
  -exchange      EXHF   =         0.00000000
  -V(xc)+E(xc)   XCENC  =       276.28403534
  PAW double counting   =     63109.72702748   -60978.29182815
  entropy T*S    EENTRO =        -0.04979044
  eigenvalues    EBANDS =      -192.75680289
  atomic energy  EATOM  =     58341.73154849
  Solvation  Ediel_sol  =         0.00000000
  ---------------------------------------------------
  free energy    TOTEN  =      -484.78269236 eV

  energy without entropy =     -484.73290192  energy(sigma->0) =     -484.76609555


--------------------------------------------------------------------------------------------------------




--------------------------------------- Iteration      1(   7)  ---------------------------------------


    POTLOK:  cpu time    0.1648: real time    0.1652
    SETDIJ:  cpu time    0.0156: real time    0.0156
    EDDIAG:  cpu time    4.4915: real time    4.5021
  RMM-DIIS:  cpu time   15.8538: real time   15.8922
    ORTHCH:  cpu time    0.4674: real time    0.4685
       DOS:  cpu time    0.0011: real time    0.0011
    CHARGE:  cpu time    2.0993: real time    2.1043
    MIXING:  cpu time    0.0057: real time    0.0057
    --------------------------------------------
      LOOP:  cpu time   23.0992: real time   23.1548

 eigenvalue-minimisations  :  3886
 total energy-change (2. order) :-0.2271830E+03  (-0.2899335E+02)
 number of electron     800.9999977 magnetization 
 augmentation part      237.8015076 magnetization 

 Broyden mixing:
  rms(total) = 0.12462E+02    rms(broyden)= 0.12462E+02
  rms(prec ) = 0.16175E+02
  weight for this iteration     100.00

 eigenvalues of (default mixing * dielectric matrix)
  average eigenvalue GAMMA=   1.2343
  2.2565  0.2121

 Free energy of the ion-electron system (eV)
  ---------------------------------------------------
  alpha Z        PSCENC =      2762.31776126
  Ewald energy   TEWEN  =    170314.01808895
  -Hartree energ DENC   =   -235309.33514823
  -exchange      EXHF   =         0.00000000
  -V(xc)+E(xc)   XCENC  =       270.25720070
  PAW double counting   =     68489.42427422   -66417.43615673
  entropy T*S    EENTRO =        -0.09928370
  eigenvalues    EBANDS =       837.15605779
  atomic energy  EATOM  =     58341.73154849
  Solvation  Ediel_sol  =         0.00000000
  ---------------------------------------------------
  free energy    TOTEN  =      -711.96565724 eV

  energy without entropy =     -711.86637355  energy(sigma->0) =     -711.93256268


--------------------------------------------------------------------------------------------------------




--------------------------------------- Iteration      1(   8)  ---------------------------------------


    POTLOK:  cpu time    0.1651: real time    0.1655
    SETDIJ:  cpu time    0.0156: real time    0.0156
    EDDIAG:  cpu time    4.5099: real time    4.5206
  RMM-DIIS:  cpu time   15.5655: real time   15.6022
    ORTHCH:  cpu time    0.4678: real time    0.4689
       DOS:  cpu time    0.0011: real time    0.0012
    CHARGE:  cpu time    2.0274: real time    2.0322
    MIXING:  cpu time    0.0060: real time    0.0060
    --------------------------------------------
      LOOP:  cpu time   22.7584: real time   22.8122

 eigenvalue-minimisations  :  3852
 total energy-change (2. order) : 0.1680199E+03  (-0.9750911E+01)
 number of electron     800.9999969 magnetization 
 augmentation part      246.7851571 magnetization 

 Broyden mixing:
  rms(total) = 0.69274E+01    rms(broyden)= 0.69274E+01
  rms(prec ) = 0.88798E+01
  weight for this iteration     100.00

 eigenvalues of (default mixing * dielectric matrix)
  average eigenvalue GAMMA=   0.9449
  2.2561  0.2893  0.2893

 Free energy of the ion-electron system (eV)
  ---------------------------------------------------
  alpha Z        PSCENC =      2762.31776126
  Ewald energy   TEWEN  =    170314.01808895
  -Hartree energ DENC   =   -234397.33605799
  -exchange      EXHF   =         0.00000000
  -V(xc)+E(xc)   XCENC  =       263.73746520
  PAW double counting   =     74356.17679681   -72358.43278300
  entropy T*S    EENTRO =        -0.06617493
  eigenvalues    EBANDS =       173.90755268
  atomic energy  EATOM  =     58341.73154849
  Solvation  Ediel_sol  =         0.00000000
  ---------------------------------------------------
  free energy    TOTEN  =      -543.94580254 eV

  energy without entropy =     -543.87962761  energy(sigma->0) =     -543.92374423


--------------------------------------------------------------------------------------------------------




--------------------------------------- Iteration      1(   9)  ---------------------------------------


    POTLOK:  cpu time    0.1657: real time    0.1661
    SETDIJ:  cpu time    0.0157: real time    0.0157
    EDDIAG:  cpu time    4.4921: real time    4.5027
  RMM-DIIS:  cpu time   15.5522: real time   15.5889
    ORTHCH:  cpu time    0.4679: real time    0.4690
       DOS:  cpu time    0.0011: real time    0.0011
    CHARGE:  cpu time    2.0181: real time    2.0229
    MIXING:  cpu time    0.0077: real time    0.0077
    --------------------------------------------
      LOOP:  cpu time   22.7204: real time   22.7740

 eigenvalue-minimisations  :  3847
 total energy-change (2. order) : 0.2496662E+02  (-0.6767699E+01)
 number of electron     800.9999975 magnetization 
 augmentation part      247.5332193 magnetization 

 Broyden mixing:
  rms(total) = 0.55831E+01    rms(broyden)= 0.55831E+01
  rms(prec ) = 0.87130E+01
  weight for this iteration     100.00

 eigenvalues of (default mixing * dielectric matrix)
  average eigenvalue GAMMA=   0.7916
  2.2149  0.4371  0.3479  0.1665

 Free energy of the ion-electron system (eV)
  ---------------------------------------------------
  alpha Z        PSCENC =      2762.31776126
  Ewald energy   TEWEN  =    170314.01808895
  -Hartree energ DENC   =   -234215.32583126
  -exchange      EXHF   =         0.00000000
  -V(xc)+E(xc)   XCENC  =       264.54208904
  PAW double counting   =     74709.05967344   -72713.33705245
  entropy T*S    EENTRO =        -0.00528983
  eigenvalues    EBANDS =        18.01983131
  atomic energy  EATOM  =     58341.73154849
  Solvation  Ediel_sol  =         0.00000000
  ---------------------------------------------------
  free energy    TOTEN  =      -518.97918106 eV

  energy without entropy =     -518.97389123  energy(sigma->0) =     -518.97741778


--------------------------------------------------------------------------------------------------------




--------------------------------------- Iteration      1(  10)  ---------------------------------------


    POTLOK:  cpu time    0.1819: real time    0.1823
    SETDIJ:  cpu time    0.0190: real time    0.0191
    EDDIAG:  cpu time    4.6030: real time    4.6173
  RMM-DIIS:  cpu time   15.6601: real time   15.6970
    ORTHCH:  cpu time    0.4685: real time    0.4696
       DOS:  cpu time    0.0012: real time    0.0012
    CHARGE:  cpu time    2.0109: real time    2.0156
    MIXING:  cpu time    0.0061: real time    0.0062
    --------------------------------------------
      LOOP:  cpu time   22.9507: real time   23.0083

 eigenvalue-minimisations  :  3862
 total energy-change (2. order) : 0.1610399E+02  (-0.3227833E+01)
 number of electron     800.9999963 magnetization 
 augmentation part      247.2614538 magnetization 

 Broyden mixing:
  rms(total) = 0.51562E+01    rms(broyden)= 0.51562E+01
  rms(prec ) = 0.72995E+01
  weight for this iteration     100.00

 eigenvalues of (default mixing * dielectric matrix)
  average eigenvalue GAMMA=   0.7228
  2.1761  0.8078  0.2855  0.2276  0.1171

 Free energy of the ion-electron system (eV)
  ---------------------------------------------------
  alpha Z        PSCENC =      2762.31776126
  Ewald energy   TEWEN  =    170314.01808895
  -Hartree energ DENC   =   -234167.98156878
  -exchange      EXHF   =         0.00000000
  -V(xc)+E(xc)   XCENC  =       265.57429283
  PAW double counting   =     74728.85793189   -72730.85539240
  entropy T*S    EENTRO =         0.02401173
  eigenvalues    EBANDS =       -16.56186397
  atomic energy  EATOM  =     58341.73154849
  Solvation  Ediel_sol  =         0.00000000
  ---------------------------------------------------
  free energy    TOTEN  =      -502.87519000 eV

  energy without entropy =     -502.89920173  energy(sigma->0) =     -502.88319391


--------------------------------------------------------------------------------------------------------




--------------------------------------- Iteration      1(  11)  ---------------------------------------


    POTLOK:  cpu time    0.1697: real time    0.1701
    SETDIJ:  cpu time    0.0159: real time    0.0159
    EDDIAG:  cpu time    4.5023: real time    4.5129
  RMM-DIIS:  cpu time   15.7117: real time   15.7488
    ORTHCH:  cpu time    0.4708: real time    0.4719
       DOS:  cpu time    0.0012: real time    0.0012
    CHARGE:  cpu time    2.0279: real time    2.0327
    MIXING:  cpu time    0.0062: real time    0.0062
    --------------------------------------------
      LOOP:  cpu time   22.9056: real time   22.9598

 eigenvalue-minimisations  :  3866
 total energy-change (2. order) : 0.2766464E+02  (-0.1067754E+01)
 number of electron     800.9999970 magnetization 
 augmentation part      248.2377507 magnetization 

 Broyden mixing:
  rms(total) = 0.26744E+01    rms(broyden)= 0.26744E+01
  rms(prec ) = 0.33885E+01
  weight for this iteration     100.00

 eigenvalues of (default mixing * dielectric matrix)
  average eigenvalue GAMMA=   0.6529
  2.1903  0.7746  0.2836  0.2836  0.2778  0.1074

 Free energy of the ion-electron system (eV)
  ---------------------------------------------------
  alpha Z        PSCENC =      2762.31776126
  Ewald energy   TEWEN  =    170314.01808895
  -Hartree energ DENC   =   -234086.76451936
  -exchange      EXHF   =         0.00000000
  -V(xc)+E(xc)   XCENC  =       266.96915690
  PAW double counting   =     74690.84431256   -72688.81235614
  entropy T*S    EENTRO =        -0.03458795
  eigenvalues    EBANDS =       -75.47995817
  atomic energy  EATOM  =     58341.73154849
  Solvation  Ediel_sol  =         0.00000000
  ---------------------------------------------------
  free energy    TOTEN  =      -475.21055346 eV

  energy without entropy =     -475.17596551  energy(sigma->0) =     -475.19902415


--------------------------------------------------------------------------------------------------------




--------------------------------------- Iteration      1(  12)  ---------------------------------------


    POTLOK:  cpu time    0.1708: real time    0.1712
    SETDIJ:  cpu time    0.0157: real time    0.0157
    EDDIAG:  cpu time    4.5072: real time    4.5178
  RMM-DIIS:  cpu time   15.7322: real time   15.7693
    ORTHCH:  cpu time    0.4726: real time    0.4737
       DOS:  cpu time    0.0012: real time    0.0012
    CHARGE:  cpu time    2.0076: real time    2.0123
    MIXING:  cpu time    0.0067: real time    0.0067
    --------------------------------------------
      LOOP:  cpu time   22.9138: real time   22.9679

 eigenvalue-minimisations  :  3860
 total energy-change (2. order) : 0.3879273E+01  (-0.3710560E+00)
 number of electron     800.9999969 magnetization 
 augmentation part      248.1183825 magnetization 

 Broyden mixing:
  rms(total) = 0.17188E+01    rms(broyden)= 0.17188E+01
  rms(prec ) = 0.19187E+01
  weight for this iteration     100.00

 eigenvalues of (default mixing * dielectric matrix)
  average eigenvalue GAMMA=   0.6660
  2.2141  0.7467  0.7467  0.3909  0.2283  0.2283  0.1068

 Free energy of the ion-electron system (eV)
  ---------------------------------------------------
  alpha Z        PSCENC =      2762.31776126
  Ewald energy   TEWEN  =    170314.01808895
  -Hartree energ DENC   =   -234101.08609548
  -exchange      EXHF   =         0.00000000
  -V(xc)+E(xc)   XCENC  =       267.18771228
  PAW double counting   =     74746.08099565   -72743.44233658
  entropy T*S    EENTRO =        -0.03268945
  eigenvalues    EBANDS =       -58.10626511
  atomic energy  EATOM  =     58341.73154849
  Solvation  Ediel_sol  =         0.00000000
  ---------------------------------------------------
  free energy    TOTEN  =      -471.33128000 eV

  energy without entropy =     -471.29859054  energy(sigma->0) =     -471.32038351


--------------------------------------------------------------------------------------------------------




--------------------------------------- Iteration      1(  13)  ---------------------------------------


    POTLOK:  cpu time    0.1699: real time    0.1703
    SETDIJ:  cpu time    0.0158: real time    0.0159
    EDDIAG:  cpu time    4.4991: real time    4.5098
  RMM-DIIS:  cpu time   15.6384: real time   15.6755
    ORTHCH:  cpu time    0.4699: real time    0.4710
       DOS:  cpu time    0.0011: real time    0.0011
    CHARGE:  cpu time    2.0093: real time    2.0141
    MIXING:  cpu time    0.0073: real time    0.0073
    --------------------------------------------
      LOOP:  cpu time   22.8109: real time   22.8650

 eigenvalue-minimisations  :  3859
 total energy-change (2. order) : 0.6590918E+00  (-0.2822415E+00)
 number of electron     800.9999970 magnetization 
 augmentation part      247.5837330 magnetization 

 Broyden mixing:
  rms(total) = 0.14661E+01    rms(broyden)= 0.14661E+01
  rms(prec ) = 0.21091E+01
  weight for this iteration     100.00

 eigenvalues of (default mixing * dielectric matrix)
  average eigenvalue GAMMA=   0.6338
  2.1837  0.8299  0.8299  0.3388  0.2734  0.2543  0.2543  0.1060

 Free energy of the ion-electron system (eV)
  ---------------------------------------------------
  alpha Z        PSCENC =      2762.31776126
  Ewald energy   TEWEN  =    170314.01808895
  -Hartree energ DENC   =   -234141.48605680
  -exchange      EXHF   =         0.00000000
  -V(xc)+E(xc)   XCENC  =       267.65228603
  PAW double counting   =     74817.92502839   -72813.77569801
  entropy T*S    EENTRO =        -0.06180254
  eigenvalues    EBANDS =       -18.99334401
  atomic energy  EATOM  =     58341.73154849
  Solvation  Ediel_sol  =         0.00000000
  ---------------------------------------------------
  free energy    TOTEN  =      -470.67218824 eV

  energy without entropy =     -470.61038570  energy(sigma->0) =     -470.65158739


--------------------------------------------------------------------------------------------------------




--------------------------------------- Iteration      1(  14)  ---------------------------------------


    POTLOK:  cpu time    0.1747: real time    0.1752
    SETDIJ:  cpu time    0.0179: real time    0.0179
    EDDIAG:  cpu time    4.5334: real time    4.5442
  RMM-DIIS:  cpu time   15.7142: real time   15.7513
    ORTHCH:  cpu time    0.4684: real time    0.4695
       DOS:  cpu time    0.0012: real time    0.0012
    CHARGE:  cpu time    2.0097: real time    2.0144
    MIXING:  cpu time    0.0079: real time    0.0079
    --------------------------------------------
      LOOP:  cpu time   22.9275: real time   22.9817

 eigenvalue-minimisations  :  3866
 total energy-change (2. order) : 0.1045820E+01  (-0.1255979E+00)
 number of electron     800.9999969 magnetization 
 augmentation part      247.6385427 magnetization 

 Broyden mixing:
  rms(total) = 0.10225E+01    rms(broyden)= 0.10225E+01
  rms(prec ) = 0.12147E+01
  weight for this iteration     100.00

 eigenvalues of (default mixing * dielectric matrix)
  average eigenvalue GAMMA=   0.6238
  2.1422  0.8901  0.8901  0.5263  0.3759  0.2547  0.2547  0.1059  0.1746

 Free energy of the ion-electron system (eV)
  ---------------------------------------------------
  alpha Z        PSCENC =      2762.31776126
  Ewald energy   TEWEN  =    170314.01808895
  -Hartree energ DENC   =   -234145.82407031
  -exchange      EXHF   =         0.00000000
  -V(xc)+E(xc)   XCENC  =       267.87129338
  PAW double counting   =     74784.88365134   -72779.71836101
  entropy T*S    EENTRO =         0.02011242
  eigenvalues    EBANDS =       -14.92639251
  atomic energy  EATOM  =     58341.73154849
  Solvation  Ediel_sol  =         0.00000000
  ---------------------------------------------------
  free energy    TOTEN  =      -469.62636800 eV

  energy without entropy =     -469.64648042  energy(sigma->0) =     -469.63307214


--------------------------------------------------------------------------------------------------------




--------------------------------------- Iteration      1(  15)  ---------------------------------------


    POTLOK:  cpu time    0.1715: real time    0.1719
    SETDIJ:  cpu time    0.0158: real time    0.0159
    EDDIAG:  cpu time    4.5043: real time    4.5149
  RMM-DIIS:  cpu time   15.7239: real time   15.7611
    ORTHCH:  cpu time    0.4687: real time    0.4698
       DOS:  cpu time    0.0012: real time    0.0012
    CHARGE:  cpu time    2.0091: real time    2.0139
    MIXING:  cpu time    0.0083: real time    0.0084
    --------------------------------------------
      LOOP:  cpu time   22.9029: real time   22.9570

 eigenvalue-minimisations  :  3863
 total energy-change (2. order) :-0.5845075E-01  (-0.5986298E-01)
 number of electron     800.9999968 magnetization 
 augmentation part      247.6211406 magnetization 

 Broyden mixing:
  rms(total) = 0.11426E+01    rms(broyden)= 0.11426E+01
  rms(prec ) = 0.17299E+01
  weight for this iteration     100.00

 eigenvalues of (default mixing * dielectric matrix)
  average eigenvalue GAMMA=   0.6139
  2.0973  0.9620  0.9620  0.7400  0.3215  0.3215  0.2265  0.2265  0.1061  0.1752

 Free energy of the ion-electron system (eV)
  ---------------------------------------------------
  alpha Z        PSCENC =      2762.31776126
  Ewald energy   TEWEN  =    170314.01808895
  -Hartree energ DENC   =   -234152.01625654
  -exchange      EXHF   =         0.00000000
  -V(xc)+E(xc)   XCENC  =       268.00071310
  PAW double counting   =     74742.72559225   -72736.80389017
  entropy T*S    EENTRO =        -0.00674219
  eigenvalues    EBANDS =        -9.65163389
  atomic energy  EATOM  =     58341.73154849
  Solvation  Ediel_sol  =         0.00000000
  ---------------------------------------------------
  free energy    TOTEN  =      -469.68481875 eV

  energy without entropy =     -469.67807656  energy(sigma->0) =     -469.68257135


--------------------------------------------------------------------------------------------------------




--------------------------------------- Iteration      1(  16)  ---------------------------------------


    POTLOK:  cpu time    0.1720: real time    0.1724
    SETDIJ:  cpu time    0.0160: real time    0.0160
    EDDIAG:  cpu time    4.5386: real time    4.5496
  RMM-DIIS:  cpu time   15.9045: real time   15.9472
    ORTHCH:  cpu time    0.4718: real time    0.4729
       DOS:  cpu time    0.0012: real time    0.0012
    CHARGE:  cpu time    2.0080: real time    2.0128
    MIXING:  cpu time    0.0079: real time    0.0079
    --------------------------------------------
      LOOP:  cpu time   23.1200: real time   23.1800

 eigenvalue-minimisations  :  3860
 total energy-change (2. order) : 0.4415044E+00  (-0.3951022E-01)
 number of electron     800.9999968 magnetization 
 augmentation part      247.5721531 magnetization 

 Broyden mixing:
  rms(total) = 0.84928E+00    rms(broyden)= 0.84928E+00
  rms(prec ) = 0.10985E+01
  weight for this iteration     100.00

 eigenvalues of (default mixing * dielectric matrix)
  average eigenvalue GAMMA=   0.6017
  2.1059  1.0802  1.0802  0.6634  0.3480  0.3480  0.2648  0.2648  0.1060  0.1956
  0.1616

 Free energy of the ion-electron system (eV)
  ---------------------------------------------------
  alpha Z        PSCENC =      2762.31776126
  Ewald energy   TEWEN  =    170314.01808895
  -Hartree energ DENC   =   -234155.67239301
  -exchange      EXHF   =         0.00000000
  -V(xc)+E(xc)   XCENC  =       268.12412773
  PAW double counting   =     74701.51865509   -72694.83492514
  entropy T*S    EENTRO =        -0.00833944
  eigenvalues    EBANDS =        -6.43783828
  atomic energy  EATOM  =     58341.73154849
  Solvation  Ediel_sol  =         0.00000000
  ---------------------------------------------------
  free energy    TOTEN  =      -469.24331435 eV

  energy without entropy =     -469.23497492  energy(sigma->0) =     -469.24053454


--------------------------------------------------------------------------------------------------------




--------------------------------------- Iteration      1(  17)  ---------------------------------------


    POTLOK:  cpu time    0.1694: real time    0.1698
    SETDIJ:  cpu time    0.0161: real time    0.0161
    EDDIAG:  cpu time    4.5032: real time    4.5138
  RMM-DIIS:  cpu time   15.8346: real time   15.8720
    ORTHCH:  cpu time    0.5245: real time    0.5258
       DOS:  cpu time    0.0012: real time    0.0012
    CHARGE:  cpu time    2.0078: real time    2.0125
    MIXING:  cpu time    0.0085: real time    0.0085
    --------------------------------------------
      LOOP:  cpu time   23.0652: real time   23.1197

 eigenvalue-minimisations  :  3875
 total energy-change (2. order) : 0.2216884E+00  (-0.1293304E-01)
 number of electron     800.9999969 magnetization 
 augmentation part      247.5511001 magnetization 

 Broyden mixing:
  rms(total) = 0.57377E+00    rms(broyden)= 0.57377E+00
  rms(prec ) = 0.63648E+00
  weight for this iteration     100.00

 eigenvalues of (default mixing * dielectric matrix)
  average eigenvalue GAMMA=   0.6037
  2.0863  1.2243  1.2243  0.4646  0.4646  0.4064  0.4064  0.2651  0.2153  0.2153
  0.1060  0.1661

 Free energy of the ion-electron system (eV)
  ---------------------------------------------------
  alpha Z        PSCENC =      2762.31776126
  Ewald energy   TEWEN  =    170314.01808895
  -Hartree energ DENC   =   -234166.88966671
  -exchange      EXHF   =         0.00000000
  -V(xc)+E(xc)   XCENC  =       268.17462941
  PAW double counting   =     74709.34782748   -72702.49442888
  entropy T*S    EENTRO =        -0.03187285
  eigenvalues    EBANDS =         4.80448692
  atomic energy  EATOM  =     58341.73154849
  Solvation  Ediel_sol  =         0.00000000
  ---------------------------------------------------
  free energy    TOTEN  =      -469.02162593 eV

  energy without entropy =     -468.98975308  energy(sigma->0) =     -469.01100165


--------------------------------------------------------------------------------------------------------




--------------------------------------- Iteration      1(  18)  ---------------------------------------


    POTLOK:  cpu time    0.1690: real time    0.1694
    SETDIJ:  cpu time    0.0159: real time    0.0160
    EDDIAG:  cpu time    4.5082: real time    4.5188
  RMM-DIIS:  cpu time   15.7584: real time   15.7957
    ORTHCH:  cpu time    0.4720: real time    0.4731
       DOS:  cpu time    0.0012: real time    0.0012
    CHARGE:  cpu time    2.0084: real time    2.0131
    MIXING:  cpu time    0.0087: real time    0.0087
    --------------------------------------------
      LOOP:  cpu time   22.9418: real time   22.9960

 eigenvalue-minimisations  :  3865
 total energy-change (2. order) : 0.1995298E-01  (-0.8748089E-02)
 number of electron     800.9999969 magnetization 
 augmentation part      247.5200321 magnetization 

 Broyden mixing:
  rms(total) = 0.48707E+00    rms(broyden)= 0.48707E+00
  rms(prec ) = 0.60594E+00
  weight for this iteration     100.00

 eigenvalues of (default mixing * dielectric matrix)
  average eigenvalue GAMMA=   0.6497
  1.8873  1.5761  1.5761  0.6906  0.6906  0.4163  0.4163  0.1060  0.2415  0.2415
  0.2476  0.1963  0.1598

 Free energy of the ion-electron system (eV)
  ---------------------------------------------------
  alpha Z        PSCENC =      2762.31776126
  Ewald energy   TEWEN  =    170314.01808895
  -Hartree energ DENC   =   -234175.17887478
  -exchange      EXHF   =         0.00000000
  -V(xc)+E(xc)   XCENC  =       268.28793119
  PAW double counting   =     74688.60244672   -72681.08493886
  entropy T*S    EENTRO =        -0.03660842
  eigenvalues    EBANDS =        12.34097250
  atomic energy  EATOM  =     58341.73154849
  Solvation  Ediel_sol  =         0.00000000
  ---------------------------------------------------
  free energy    TOTEN  =      -469.00167295 eV

  energy without entropy =     -468.96506452  energy(sigma->0) =     -468.98947014


--------------------------------------------------------------------------------------------------------




--------------------------------------- Iteration      1(  19)  ---------------------------------------


    POTLOK:  cpu time    0.1723: real time    0.1728
    SETDIJ:  cpu time    0.0160: real time    0.0160
    EDDIAG:  cpu time    4.5426: real time    4.5533
  RMM-DIIS:  cpu time   15.7800: real time   15.8173
    ORTHCH:  cpu time    0.4719: real time    0.4730
       DOS:  cpu time    0.0011: real time    0.0011
    CHARGE:  cpu time    2.0097: real time    2.0144
    MIXING:  cpu time    0.0083: real time    0.0083
    --------------------------------------------
      LOOP:  cpu time   23.0018: real time   23.0562

 eigenvalue-minimisations  :  3860
 total energy-change (2. order) : 0.1003478E+00  (-0.1364025E-01)
 number of electron     800.9999969 magnetization 
 augmentation part      247.4474906 magnetization 

 Broyden mixing:
  rms(total) = 0.30329E+00    rms(broyden)= 0.30329E+00
  rms(prec ) = 0.35401E+00
  weight for this iteration     100.00

 eigenvalues of (default mixing * dielectric matrix)
  average eigenvalue GAMMA=   0.6415
  1.7493  1.7154  1.7154  0.7000  0.7000  0.4932  0.3760  0.3760  0.1060  0.2399
  0.2399  0.2147  0.1944  0.1600

 Free energy of the ion-electron system (eV)
  ---------------------------------------------------
  alpha Z        PSCENC =      2762.31776126
  Ewald energy   TEWEN  =    170314.01808895
  -Hartree energ DENC   =   -234185.79817827
  -exchange      EXHF   =         0.00000000
  -V(xc)+E(xc)   XCENC  =       268.61168346
  PAW double counting   =     74616.04245135   -72606.58617564
  entropy T*S    EENTRO =        -0.02065532
  eigenvalues    EBANDS =        20.78215060
  atomic energy  EATOM  =     58341.73154849
  Solvation  Ediel_sol  =         0.00000000
  ---------------------------------------------------
  free energy    TOTEN  =      -468.90132512 eV

  energy without entropy =     -468.88066980  energy(sigma->0) =     -468.89444001


--------------------------------------------------------------------------------------------------------




--------------------------------------- Iteration      1(  20)  ---------------------------------------


    POTLOK:  cpu time    0.1721: real time    0.1726
    SETDIJ:  cpu time    0.0162: real time    0.0162
    EDDIAG:  cpu time    4.5060: real time    4.5166
  RMM-DIIS:  cpu time   15.8453: real time   15.8827
    ORTHCH:  cpu time    0.4741: real time    0.4752
       DOS:  cpu time    0.0011: real time    0.0012
    CHARGE:  cpu time    2.0061: real time    2.0108
    MIXING:  cpu time    0.0090: real time    0.0090
    --------------------------------------------
      LOOP:  cpu time   23.0300: real time   23.0844

 eigenvalue-minimisations  :  3863
 total energy-change (2. order) : 0.2417123E-01  (-0.7500420E-02)
 number of electron     800.9999968 magnetization 
 augmentation part      247.3946021 magnetization 

 Broyden mixing:
  rms(total) = 0.26293E+00    rms(broyden)= 0.26292E+00
  rms(prec ) = 0.30336E+00
  weight for this iteration     100.00

 eigenvalues of (default mixing * dielectric matrix)
  average eigenvalue GAMMA=   0.6360
  1.8701  1.6960  1.6960  0.7419  0.7419  0.6057  0.3993  0.3993  0.1060  0.2507
  0.2507  0.2247  0.2247  0.1743  0.1583

 Free energy of the ion-electron system (eV)
  ---------------------------------------------------
  alpha Z        PSCENC =      2762.31776126
  Ewald energy   TEWEN  =    170314.01808895
  -Hartree energ DENC   =   -234190.95771241
  -exchange      EXHF   =         0.00000000
  -V(xc)+E(xc)   XCENC  =       268.73377816
  PAW double counting   =     74631.22593897   -72621.37880664
  entropy T*S    EENTRO =        -0.01976852
  eigenvalues    EBANDS =        25.45201784
  atomic energy  EATOM  =     58341.73154849
  Solvation  Ediel_sol  =         0.00000000
[...]
 -----------------------------------------------------------------------------------------------
   0.137E+00 -.213E+00 -.134E+04   -.140E+00 0.228E+00 0.134E+04   -.419E-02 0.503E-02 0.486E+00   0.120E-02 -.103E-01 0.157E-01
   -.522E+00 0.991E-01 -.134E+04   0.564E+00 -.115E+00 0.134E+04   -.427E-01 0.232E-01 0.543E+00   0.155E-02 -.212E-02 0.382E-02
   -.221E+00 0.275E+00 -.134E+04   0.266E+00 -.302E+00 0.134E+04   -.476E-01 0.104E-01 0.545E+00   -.577E-02 0.685E-02 0.580E-02
   -.322E+00 0.678E+00 0.267E+04   0.345E+00 -.682E+00 -.267E+04   0.117E-02 -.112E-01 -.443E+00   -.123E-01 0.423E-02 0.105E-01
   -.243E+00 0.424E+00 0.267E+04   0.270E+00 -.406E+00 -.267E+04   -.253E-01 -.951E-02 -.511E+00   0.572E-02 -.277E-03 0.546E-02
   -.451E+00 0.456E+00 0.267E+04   0.436E+00 -.483E+00 -.267E+04   0.189E-01 0.307E-01 -.517E+00   0.424E-03 -.121E-01 0.642E-02
   0.552E+00 -.242E+01 0.135E+04   -.538E+00 0.242E+01 -.135E+04   -.136E-01 0.321E-01 -.540E+00   -.110E-01 -.118E-02 -.168E+00
   0.850E-01 0.144E+01 0.135E+04   -.109E+00 -.143E+01 -.135E+04   -.986E-02 -.256E-01 -.498E+00   0.511E-02 0.115E-01 -.145E+00
   0.308E+00 -.965E+00 -.134E+04   -.317E+00 0.976E+00 0.134E+04   0.671E-02 0.100E-01 0.471E+00   0.261E-02 -.213E-02 -.209E-01
   -.206E-01 -.446E+00 0.267E+04   0.404E-01 0.403E+00 -.267E+04   -.303E-01 0.593E-01 -.472E+00   -.191E-02 -.210E-02 0.114E-01
   0.631E+00 -.845E+00 0.135E+04   -.595E+00 0.836E+00 -.135E+04   -.605E-02 0.315E-01 -.484E+00   0.802E-02 0.466E-02 -.156E+00
   0.113E+00 0.953E+00 0.484E+01   -.114E+00 -.943E+00 -.464E+01   -.853E-02 0.161E-01 -.334E-01   0.425E-02 -.175E-01 -.158E+00
   -.398E+00 0.752E+00 -.134E+04   0.412E+00 -.742E+00 0.134E+04   -.216E-02 -.699E-02 0.488E+00   -.102E-01 -.625E-02 -.326E-01
   0.252E+01 0.112E+01 -.136E+04   -.263E+01 -.119E+01 0.136E+04   0.105E+00 0.671E-01 0.469E+00   0.480E-02 0.183E-01 0.566E-02
   -.182E+01 -.915E+00 -.135E+04   0.205E+01 0.105E+01 0.135E+04   -.192E+00 -.120E+00 0.294E+00   -.179E-01 0.151E-02 -.169E-01
   -.549E+00 0.343E-01 0.267E+04   0.527E+00 -.384E-01 -.267E+04   0.399E-01 -.168E-01 -.479E+00   0.734E-02 0.156E-02 0.173E-01
   0.157E+01 0.339E-01 0.267E+04   -.154E+01 -.390E-01 -.267E+04   -.589E-01 0.426E-02 -.498E+00   0.177E-02 -.662E-02 0.403E-02
   -.558E+00 -.651E+00 0.267E+04   0.494E+00 0.590E+00 -.266E+04   0.485E-01 0.559E-01 -.299E+00   0.861E-02 -.682E-02 0.898E-02
   0.428E+00 -.396E+00 0.135E+04   -.410E+00 0.384E+00 -.135E+04   -.972E-02 0.195E-01 -.514E+00   -.150E-01 0.781E-02 -.157E+00
   0.143E+01 0.672E+00 0.805E+01   -.143E+01 -.685E+00 -.789E+01   0.642E-02 0.183E-01 -.170E-02   -.737E-02 0.595E-02 -.161E+00
   0.356E-01 0.626E+00 0.135E+04   -.184E-01 -.631E+00 -.135E+04   -.111E-01 -.128E-01 -.516E+00   -.995E-02 -.283E-02 -.156E+00
   0.379E+01 -.255E+01 0.135E+04   -.379E+01 0.255E+01 -.135E+04   -.496E-01 0.426E-01 -.382E+00   0.383E-02 -.137E-02 -.176E+00
   -.746E-01 0.213E+01 -.135E+04   0.704E-01 -.238E+01 0.135E+04   0.330E-02 0.214E+00 0.325E+00   -.124E-02 0.955E-02 -.139E-01
   -.167E+00 0.939E+00 0.267E+04   0.166E+00 -.856E+00 -.267E+04   -.355E-02 -.636E-01 -.296E+00   0.128E-01 -.557E-02 0.811E-02
   0.217E+01 0.127E+01 0.135E+04   -.218E+01 -.130E+01 -.135E+04   -.277E-01 -.910E-02 -.538E+00   -.117E-02 0.822E-02 -.164E+00
   -.656E-01 0.199E+01 0.607E+01   0.524E-01 -.202E+01 -.596E+01   0.993E-02 0.102E-01 0.558E-01   0.100E-01 0.115E-01 -.160E+00
   -.109E+00 -.371E+00 -.266E+04   0.878E-01 0.390E+00 0.266E+04   0.282E-01 0.104E-01 0.377E+00   -.736E-02 -.204E-01 0.552E-01
   0.711E+01 0.222E+01 -.266E+04   -.702E+01 -.219E+01 0.266E+04   -.829E-01 -.506E-01 0.367E+00   -.699E-02 0.256E-01 0.507E-01
   0.129E+01 -.667E+01 -.266E+04   -.127E+01 0.661E+01 0.266E+04   -.331E-02 0.664E-01 0.369E+00   -.112E-01 -.154E-01 0.466E-01
   -.622E+01 0.211E+01 -.266E+04   0.612E+01 -.209E+01 0.266E+04   0.915E-01 -.450E-01 0.371E+00   0.706E-03 0.231E-01 0.544E-01
   -.150E+01 -.608E+01 -.266E+04   0.145E+01 0.603E+01 0.266E+04   0.358E-01 0.545E-01 0.375E+00   0.704E-02 -.196E-01 0.472E-01
   -.543E+01 0.509E+01 -.266E+04   0.534E+01 -.500E+01 0.266E+04   0.100E+00 -.771E-01 0.372E+00   -.445E-02 -.626E-02 0.550E-01
   0.401E+00 0.501E+00 -.266E+04   -.408E+00 -.488E+00 0.266E+04   0.120E-01 -.189E-01 0.457E+00   -.561E-02 0.979E-03 0.435E-01
   -.271E-01 0.949E-01 -.266E+04   0.223E-01 -.706E-01 0.266E+04   -.106E-01 0.941E-02 0.373E+00   0.115E-01 -.240E-01 0.554E-01
   0.407E+00 -.378E+00 -.266E+04   -.416E+00 0.397E+00 0.266E+04   0.649E-02 -.161E-01 0.386E+00   -.109E-02 0.106E-01 0.546E-01
   0.523E+01 0.565E+01 -.266E+04   -.517E+01 -.555E+01 0.266E+04   -.768E-01 -.824E-01 0.376E+00   0.518E-02 -.733E-02 0.518E-01
   -.412E+00 -.162E+02 -.266E+04   0.395E+00 0.170E+02 0.266E+04   0.130E-01 -.774E+00 0.302E-01   0.124E-02 0.205E-02 0.575E-01
   -.137E+02 0.798E+01 -.266E+04   0.143E+02 -.834E+01 0.266E+04   -.656E+00 0.345E+00 -.537E-01   0.611E-02 0.138E-01 0.655E-01
   0.175E+01 -.163E+01 -.265E+04   -.196E+01 0.177E+01 0.265E+04   0.236E+00 -.162E+00 0.513E+00   -.128E-01 0.970E-02 0.527E-01
   -.531E+00 0.255E+01 -.265E+04   0.508E+00 -.277E+01 0.265E+04   0.145E-01 0.246E+00 0.529E+00   0.481E-02 -.147E-01 0.622E-01
   -.123E+00 -.304E+01 -.137E+04   0.117E+00 0.316E+01 0.137E+04   0.432E-02 -.118E+00 0.456E+00   -.264E-02 0.350E-02 0.515E-04
   0.863E+00 -.120E+01 0.267E+04   -.849E+00 0.117E+01 -.267E+04   -.157E-01 0.304E-01 -.491E+00   0.150E-02 0.195E-02 0.424E-02
   -.180E+00 -.104E+00 -.134E+04   0.191E+00 0.185E+00 0.134E+04   -.408E-02 -.731E-01 0.546E+00   -.105E-01 -.169E-01 -.787E-02
   0.977E+00 -.115E+01 0.267E+04   -.989E+00 0.111E+01 -.267E+04   0.389E-02 0.421E-01 -.512E+00   -.349E-02 0.108E-01 0.142E-01
   0.111E+01 -.747E+00 0.135E+04   -.109E+01 0.707E+00 -.135E+04   -.277E-01 0.181E-01 -.497E+00   0.370E-02 -.638E-02 -.158E+00
   -.131E+01 -.621E+00 0.135E+04   0.130E+01 0.596E+00 -.135E+04   0.204E-01 0.914E-02 -.490E+00   -.267E-02 -.188E-01 -.150E+00
   0.583E+00 0.472E+00 -.134E+04   -.608E+00 -.460E+00 0.134E+04   0.104E-01 -.757E-02 0.489E+00   0.118E-01 -.841E-02 -.231E-01
   -.304E+00 0.227E-01 0.267E+04   0.331E+00 -.332E-01 -.267E+04   -.448E-01 -.891E-02 -.472E+00   0.342E-02 0.100E-01 0.106E-01
   -.329E+00 0.159E+01 0.135E+04   0.339E+00 -.158E+01 -.135E+04   0.168E-01 -.264E-01 -.495E+00   0.161E-01 0.110E-01 -.143E+00
   0.126E+02 0.788E+01 -.266E+04   -.132E+02 -.824E+01 0.266E+04   0.693E+00 0.355E+00 -.315E-01   0.291E-03 0.161E-01 0.627E-01
   0.263E+00 -.144E+00 -.146E+02   -.259E+00 0.131E+00 0.151E+02   -.263E-02 0.435E-02 -.282E+00   -.423E-02 0.101E-01 -.159E+00
   -.192E+01 -.878E+00 -.265E+04   0.210E+01 0.103E+01 0.265E+04   -.209E+00 -.174E+00 0.519E+00   0.125E-01 0.392E-02 0.569E-01
   -.136E+01 -.920E+00 0.135E+04   0.133E+01 0.922E+00 -.135E+04   0.302E-01 0.257E-01 -.502E+00   -.829E-02 -.691E-02 -.151E+00
   0.586E-01 -.990E-01 0.135E+04   -.676E-01 0.966E-01 -.135E+04   -.590E-02 0.919E-03 -.499E+00   0.112E-01 -.250E-02 -.137E+00
   -.138E+01 0.663E+00 0.702E+01   0.139E+01 -.666E+00 -.685E+01   -.191E-01 0.167E-01 -.180E-01   0.181E-02 -.221E-02 -.152E+00
   0.441E+00 0.350E+00 -.134E+04   -.503E+00 -.378E+00 0.134E+04   0.589E-01 0.107E-01 0.553E+00   0.965E-02 0.757E-02 0.968E-02
   -.292E+01 0.114E+01 -.137E+04   0.302E+01 -.121E+01 0.137E+04   -.904E-01 0.665E-01 0.455E+00   -.854E-02 0.173E-01 0.221E-02
   -.771E-02 0.439E+00 0.267E+04   0.634E-01 -.482E+00 -.267E+04   -.447E-01 0.325E-01 -.518E+00   -.149E-01 -.617E-02 0.866E-02
   -.730E+00 0.658E+00 0.266E+04   0.716E+00 -.650E+00 -.266E+04   0.258E-01 -.880E-02 -.503E+00   0.127E-01 -.131E-01 0.222E-02
   0.411E+00 0.426E+01 0.135E+04   -.414E+00 -.428E+01 -.135E+04   -.137E-01 -.444E-01 -.387E+00   0.102E-01 0.777E-02 -.163E+00
   -.355E+01 -.240E+01 0.135E+04   0.357E+01 0.241E+01 -.135E+04   0.439E-01 0.338E-01 -.385E+00   -.490E-02 -.137E-01 -.169E+00
   -.176E+01 -.130E+01 0.372E+01   0.179E+01 0.133E+01 -.356E+01   -.696E-02 0.185E-02 0.214E-01   -.115E-01 -.167E-01 -.167E+00
   0.141E+01 -.951E+00 -.135E+04   -.165E+01 0.108E+01 0.135E+04   0.211E+00 -.114E+00 0.299E+00   0.181E-01 -.770E-04 -.412E-02
   0.552E-01 -.849E+00 0.267E+04   0.375E-01 0.773E+00 -.267E+04   -.581E-01 0.577E-01 -.303E+00   -.821E-02 0.781E-02 0.457E-02
   -.610E+00 -.457E+00 0.676E+01   0.586E+00 0.456E+00 -.658E+01   -.101E-01 -.252E-02 -.193E-01   0.232E-01 0.151E-02 -.157E+00
   0.202E+01 0.335E+01 0.243E+01   -.207E+01 -.337E+01 -.230E+01   0.576E-01 -.107E-02 0.304E-01   -.275E-02 0.255E-01 -.161E+00
   0.368E+01 0.151E+00 0.272E+01   -.372E+01 -.210E+00 -.258E+01   0.302E-01 0.571E-01 0.188E-01   0.119E-01 0.220E-02 -.164E+00
   -.198E+01 0.356E+01 0.127E+01   0.202E+01 -.357E+01 -.114E+01   -.527E-01 -.576E-02 0.181E-01   0.822E-02 0.172E-01 -.151E+00
   0.716E+00 -.298E+00 0.546E+01   -.690E+00 0.291E+00 -.526E+01   0.276E-02 -.856E-02 -.292E-01   -.235E-01 0.630E-02 -.169E+00
   -.247E+01 0.142E+01 0.135E+04   0.249E+01 -.143E+01 -.135E+04   0.266E-01 -.110E-01 -.538E+00   0.881E-03 -.448E-02 -.154E+00
   -.201E-01 -.115E+01 0.782E+01   0.345E-01 0.117E+01 -.765E+01   -.367E-02 -.337E-01 -.804E-02   -.976E-02 -.414E-02 -.166E+00
   -.903E-01 -.174E+00 -.133E+04   0.725E-01 0.257E+00 0.133E+04   0.933E-02 -.741E-01 0.547E+00   0.894E-02 -.190E-01 0.154E-02
   0.512E+00 0.422E+00 -.134E+04   -.563E+00 -.443E+00 0.133E+04   0.466E-01 0.246E-01 0.554E+00   -.154E-02 0.113E-02 -.188E-02
   0.179E+00 -.277E+00 0.267E+04   -.110E+00 0.238E+00 -.267E+04   -.525E-01 0.247E-01 -.517E+00   -.725E-02 0.188E-01 0.803E-02
   0.101E+01 -.307E+00 0.267E+04   -.100E+01 0.328E+00 -.267E+04   -.169E-01 -.121E-01 -.508E+00   -.625E-02 -.243E-02 0.141E-01
   -.390E+01 0.665E-01 -.554E-01   0.394E+01 -.112E+00 0.204E+00   -.282E-01 0.544E-01 0.915E-02   -.120E-01 -.890E-02 -.158E+00
   0.188E+01 -.126E+01 0.644E+01   -.193E+01 0.128E+01 -.631E+01   0.824E-02 0.456E-02 0.419E-01   0.254E-01 -.133E-01 -.164E+00
   -.265E+00 -.136E-01 0.135E+04   0.280E+00 0.189E-02 -.135E+04   0.478E-02 0.130E-01 -.509E+00   -.623E-02 0.713E-02 -.155E+00
   0.148E+01 -.348E+01 0.374E+01   -.146E+01 0.353E+01 -.360E+01   -.181E-01 -.428E-01 0.391E-01   0.102E-01 -.687E-02 -.170E+00
   -.157E+01 -.365E+01 0.173E+01   0.156E+01 0.371E+01 -.158E+01   0.195E-01 -.427E-01 0.309E-01   -.242E-01 -.101E-01 -.173E+00
   -.362E-01 -.238E+00 -.317E+03   0.276E-01 0.275E+00 0.319E+03   0.576E-02 -.295E-01 -.159E+01   0.536E-03 0.112E-02 0.996E-02
 -----------------------------------------------------------------------------------------------
   0.115E-01 0.965E-01 0.802E+01   0.186E-12 0.259E-12 -.375E-11   0.102E-01 -.750E-01 -.398E+01   0.405E-03 0.534E-03 -.415E+01
 
 
 POSITION                                       TOTAL-FORCE (eV/Angst)
 -----------------------------------------------------------------------------------
     13.11788      8.10859      7.32742        -0.005969      0.009931     -0.002629
      5.04992      8.10902      7.31889         0.005422      0.002200      0.007713
      3.70335      5.77774      7.32172        -0.003825     -0.012923      0.010078
     13.13766      8.08693      0.26161         0.012087     -0.010853      0.022830
      5.06878      8.08463      0.26460         0.006917      0.008011     -0.024621
      3.72371      5.75604      0.26713         0.003475     -0.008672     -0.027802
      7.75122      1.87999      2.64659        -0.010547      0.037292     -0.025875
      9.09632      8.86850      2.64908        -0.030029      0.002184     -0.021228
      2.35674      3.44618      7.32220         0.000287      0.017151     -0.008478
      2.37985      3.42631      0.26860        -0.012654      0.014331     -0.047851
     10.44000      1.87955      2.64479         0.038872      0.026798     -0.016557
     13.12557      4.99383      4.99116        -0.005272      0.006135      0.006770
      3.70013      1.12146      7.32083         0.000962     -0.003566     -0.000922
      9.07580      5.77498      7.36724        -0.014782      0.005068      0.019053
      5.05559      3.45501      7.34731         0.015322      0.013665      0.011751
      3.72233      1.09737      0.26748         0.024596     -0.018761     -0.047923
      9.10500      5.75603      0.26541        -0.022555     -0.007513      0.000822
      5.06850      3.42582      0.26881        -0.007912     -0.012152      0.021765
     11.78517      8.86891      2.64601        -0.007218      0.015535     -0.007549
     11.78104      7.32293      4.98230         0.004076      0.009326      0.001631
     13.13191      6.53911      2.64788        -0.003849     -0.021806     -0.010258
      9.09694      4.20884      2.64779        -0.050677      0.036844      0.098092
      7.73779      8.09853      7.34233        -0.002950     -0.022271      0.021348
      7.75798      8.08595      0.26640         0.007608      0.014398      0.023722
     10.44181      6.53937      2.64730        -0.034775     -0.022705     -0.018546
      2.36462      0.33136      4.98283         0.005517     -0.005994      0.011794
     14.45466      8.89289      9.71483         0.000332      0.008595     -0.010887
      3.69014      4.23725      9.70837         0.003735      0.001899     -0.009663
      6.38107      8.89746      9.70400         0.005176     -0.016297     -0.009428
     11.77076      4.23722      9.70414        -0.008304      0.003631     -0.008684
      9.07932      8.89820      9.70536        -0.007069     -0.017853     -0.011379
     10.42009      1.89909      9.70428        -0.000152      0.007527     -0.013001
      2.35006      1.90536      9.69737        -0.000753     -0.006027      0.001183
     11.76653      8.89298      9.71407        -0.004139      0.009418     -0.010943
     13.11042      6.56405      9.71806        -0.003280      0.011660     -0.009906
      5.04058      1.89920      9.70825        -0.004190      0.008986     -0.010158
      7.73073      6.59714      9.80722        -0.002730      0.030350      0.001612
      9.10859      4.21727      9.80591        -0.015298     -0.002748      0.007149
      5.02235      6.57592      9.69422         0.009476     -0.015086      0.003637
      7.73046      1.88384      9.69176        -0.003050      0.008331      0.004378
      7.73685      3.45717      7.36897        -0.004329      0.014384      0.009655
      7.75850      3.42728      0.26453        -0.001597      0.005758      0.004595
      6.39091      1.12308      7.31946        -0.002774     -0.003558      0.006955
      6.41385      1.09666      0.26377        -0.011473      0.013226     -0.020921
     11.78629      4.20949      2.64872        -0.005459     -0.029975     -0.016267
      3.71692      4.20991      2.65221         0.008682     -0.034967     -0.004652
      1.01423      1.12139      7.31815        -0.003053     -0.003527     -0.003016
      1.03364      1.09689      0.26321        -0.014222     -0.009204     -0.041943
      6.40532      8.86868      2.64857         0.042209      0.002843     -0.020353
      6.35277      4.21685      9.81043         0.011249      0.000509      0.007078
      7.74550      4.99375      5.03164        -0.003680      0.000609     -0.005239
     10.43857      6.57710      9.69085        -0.014057     -0.018183      0.002589
      5.06044      1.87965      2.65142        -0.005558      0.020638     -0.018096
      2.37107      1.87992      2.65059        -0.004394     -0.003872     -0.074318
     14.47011      7.32297      4.98456        -0.008582      0.009708     -0.001721
     11.77076      5.77780      7.31842         0.002084     -0.012369      0.009599
      6.39829      5.77499      7.37175         0.013960      0.003769      0.012465
     11.79400      5.75603      0.26438        -0.004092     -0.016320     -0.024379
      6.41280      5.75652      0.26708         0.023364     -0.013817      0.002358
      7.75218      6.53890      2.65035        -0.007005     -0.054930      0.098093
      6.40628      4.20924      2.65127         0.053933      0.027273      0.099128
      3.71193      2.66461      4.98820         0.008065      0.011322      0.003128
     10.41754      3.45451      7.34119        -0.009164      0.014350      0.010282
     10.44845      3.42609      0.26229         0.026212     -0.011494      0.026024
     10.43392      0.33399      4.98736        -0.009954     -0.001298      0.005818
      9.08898      7.31969      4.99009         0.002269      0.001567      0.000364
     10.43134      4.99389      4.98984         0.003319     -0.002115     -0.004453
      6.40176      7.31977      4.99261        -0.000246     -0.003009     -0.001446
      5.05587      0.33409      4.99020         0.004399     -0.008176      0.007324
      5.06136      6.53911      2.65062         0.045400     -0.023819     -0.014177
      7.74465      0.33512      4.98288         0.001143     -0.022558     -0.000580
      9.08316      1.12298      7.31730         0.000365     -0.005026      0.004327
     10.42532      8.10916      7.31745        -0.010030      0.001538      0.008708
      9.10352      1.09730      0.26062         0.008246      0.004396     -0.022544
     10.44844      8.08497      0.26180        -0.017925      0.006824     -0.016936
      5.05932      4.99370      4.99533        -0.000758     -0.002310     -0.001785
     11.77771      2.66459      4.98248        -0.012074      0.012662      0.004365
     14.47621      8.86921      2.64561         0.014300      0.008836     -0.006828
      9.08696      2.66710      4.98730         0.012146      0.003123      0.004725
      6.40259      2.66717      4.99147        -0.010177      0.004329      0.006213
      7.73518      4.99671     10.77231        -0.002620      0.008830      0.044820
 -----------------------------------------------------------------------------------
    total drift:                                0.022140      0.022023     -0.102823


--------------------------------------------------------------------------------------------------------



  FREE ENERGIE OF THE ION-ELECTRON SYSTEM (eV)
  ---------------------------------------------------
  free  energy   TOTEN  =      -519.14224591 eV

  energy  without entropy=     -519.10939058  energy(sigma->0) =     -519.13129413
 


--------------------------------------------------------------------------------------------------------


    POTLOK:  cpu time    0.1878: real time    0.1882


--------------------------------------------------------------------------------------------------------




--------------------------------------------------------------------------------------------------------


  
 reached required accuracy - stopping structural energy minimisation
     LOOP+:  cpu time  766.2750: real time  768.2584
    4ORBIT:  cpu time    0.0000: real time    0.0000

 total amount of memory used by VASP MPI-rank0   162324. kBytes
=======================================================================

   base      :      30000. kBytes
   nonlr-proj:      35494. kBytes
   fftplans  :      17970. kBytes
   grid      :      27754. kBytes
   one-center:        326. kBytes
   wavefun   :      50780. kBytes
 
  
  
 General timing and accounting informations for this job:
 ========================================================
  
                  Total CPU time used (sec):      776.619
                            User time (sec):      775.146
                          System time (sec):        1.473
                         Elapsed time (sec):      779.138
  
                   Maximum memory used (kb):      539932.
                   Average memory used (kb):           0.
  
                          Minor page faults:       344373
                          Major page faults:            0
                 Voluntary context switches:         3658
