 vasp.5.4.4.18Apr17-6-g9f103f2a35 (build Nov 30 2020 22:55:02) complex          
  
 executed on             LinuxIFC date 2023.08.07  22:47:07
 running on   40 total cores
 distrk:  each k-point on   40 cores,    1 groups
 distr:  one band on NCORES_PER_BAND=   4 cores,   10 groups


--------------------------------------------------------------------------------------------------------


 INCAR:
 POTCAR:    PAW_PBE Pt 04Feb2005                  
 POTCAR:    PAW_PBE H 15Jun2001                   
 POTCAR:    PAW_PBE Pt 04Feb2005                  
   VRHFIN =Pt: s1d9                                                             
   LEXCH  = PE                                                                  
   EATOM  =   729.1176 eV,   53.5886 Ry                                         
                                                                                
   TITEL  = PAW_PBE Pt 04Feb2005                                                
   LULTRA =        F    use ultrasoft PP ?                                      
   IUNSCR =        1    unscreen: 0-lin 1-nonlin 2-no                           
   RPACOR =    2.330    partial core radius                                     
   POMASS =  195.080; ZVAL   =   10.000    mass and valenz                      
   RCORE  =    2.600    outmost cutoff radius                                   
   RWIGS  =    2.750; RWIGS  =    1.455    wigner-seitz radius (au A)           
   ENMAX  =  230.283; ENMIN  =  172.712 eV                                      
   ICORE  =        3    local potential                                         
   LCOR   =        T    correct aug charges                                     
   LPAW   =        T    paw PP                                                  
   EAUG   =  358.966                                                            
   DEXC   =    0.000                                                            
   RMAX   =    2.658    core radius for proj-oper                               
   RAUG   =    1.300    factor for augmentation sphere                          
   RDEP   =    2.761    radius for radial grids                                 
   RDEPT  =    2.203    core radius for aug-charge                              
                                                                                
   Atomic configuration                                                         
   16 entries                                                                   
     n  l   j            E        occ.                                          
     1  0  0.50    -78401.1885   2.0000                                         
     2  0  0.50    -13770.7750   2.0000                                         
     2  1  1.50    -11931.0468   6.0000                                         
     3  0  0.50     -3234.7234   2.0000                                         
     3  1  1.50     -2699.2216   6.0000                                         
     3  2  2.50     -2119.5714  10.0000                                         
     4  0  0.50      -695.1528   2.0000                                         
     4  1  1.50      -519.6034   6.0000                                         
     4  2  2.50      -306.6786  10.0000                                         
     4  3  3.50       -70.1041  14.0000                                         
     5  0  0.50      -101.7747   2.0000                                         
     5  1  1.50       -55.9873   6.0000                                         
     5  2  2.50        -6.1423   9.0000                                         
     6  0  0.50        -5.6573   1.0000                                         
     6  1  1.50        -6.8029   0.0000                                         
     5  3  2.50        -1.3606   0.0000                                         
   Description                                                                  
     l       E           TYP  RCUT    TYP  RCUT                                 
     2     -6.1423404     23  2.500                                             
     2     -7.5029230     23  2.500                                             
     0     -5.6573207     23  2.500                                             
     0      0.7416693     23  2.500                                             
     1     -2.7211652     23  2.600                                             
     1     20.4087390     23  2.600                                             
     3     -1.3605826     23  2.500                                             
  local pseudopotential read in
  partial core-charges read in
  partial kinetic energy density read in
  atomic valenz-charges read in
  non local Contribution for L=           2  read in
    real space projection operators read in
  non local Contribution for L=           2  read in
    real space projection operators read in
  non local Contribution for L=           0  read in
    real space projection operators read in
  non local Contribution for L=           0  read in
    real space projection operators read in
  non local Contribution for L=           1  read in
    real space projection operators read in
  non local Contribution for L=           1  read in
    real space projection operators read in
    PAW grid and wavefunctions read in
 
   number of l-projection  operators is LMAX  =           6
   number of lm-projection operators is LMMAX =          18
 
 POTCAR:    PAW_PBE H 15Jun2001                   
   VRHFIN =H: ultrasoft test                                                    
   LEXCH  = PE                                                                  
   EATOM  =    12.4884 eV,    0.9179 Ry                                         
                                                                                
   TITEL  = PAW_PBE H 15Jun2001                                                 
   LULTRA =        F    use ultrasoft PP ?                                      
   IUNSCR =        0    unscreen: 0-lin 1-nonlin 2-no                           
   RPACOR =    0.000    partial core radius                                     
   POMASS =    1.000; ZVAL   =    1.000    mass and valenz                      
   RCORE  =    1.100    outmost cutoff radius                                   
   RWIGS  =    0.700; RWIGS  =    0.370    wigner-seitz radius (au A)           
   ENMAX  =  250.000; ENMIN  =  200.000 eV                                      
   RCLOC  =    0.701    cutoff for local pot                                    
   LCOR   =        T    correct aug charges                                     
   LPAW   =        T    paw PP                                                  
   EAUG   =  400.000                                                            
   RMAX   =    1.123    core radius for proj-oper                               
   RAUG   =    1.200    factor for augmentation sphere                          
   RDEP   =    1.112    radius for radial grids                                 
   RDEPT  =    0.926    core radius for aug-charge                              
                                                                                
   Atomic configuration                                                         
    2 entries                                                                   
     n  l   j            E        occ.                                          
     1  0  0.50        -6.4927   1.0000                                         
     2  1  0.50        -3.4015   0.0000                                         
   Description                                                                  
     l       E           TYP  RCUT    TYP  RCUT                                 
     0     -6.4927494     23  1.100                                             
     0      6.8029130     23  1.100                                             
     1     -4.0817478     23  1.100                                             
  local pseudopotential read in
  atomic valenz-charges read in
  non local Contribution for L=           0  read in
    real space projection operators read in
  non local Contribution for L=           0  read in
    real space projection operators read in
  non local Contribution for L=           1  read in
    real space projection operators read in
    PAW grid and wavefunctions read in
 
   number of l-projection  operators is LMAX  =           3
   number of lm-projection operators is LMMAX =           5
 
 Optimization of the real space projectors (new method)

 maximal supplied QI-value         = 14.36
 optimisation between [QCUT,QGAM] = [ 11.92, 23.98] = [ 39.79,161.09] Ry 
 Optimized for a Real-space Cutoff    1.49 Angstroem

   l    n(q)    QCUT    max X(q) W(low)/X(q) W(high)/X(q)  e(spline) 
   2     10    11.920    66.195    0.79E-04    0.18E-03    0.24E-06
   2     10    11.920    64.643    0.81E-04    0.19E-03    0.24E-06
   0     11    11.920    95.520    0.28E-04    0.54E-04    0.18E-06
   0     11    11.920    63.403    0.27E-04    0.52E-04    0.17E-06
   1     10    11.920    19.961    0.18E-04    0.11E-03    0.23E-06
   1     10    11.920    13.289    0.25E-04    0.87E-04    0.19E-06
 Optimization of the real space projectors (new method)

 maximal supplied QI-value         = 34.20
 optimisation between [QCUT,QGAM] = [ 11.97, 23.94] = [ 40.13,160.53] Ry 
 Optimized for a Real-space Cutoff    1.18 Angstroem

   l    n(q)    QCUT    max X(q) W(low)/X(q) W(high)/X(q)  e(spline) 
   0      8    11.971    19.460    0.15E-03    0.31E-03    0.25E-06
   0      8    11.971    12.209    0.13E-03    0.29E-03    0.25E-06
   1      8    11.971     4.655    0.22E-03    0.24E-03    0.21E-06
  PAW_PBE Pt 04Feb2005                  :
 energy of atom  1       EATOM= -729.1176
 kinetic energy error for atom=    0.0021 (will be added to EATOM!!)
  PAW_PBE H 15Jun2001                   :
 energy of atom  2       EATOM=  -12.4884
 kinetic energy error for atom=    0.0008 (will be added to EATOM!!)
 
 
 POSCAR: Pt111\(1\1\1)\(2)                       
  positions in direct lattice
  velocities in cartesian coordinates
 exchange correlation table for  LEXCH =        8
   RHO(1)=    0.500       N(1)  =     2000
   RHO(2)=  100.500       N(2)  =     4000
 


--------------------------------------------------------------------------------------------------------


 ion  position               nearest neighbor table
   1  1.000  0.000  0.056-   5 2.64   9 2.64  13 2.64  29 2.64  57 2.64  37 2.64  42 2.82  54 2.84
                            14 2.91
   2  0.334  0.169  0.181-  26 2.61  14 2.62   6 2.62  30 2.63  42 2.64  38 2.66  11 2.79   7 2.80
                             9 2.93  21 2.93  13 2.95  15 3.02
   3  0.170  0.334  0.308-  43 2.60   7 2.60  15 2.61  39 2.62  27 2.66  31 2.67   8 2.71   6 2.79
                            14 2.98  48 2.98  10 3.00  12 3.13
   4  0.001  0.002  0.416-  16 2.63   8 2.63  32 2.64  40 2.64  12 2.65  60 2.66   7 2.80  27 2.85
                            63 2.91
   5  1.000  0.250  0.056-   1 2.64  45 2.64  33 2.64   9 2.64  29 2.64  25 2.64  18 2.85  10 2.89
                            14 2.90
   6  0.334  0.417  0.190-   2 2.62  26 2.62  62 2.62  14 2.63  34 2.63  10 2.63   3 2.79  43 2.79
                            15 2.88  49 3.09   9 3.09  45 3.09
   7  0.169  0.087  0.299-   3 2.60  15 2.62  11 2.63  27 2.63  35 2.67  63 2.68  16 2.78   4 2.80
                             2 2.80  14 2.84  42 2.93  12 3.26
   8  0.001  0.251  0.419-   4 2.63  28 2.64  32 2.64  36 2.65  48 2.66  12 2.66   3 2.71  27 2.89
                            31 2.91
   9  0.250  0.250  0.056-  21 2.64  13 2.64   1 2.64  49 2.64  45 2.64   5 2.64  14 2.89   2 2.93
                             6 3.09
  10  0.085  0.416  0.179-  14 2.62  34 2.62   6 2.63  46 2.64  18 2.64  22 2.67  31 2.78  39 2.82
                            45 2.88   5 2.89  33 2.90   3 3.00
  11  0.417  0.086  0.298-  19 2.61   7 2.63  15 2.64  35 2.65  23 2.65  47 2.67   2 2.79  16 2.81
                            20 2.82  30 2.84  38 2.90  24 3.00
  12  0.246  0.247  0.445-  66 1.91  65 1.93   4 2.65   8 2.66  16 2.67  24 2.71  48 2.71  52 2.73
                            15 3.08   3 3.13   7 3.26
  13  0.250  0.000  0.056-  21 2.64   9 2.64  17 2.64   1 2.64  37 2.64  41 2.64  42 2.82  38 2.83
                             2 2.95
  14  0.086  0.169  0.179-   2 2.62  10 2.62   6 2.63  42 2.64  18 2.65  54 2.66  27 2.79   7 2.84
                             9 2.89   5 2.90   1 2.91   3 2.98
  15  0.416  0.334  0.312-   3 2.61  43 2.61   7 2.62  55 2.62  19 2.64  11 2.64  24 2.80   6 2.88
                             2 3.02  26 3.02  52 3.04  12 3.08
  16  0.250  0.002  0.416-   4 2.63  40 2.64  44 2.65  24 2.65  20 2.66  12 2.67   7 2.78  11 2.81
                            35 2.91
  17  0.500  0.000  0.056-  29 2.64  25 2.64  13 2.64  21 2.64  41 2.64  53 2.64  38 2.83  58 2.85
                            30 2.88
  18  0.834  0.167  0.176-  22 2.64  54 2.64  10 2.64  58 2.65  14 2.65  30 2.66  31 2.81  27 2.83
                            23 2.84   5 2.85  29 2.85  25 2.85
  19  0.664  0.333  0.298-  11 2.61  55 2.63  15 2.64  59 2.65  23 2.65  31 2.67  26 2.79  64 2.81
                            28 2.82  30 2.84  22 2.90  24 3.00
  20  0.500  0.000  0.416-  24 2.63  44 2.64  56 2.64  28 2.64  32 2.64  16 2.66  11 2.82  23 2.85
                            47 2.87
  21  0.500  0.250  0.056-  25 2.64  61 2.64   9 2.64  13 2.64  49 2.64  17 2.64  30 2.87  26 2.93
                             2 2.93
  22  0.833  0.416  0.175-  30 2.63  50 2.64  18 2.64  46 2.65  26 2.66  10 2.67  59 2.79  25 2.83
                            61 2.83  33 2.83  31 2.84  19 2.90
  23  0.667  0.083  0.296-  31 2.64  47 2.64  51 2.65  27 2.65  19 2.65  11 2.65  30 2.82  18 2.84
                            58 2.84  20 2.85  28 2.85  32 2.86
  24  0.502  0.249  0.428-  66 1.73  28 2.62  20 2.63  64 2.65  16 2.65  52 2.71  12 2.71  15 2.80
                            19 3.00  11 3.00
  25  0.750  0.250  0.056-  17 2.64  21 2.64  29 2.64  61 2.64  33 2.64   5 2.64  22 2.83  18 2.85
                            30 2.88
  26  0.581  0.416  0.181-   2 2.61  62 2.62   6 2.62  30 2.63  50 2.64  22 2.66  19 2.79  55 2.81
                            49 2.92  21 2.93  61 2.94  15 3.02
  27  0.918  0.084  0.296-  31 2.63   7 2.63  63 2.64  23 2.65   3 2.66  51 2.66  14 2.79  18 2.83
                            54 2.85   4 2.85  32 2.87   8 2.89
  28  0.751  0.251  0.416-  24 2.62  36 2.64  32 2.64  20 2.64   8 2.64  64 2.65  19 2.82  23 2.85
                            31 2.87
  29  0.750  0.000  0.056-  17 2.64  25 2.64   5 2.64  53 2.64   1 2.64  57 2.64  54 2.84  18 2.85
                            58 2.85
  30  0.582  0.168  0.178-   2 2.63  38 2.63  26 2.63  22 2.63  58 2.66  18 2.66  23 2.82  11 2.84
                            19 2.84  21 2.87  17 2.88  25 2.88
  31  0.917  0.333  0.295-  27 2.63  23 2.64  59 2.64  39 2.64   3 2.67  19 2.67  10 2.78  18 2.81
                            36 2.84  22 2.84  28 2.87   8 2.91
  32  0.751  0.001  0.417-  60 2.64   4 2.64  28 2.64  20 2.64   8 2.64  56 2.64  23 2.86  27 2.87
                            51 2.87
  33  1.000  0.500  0.056-  37 2.64  41 2.64   5 2.64  45 2.64  25 2.64  61 2.64  46 2.82  22 2.83
                            10 2.90
  34  0.334  0.665  0.179-  62 2.62  10 2.62   6 2.63  46 2.64  58 2.65  38 2.67  47 2.78  39 2.82
                            45 2.88  53 2.89  41 2.90  43 3.00
  35  0.168  0.834  0.292-  47 2.64  11 2.65  63 2.66  59 2.66   7 2.67  39 2.68  38 2.78  42 2.80
                            46 2.81  40 2.82  44 2.88  16 2.91
  36  1.000  0.501  0.414-  48 2.63  28 2.64   8 2.65  44 2.65  64 2.65  40 2.65  39 2.79  31 2.84
                            59 2.88
  37  1.000  0.750  0.056-  33 2.64  41 2.64  61 2.64  57 2.64  13 2.64   1 2.64  46 2.83  50 2.83
                            42 2.83
  38  0.334  0.917  0.175-  30 2.63  58 2.64  42 2.64  46 2.65   2 2.66  34 2.67  35 2.78  17 2.83
                            13 2.83  41 2.83  47 2.84  11 2.90
  39  0.169  0.581  0.298-  43 2.62   3 2.62  31 2.64  47 2.64  59 2.68  35 2.68  36 2.79  44 2.80
                            34 2.82  10 2.82  46 2.92  48 3.09
  40  1.000  0.751  0.410-  64 2.64  16 2.64   4 2.64  60 2.64  36 2.65  44 2.65  63 2.80  35 2.82
                            59 2.83
  41  0.250  0.750  0.056-  45 2.64  33 2.64  37 2.64  53 2.64  17 2.64  13 2.64  46 2.82  38 2.83
                            34 2.90
  42  0.084  0.918  0.175-  14 2.64  38 2.64  54 2.64   2 2.64  46 2.66  50 2.67  35 2.80  63 2.81
                            13 2.82   1 2.82  37 2.83   7 2.93
  43  0.416  0.580  0.308-   3 2.60  55 2.60  15 2.61  39 2.62  51 2.66  47 2.67  56 2.71   6 2.79
                            48 2.98  62 2.98  34 3.00  52 3.09
  44  0.250  0.751  0.414-  48 2.63  20 2.64  56 2.64  36 2.65  40 2.65  16 2.65  39 2.80  47 2.84
                            35 2.88
  45  0.250  0.500  0.056-  41 2.64  53 2.64   5 2.64   9 2.64  49 2.64  33 2.64  10 2.88  34 2.88
                             6 3.09
  46  0.084  0.666  0.175-  10 2.64  34 2.64  22 2.65  38 2.65  42 2.66  50 2.66  59 2.80  35 2.81
                            41 2.82  33 2.82  37 2.83  39 2.92
  47  0.418  0.833  0.295-  51 2.63  23 2.64  35 2.64  39 2.64  43 2.67  11 2.67  34 2.78  58 2.81
                            44 2.84  38 2.84  20 2.87  56 2.91
  48  0.248  0.504  0.435-  65 1.72  44 2.63  36 2.63  56 2.66   8 2.66  52 2.71  12 2.71  43 2.98
                             3 2.98  39 3.09
  49  0.500  0.500  0.056-  61 2.64  53 2.64  57 2.64  21 2.64   9 2.64  45 2.64  62 2.89  26 2.92
                             6 3.09
  50  0.832  0.666  0.175-  62 2.64  22 2.64  54 2.64  26 2.64  46 2.66  42 2.67  59 2.80  63 2.82
                            61 2.82  57 2.82  37 2.83  55 2.93
  51  0.666  0.832  0.296-  47 2.63  55 2.63  63 2.64  23 2.65  43 2.66  27 2.66  62 2.79  58 2.84
                            54 2.85  60 2.85  32 2.87  56 2.89
  52  0.505  0.505  0.443-  66 2.00  65 2.01  60 2.64  56 2.65  64 2.66  24 2.71  48 2.71  12 2.73
                            15 3.04  43 3.09  55 3.21
  53  0.500  0.750  0.056-  49 2.64  57 2.64  45 2.64  41 2.64  29 2.64  17 2.64  58 2.85  34 2.89
                            62 2.90
  54  0.833  0.917  0.176-  18 2.64  58 2.64  42 2.64  50 2.64  62 2.66  14 2.66  63 2.79   1 2.84
                            57 2.84  29 2.84  27 2.85  51 2.85
  55  0.663  0.581  0.299-  43 2.60  15 2.62  19 2.63  51 2.63  59 2.67  63 2.67  64 2.78  26 2.81
                            60 2.81  62 2.84  50 2.93  52 3.21
  56  0.500  0.750  0.419-  60 2.63  20 2.64  44 2.64  32 2.64  52 2.65  48 2.66  43 2.71  51 2.89
                            47 2.91
  57  0.750  0.750  0.056-  61 2.64  49 2.64  53 2.64  37 2.64   1 2.64  29 2.64  50 2.82  54 2.84
                            62 2.91
  58  0.583  0.916  0.176-  38 2.64  54 2.64  34 2.65  18 2.65  62 2.65  30 2.66  47 2.81  51 2.84
                            23 2.84  53 2.85  29 2.85  17 2.85
  59  0.916  0.582  0.292-  31 2.64  19 2.65  63 2.66  35 2.66  55 2.67  39 2.68  22 2.79  50 2.80
                            46 2.80  40 2.83  36 2.88  64 2.91
  60  0.749  0.750  0.417-  64 2.63  56 2.63  52 2.64  32 2.64  40 2.64   4 2.66  55 2.81  51 2.85
                            63 2.91
  61  0.750  0.500  0.056-  49 2.64  57 2.64  21 2.64  25 2.64  37 2.64  33 2.64  50 2.82  22 2.83
                            26 2.94
  62  0.581  0.664  0.179-  26 2.62  34 2.62   6 2.62  50 2.64  58 2.65  54 2.66  51 2.79  55 2.84
                            49 2.89  53 2.90  57 2.91  43 2.98
  63  0.916  0.834  0.293-  51 2.64  27 2.64  59 2.66  35 2.66  55 2.67   7 2.68  54 2.79  40 2.80
                            42 2.81  50 2.82   4 2.91  60 2.91
  64  0.750  0.501  0.416-  60 2.63  40 2.64  36 2.65  24 2.65  28 2.65  52 2.66  55 2.78  19 2.81
                            59 2.91
  65  0.314  0.430  0.492-  48 1.72  12 1.93  52 2.01
  66  0.430  0.312  0.488-  24 1.73  12 1.91  52 2.00
 
  LATTYP: Found a hexagonal cell.
 ALAT       =    10.5600004196
 C/A-ratio  =     1.8939393187
  
  Lattice vectors:
  
 A1 = (  10.5600004196,   0.0000000000,   0.0000000000)
 A2 = (  -5.2800002098,   9.1452286274,   0.0000000000)
 A3 = (   0.0000000000,   0.0000000000,  20.0000000000)


Analysis of symmetry for initial positions (statically):
=====================================================================
 Subroutine PRICEL returns:
 Original cell was already a primitive cell.
 

 Routine SETGRP: Setting up the symmetry group for a 
 hexagonal supercell.


 Subroutine GETGRP returns: Found  1 space group operations
 (whereof  1 operations were pure point group operations)
 out of a pool of 24 trial point group operations.


The static configuration has the point symmetry C_1 .


Analysis of symmetry for dynamics (positions and initial velocities):
=====================================================================
 Subroutine PRICEL returns:
 Original cell was already a primitive cell.
 

 Routine SETGRP: Setting up the symmetry group for a 
 hexagonal supercell.


 Subroutine GETGRP returns: Found  1 space group operations
 (whereof  1 operations were pure point group operations)
 out of a pool of 24 trial point group operations.


The dynamic configuration has the point symmetry C_1 .


Analysis of constrained symmetry for selective dynamics:
=====================================================================
 Subroutine PRICEL returns:
 Original cell was already a primitive cell.
 

 Routine SETGRP: Setting up the symmetry group for a 
 hexagonal supercell.


 Subroutine GETGRP returns: Found  1 space group operations
 (whereof  1 operations were pure point group operations)
 out of a pool of 24 trial point group operations.


The constrained configuration has the point symmetry C_1 .


Analysis of structural, dynamic, and magnetic symmetry:
=====================================================================
 Subroutine PRICEL returns:
 Original cell was already a primitive cell.
 

 Routine SETGRP: Setting up the symmetry group for a 
 hexagonal supercell.


 Subroutine GETGRP returns: Found  1 space group operations
 (whereof  1 operations were pure point group operations)
 out of a pool of 24 trial point group operations.


The magnetic configuration has the point symmetry C_1 .


 Subroutine INISYM returns: Found  1 space group operations
 (whereof  1 operations are pure point group operations),
 and found     1 'primitive' translations

 
 
 KPOINTS: mesh auto                               

Automatic generation of k-mesh.
Space group operators:
 irot       det(A)        alpha          n_x          n_y          n_z        tau_x        tau_y        tau_z
    1     1.000000     0.000000     1.000000     0.000000     0.000000     0.000000     0.000000     0.000000
 
 Subroutine IBZKPT returns following result:
 ===========================================
 
 Found      4 irreducible k-points:
 
 Following reciprocal coordinates:
            Coordinates               Weight
  0.000000  0.000000  0.000000      1.000000
  0.500000 -0.000000  0.000000      1.000000
  0.000000  0.500000  0.000000      1.000000
  0.500000  0.500000  0.000000      1.000000
 
 Following cartesian coordinates:
            Coordinates               Weight
  0.000000  0.000000  0.000000      1.000000
  0.047348  0.027337  0.000000      1.000000
  0.000000  0.054673  0.000000      1.000000
  0.047348  0.082010  0.000000      1.000000
 


--------------------------------------------------------------------------------------------------------




 Dimension of arrays:
   k-points           NKPTS =      4   k-points in BZ     NKDIM =      4   number of bands    NBANDS=    450
   number of dos      NEDOS =    301   number of ions     NIONS =     66
   non local maximal  LDIM  =      6   non local SUM 2l+1 LMDIM =     18
   total plane-waves  NPLWV = ******
   max r-space proj   IRMAX =   8171   max aug-charges    IRDMAX=  35597
   dimension x,y,z NGX =    84 NGY =   84 NGZ =  160
   dimension x,y,z NGXF=   168 NGYF=  168 NGZF=  320
   support grid    NGXF=   168 NGYF=  168 NGZF=  320
   ions per type =              64   2
   NGX,Y,Z   is equivalent  to a cutoff of  13.22, 13.22, 13.30 a.u.
   NGXF,Y,Z  is equivalent  to a cutoff of  26.45, 26.45, 26.60 a.u.

 SYSTEM =  Pt111                                   
 POSCAR =  Pt111\(1\1\1)\(2)                       

 Startparameter for this run:
   NWRITE =      2    write-flag & timer
   PREC   = accura    normal or accurate (medium, high low for compatibility)
   ISTART =      0    job   : 0-new  1-cont  2-samecut
   ICHARG =      2    charge: 1-file 2-atom 10-const
   ISPIN  =      2    spin polarized calculation?
   LNONCOLLINEAR =      F non collinear calculations
   LSORBIT =      F    spin-orbit coupling
   INIWAV =      1    electr: 0-lowe 1-rand  2-diag
   LASPH  =      F    aspherical Exc in radial PAW
   METAGGA=      F    non-selfconsistent MetaGGA calc.

 Electronic Relaxation 1
   ENCUT  =  550.0 eV  40.42 Ry    6.36 a.u.  20.19 20.19 38.24*2*pi/ulx,y,z
   ENINI  =  550.0     initial cutoff
   ENAUG  =  400.0 eV  augmentation charge cutoff
   NELM   =    200;   NELMIN=  2; NELMDL= -5     # of ELM steps 
   EDIFF  = 0.1E-04   stopping-criterion for ELM
   LREAL  =      T    real-space projection
   NLSPLINE    = F    spline interpolate recip. space projectors
   LCOMPAT=      F    compatible to vasp.4.4
   GGA_COMPAT  = T    GGA compatible to vasp.4.4-vasp.4.6
   LMAXPAW     = -100 max onsite density
   LMAXMIX     =    2 max onsite mixed and CHGCAR
   VOSKOWN=      0    Vosko Wilk Nusair interpolation
   ROPT   =   -0.00025  -0.00025
 Ionic relaxation
   EDIFFG = -.5E-01   stopping-criterion for IOM
   NSW    =    300    number of steps for IOM
   NBLOCK =      1;   KBLOCK =    300    inner block; outer block 
   IBRION =      1    ionic relax: 0-MD 1-quasi-New 2-CG
   NFREE  =      0    steps in history (QN), initial steepest desc. (CG)
   ISIF   =      2    stress and relaxation
   IWAVPR =     11    prediction:  0-non 1-charg 2-wave 3-comb
   ISYM   =      2    0-nonsym 1-usesym 2-fastsym
   LCORR  =      T    Harris-Foulkes like correction to forces

   POTIM  = 0.5000    time-step for ionic-motion
   TEIN   =    0.0    initial temperature
   TEBEG  =    0.0;   TEEND  =   0.0 temperature during run
   SMASS  =  -3.00    Nose mass-parameter (am)
   estimated Nose-frequenzy (Omega)   =  0.10E-29 period in steps =****** mass=  -0.255E-26a.u.
   SCALEE = 1.0000    scale energy and forces
   NPACO  =    256;   APACO  = 16.0  distance and # of slots for P.C.
   PSTRESS=    0.0 pullay stress

  Mass of Ions in am
   POMASS = 195.08  1.00
  Ionic Valenz
   ZVAL   =  10.00  1.00
  Atomic Wigner-Seitz radii
   RWIGS  =  -1.00 -1.00
  virtual crystal weights 
   VCA    =   1.00  1.00
   NELECT =     642.0000    total number of electrons
   NUPDOWN=      -1.0000    fix difference up-down

 DOS related values:
   EMIN   =  10.00;   EMAX   =-10.00  energy-range for DOS
   EFERMI =   0.00
   ISMEAR =     1;   SIGMA  =   0.10  broadening in eV -4-tet -1-fermi 0-gaus

 Electronic relaxation 2 (details)
   IALGO  =     68    algorithm
   LDIAG  =      T    sub-space diagonalisation (order eigenvalues)
   LSUBROT=      F    optimize rotation matrix (better conditioning)
   TURBO    =      0    0=normal 1=particle mesh
   IRESTART =      0    0=no restart 2=restart with 2 vectors
   NREBOOT  =      0    no. of reboots
   NMIN     =      0    reboot dimension
   EREF     =   0.00    reference energy to select bands
   IMIX   =      4    mixing-type and parameters
     AMIX     =   0.40;   BMIX     =  1.00
     AMIX_MAG =   1.60;   BMIX_MAG =  1.00
     AMIN     =   0.10
     WC   =   100.;   INIMIX=   1;  MIXPRE=   1;  MAXMIX= -45

 Intra band minimization:
   WEIMIN = 0.0010     energy-eigenvalue tresh-hold
   EBREAK =  0.56E-08  absolut break condition
   DEPER  =   0.30     relativ break condition  

   TIME   =   0.40     timestep for ELM

  volume/ion in A,a.u.               =      29.26       197.49
  Fermi-wavevector in a.u.,A,eV,Ry     =   1.134028  2.143002 17.497349  1.286019
  Thomas-Fermi vector in A             =   2.270731
 
 Write flags
   LWAVE        =      F    write WAVECAR
   LDOWNSAMPLE  =      F    k-point downsampling of WAVECAR
   LCHARG       =      F    write CHGCAR
   LVTOT        =      F    write LOCPOT, total local potential
   LVHAR        =      F    write LOCPOT, Hartree potential only
   LELF         =      F    write electronic localiz. function (ELF)
   LORBIT       =      0    0 simple, 1 ext, 2 COOP (PROOUT), +10 PAW based schemes


 Dipole corrections
   LMONO  =      F    monopole corrections only (constant potential shift)
   LDIPOL =      F    correct potential (dipole corrections)
   IDIPOL =      0    1-x, 2-y, 3-z, 4-all directions 
   EPSILON=  1.0000000 bulk dielectric constant

 Exchange correlation treatment:
   GGA     =    --    GGA type
   LEXCH   =     8    internal setting for exchange type
   VOSKOWN=      0    Vosko Wilk Nusair interpolation
   LHFCALC =     F    Hartree Fock is set to
   LHFONE  =     F    Hartree Fock one center treatment
   AEXX    =    0.0000 exact exchange contribution

 Linear response parameters
   LEPSILON=     F    determine dielectric tensor
   LRPA    =     F    only Hartree local field effects (RPA)
   LNABLA  =     F    use nabla operator in PAW spheres
   LVEL    =     F    velocity operator in full k-point grid
   LINTERFAST=   F  fast interpolation
   KINTER  =     0    interpolate to denser k-point grid
   CSHIFT  =0.1000    complex shift for real part using Kramers Kronig
   OMEGAMAX=  -1.0    maximum frequency
   DEG_THRESHOLD= 0.2000000E-02 threshold for treating states as degnerate
   RTIME   =   -0.100 relaxation time in fs
  (WPLASMAI=    0.000 imaginary part of plasma frequency in eV, 0.658/RTIME)
   DFIELD  = 0.0000000 0.0000000 0.0000000 field for delta impulse in time
 
 Orbital magnetization related:
   ORBITALMAG=     F  switch on orbital magnetization
   LCHIMAG   =     F  perturbation theory with respect to B field
   DQ        =  0.001000  dq finite difference perturbation B field
   LLRAUG    =     F  two centre corrections for induced B field



--------------------------------------------------------------------------------------------------------


 quasi-Newton-method for relaxation of ions
   using selective dynamics as specified on POSCAR
 charge density and potential will be updated during run
 spin polarized calculation
 RMM-DIIS sequential band-by-band and
  variant of blocked Davidson during initial phase
 perform sub-space diagonalisation
    before iterative eigenvector-optimisation
 modified Broyden-mixing scheme, WC =      100.0
 initial mixing is a Kerker type mixing with AMIX =  0.4000 and BMIX =      1.0000
 Hartree-type preconditioning will be used
 using additional bands          129
 real space projection scheme for non local part
 use partial core corrections
 calculate Harris-corrections to forces 
   (improved forces if not selfconsistent)
 use gradient corrections 
 use of overlap-Matrix (Vanderbilt PP)
 Methfessel and Paxton  Order N= 1 SIGMA  =   0.10


--------------------------------------------------------------------------------------------------------


  energy-cutoff  :      550.00
  volume of cell :     1931.47
      direct lattice vectors                 reciprocal lattice vectors
    10.560000420  0.000000000  0.000000000     0.094696966  0.054673319  0.000000000
    -5.280000210  9.145228627  0.000000000     0.000000000  0.109346638  0.000000000
     0.000000000  0.000000000 20.000000000     0.000000000  0.000000000  0.050000000

  length of vectors
    10.560000420 10.560000420 20.000000000     0.109346638  0.109346638  0.050000000


 
 k-points in units of 2pi/SCALE and weight: mesh auto                               
   0.00000000  0.00000000  0.00000000       0.250
   0.04734848  0.02733666  0.00000000       0.250
   0.00000000  0.05467332  0.00000000       0.250
   0.04734848  0.08200998  0.00000000       0.250
 
 k-points in reciprocal lattice and weights: mesh auto                               
   0.00000000  0.00000000  0.00000000       0.250
   0.50000000 -0.00000000  0.00000000       0.250
   0.00000000  0.50000000  0.00000000       0.250
   0.50000000  0.50000000  0.00000000       0.250
 
 position of ions in fractional coordinates (direct lattice) 
   0.99999844  0.00000156  0.05579229
   0.33389022  0.16890947  0.18121875
   0.16996564  0.33398003  0.30757810
   0.00108770  0.00190187  0.41648632
   0.99999844  0.25000155  0.05579229
   0.33361277  0.41650707  0.18997863
   0.16899051  0.08744389  0.29938983
   0.00103353  0.25085707  0.41862935
   0.24999844  0.25000155  0.05579229
   0.08535975  0.41647635  0.17855291
   0.41716279  0.08585550  0.29788476
   0.24628720  0.24675747  0.44498279
   0.24999844  0.00000156  0.05579229
   0.08595708  0.16865877  0.17900840
   0.41649670  0.33382864  0.31218316
   0.24965323  0.00161054  0.41562906
   0.49999844  0.00000156  0.05579229
   0.83406254  0.16694412  0.17620222
   0.66445817  0.33314393  0.29791676
   0.50049930  0.00038658  0.41601051
   0.49999843  0.25000155  0.05579229
   0.83267036  0.41620893  0.17504907
   0.66714320  0.08335308  0.29572643
   0.50239914  0.24910698  0.42821918
   0.74999841  0.25000155  0.05579229
   0.58123324  0.41628548  0.18108593
   0.91830324  0.08441476  0.29564519
   0.75059125  0.25054775  0.41605686
   0.74999842  0.00000156  0.05579229
   0.58248998  0.16750258  0.17782702
   0.91744271  0.33272006  0.29459818
   0.75075032  0.00051492  0.41669853
   0.99999844  0.50000154  0.05579229
   0.33356569  0.66460919  0.17862743
   0.16824303  0.83433227  0.29177990
   0.99987031  0.50065721  0.41412041
   0.99999843  0.75000151  0.05579229
   0.33391035  0.91742310  0.17500102
   0.16927232  0.58117870  0.29787064
   0.99995585  0.75121894  0.41015515
   0.24999843  0.75000151  0.05579229
   0.08430433  0.91817196  0.17484638
   0.41636051  0.58040505  0.30765754
   0.25047821  0.75115038  0.41410491
   0.24999844  0.50000154  0.05579229
   0.08410264  0.66595159  0.17450625
   0.41778768  0.83302309  0.29457327
   0.24752883  0.50374920  0.43497632
   0.49999844  0.50000154  0.05579229
   0.83185428  0.66572193  0.17484891
   0.66609250  0.83226488  0.29581332
   0.50462032  0.50520429  0.44255013
   0.49999843  0.75000151  0.05579229
   0.83343441  0.91660164  0.17578151
   0.66296389  0.58143716  0.29938632
   0.50024969  0.75028292  0.41878194
   0.74999841  0.75000151  0.05579229
   0.58310516  0.91601152  0.17622883
   0.91611881  0.58218988  0.29181141
   0.74930096  0.75016954  0.41685499
   0.74999839  0.50000154  0.05579229
   0.58136294  0.66412071  0.17911770
   0.91641024  0.83384792  0.29277098
   0.74967393  0.50146867  0.41566268
   0.31423851  0.42954454  0.49159989
   0.42973668  0.31235653  0.48831369
 
 position of ions in cartesian coordinates  (Angst):
  10.55997578  0.00001422  1.11584590
   2.63403886  1.54471573  3.62437490
   0.03142257  3.05432370  6.15156209
   0.00144425  0.01739301  8.32972650
   9.23997574  2.28632132  1.11584590
   1.32379355  3.80905241  3.79957262
   1.32283612  0.79969436  5.98779660
  -1.31361133  2.29414528  8.37258697
   1.31997542  2.28632132  1.11584590
  -1.29759627  3.80877144  3.57105822
   3.95192217  0.78516815  5.95769516
   1.29791341  2.25665350  8.89965584
   2.63997547  0.00001422  1.11584590
   0.01718841  1.54242305  3.58016800
   2.63559002  3.05293923  6.24366330
   2.62783449  0.01472880  8.31258119
   5.27997557  0.00001422  1.11584590
   7.92623581  1.52674216  3.52404445
   5.25767856  3.04667738  5.95833523
   5.28323170  0.00353537  8.32021028
   3.95997540  2.28632132  1.11584590
   6.59541609  3.80632581  3.50098134
   6.60492812  0.76228300  5.91452865
   3.99005025  2.27814026  8.56438366
   6.59997527  2.28632132  1.11584590
   3.93983588  3.80702586  3.62171859
   9.25157262  0.77199225  5.91290381
   6.60335167  2.29131650  8.32113724
   7.91997543  0.00001422  1.11584590
   5.26668081  1.53184934  3.55654031
   7.93143339  3.04280106  5.89196360
   7.92520490  0.00470908  8.33397052
   7.91997567  4.57262842  1.11584590
   0.01331714  6.07800295  3.57254861
  -2.62862810  7.63015940  5.83559797
   7.91516069  4.57862463  8.28240827
   6.59997574  6.85893527  1.11584590
  -1.31790080  8.39004404  3.50002045
  -1.28110791  5.31501210  5.95741277
   6.59309802  6.87006893  8.20310293
  -1.32002457  6.85893527  1.11584590
  -3.95769441  8.39689251  3.49692766
   1.33222843  5.30793687  6.15315078
  -1.32102420  6.86944198  8.28209819
  -0.00002464  4.57262842  1.11584590
  -2.62810064  6.09027955  3.49012502
   0.01347593  7.61818665  5.89146533
  -0.04589129  4.60690158  8.69952638
   2.63997546  4.57262842  1.11584590
   5.26936964  6.08817929  3.49697815
   2.63957839  7.61125258  5.91626630
   2.66131197  4.62020875  8.85100263
   1.31997553  6.85893527  1.11584590
   3.96141086  8.38253159  3.51563014
   3.93091068  5.31737573  5.98772631
   1.32114299  6.86150880  8.37563874
   3.95997540  6.85893527  1.11584590
   1.32104976  8.37713474  3.52457659
   6.60025239  5.32425952  5.83622821
   3.95172313  6.86047196  8.33709984
   5.27997509  4.57262842  1.11584590
   2.63263540  6.07353570  3.58235405
   5.27457532  7.62572990  5.85541967
   5.26880230  4.58604565  8.31325359
   1.05036356  3.92828302  9.83199774
   2.88877695  2.85657192  9.76627384
 


--------------------------------------------------------------------------------------------------------


 k-point  1 :   0.0000 0.0000 0.0000  plane waves:   56579
 k-point  2 :   0.5000-0.0000 0.0000  plane waves:   56606
 k-point  3 :   0.0000 0.5000 0.0000  plane waves:   56606
 k-point  4 :   0.5000 0.5000 0.0000  plane waves:   56606

 maximum and minimum number of plane-waves per node :     14185    14108

 maximum number of plane-waves:     56606
 maximum index in each direction: 
   IXMAX=   20   IYMAX=   20   IZMAX=   38
   IXMIN=  -20   IYMIN=  -20   IZMIN=  -38


 real space projection operators:
  total allocation   :      71344.61 KBytes
  max/ min on nodes  :      17846.38      17824.02


 parallel 3D FFT for wavefunctions:
    minimum data exchange during FFTs selected (reduces bandwidth)
 parallel 3D FFT for charge:
    minimum data exchange during FFTs selected (reduces bandwidth)


 total amount of memory used by VASP MPI-rank0   206343. kBytes
=======================================================================

   base      :      30000. kBytes
   nonlr-proj:      31128. kBytes
   fftplans  :      17093. kBytes
   grid      :      44247. kBytes
   one-center:        528. kBytes
   wavefun   :      83347. kBytes
 
     INWAV:  cpu time    0.0000: real time    0.0000
 Broyden mixing: mesh for mixing (old mesh)
   NGX = 41   NGY = 41   NGZ = 77
  (NGX  =168   NGY  =168   NGZ  =320)
  gives a total of 129437 points

 initial charge density was supplied:
 charge density of overlapping atoms calculated
 number of electron     642.0000000 magnetization     130.0000000
 keeping initial charge density in first step


--------------------------------------------------------------------------------------------------------


 Maximum index for non-local projection operator         2011
 Maximum index for augmentation-charges         2177 (set IRDMAX)


--------------------------------------------------------------------------------------------------------


 First call to EWALD:  gamma=   0.142
 Maximum number of real-space cells 4x 4x 2
 Maximum number of reciprocal cells 2x 2x 4

    FEWALD:  cpu time    0.0048: real time    0.0048


--------------------------------------- Iteration      1(   1)  ---------------------------------------


    POTLOK:  cpu time    0.5271: real time    0.6198
    SETDIJ:  cpu time    0.0479: real time    0.0485
     EDDAV:  cpu time   56.6697: real time   57.2606
       DOS:  cpu time    0.0030: real time    0.0031
    --------------------------------------------
      LOOP:  cpu time   57.2478: real time   57.9321

 eigenvalue-minimisations  :  7200
 total energy-change (2. order) : 0.4474298E+04  (-0.3123618E+05)
 number of electron     642.0000000 magnetization     130.0000000
 augmentation part      642.0000000 magnetization     130.0000000

 Free energy of the ion-electron system (eV)
  ---------------------------------------------------
  alpha Z        PSCENC =      2023.78361127
  Ewald energy   TEWEN  =    124103.76019431
  -Hartree energ DENC   =   -175215.26979458
  -exchange      EXHF   =         0.00000000
  -V(xc)+E(xc)   XCENC  =       263.80575636
  PAW double counting   =     44535.65345321   -42726.61560978
  entropy T*S    EENTRO =        -0.00811643
  eigenvalues    EBANDS =      4800.81850031
  atomic energy  EATOM  =     46688.37031544
  Solvation  Ediel_sol  =         0.00000000
  ---------------------------------------------------
  free energy    TOTEN  =      4474.29831011 eV

  energy without entropy =     4474.30642654  energy(sigma->0) =     4474.30101559


--------------------------------------------------------------------------------------------------------




--------------------------------------- Iteration      1(   2)  ---------------------------------------


     EDDAV:  cpu time   61.2297: real time   61.4101
       DOS:  cpu time    0.0024: real time    0.0024
    --------------------------------------------
      LOOP:  cpu time   61.2320: real time   61.4125

 eigenvalue-minimisations  :  8010
 total energy-change (2. order) :-0.4612520E+04  (-0.4215499E+04)
 number of electron     642.0000000 magnetization     130.0000000
 augmentation part      642.0000000 magnetization     130.0000000

 Free energy of the ion-electron system (eV)
  ---------------------------------------------------
  alpha Z        PSCENC =      2023.78361127
  Ewald energy   TEWEN  =    124103.76019431
  -Hartree energ DENC   =   -175215.26979458
  -exchange      EXHF   =         0.00000000
  -V(xc)+E(xc)   XCENC  =       263.80575636
  PAW double counting   =     44535.65345321   -42726.61560978
  entropy T*S    EENTRO =        -0.00598436
  eigenvalues    EBANDS =       188.29630161
  atomic energy  EATOM  =     46688.37031544
  Solvation  Ediel_sol  =         0.00000000
  ---------------------------------------------------
  free energy    TOTEN  =      -138.22175652 eV

  energy without entropy =     -138.21577216  energy(sigma->0) =     -138.21976173


--------------------------------------------------------------------------------------------------------




--------------------------------------- Iteration      1(   3)  ---------------------------------------


     EDDAV:  cpu time   62.0594: real time   62.2414
       DOS:  cpu time    0.0025: real time    0.0025
    --------------------------------------------
      LOOP:  cpu time   62.0619: real time   62.2439

 eigenvalue-minimisations  :  8110
 total energy-change (2. order) :-0.2301279E+03  (-0.2175007E+03)
 number of electron     642.0000000 magnetization     130.0000000
 augmentation part      642.0000000 magnetization     130.0000000

 Free energy of the ion-electron system (eV)
  ---------------------------------------------------
  alpha Z        PSCENC =      2023.78361127
  Ewald energy   TEWEN  =    124103.76019431
  -Hartree energ DENC   =   -175215.26979458
  -exchange      EXHF   =         0.00000000
  -V(xc)+E(xc)   XCENC  =       263.80575636
  PAW double counting   =     44535.65345321   -42726.61560978
  entropy T*S    EENTRO =         0.03349575
  eigenvalues    EBANDS =       -41.87107344
  atomic energy  EATOM  =     46688.37031544
  Solvation  Ediel_sol  =         0.00000000
  ---------------------------------------------------
  free energy    TOTEN  =      -368.34965147 eV

  energy without entropy =     -368.38314721  energy(sigma->0) =     -368.36081672


--------------------------------------------------------------------------------------------------------




--------------------------------------- Iteration      1(   4)  ---------------------------------------


     EDDAV:  cpu time   63.8786: real time   64.0660
       DOS:  cpu time    0.0025: real time    0.0025
    --------------------------------------------
      LOOP:  cpu time   63.8811: real time   64.0685

 eigenvalue-minimisations  :  8430
 total energy-change (2. order) :-0.4892729E+01  (-0.4858836E+01)
 number of electron     642.0000000 magnetization     130.0000000
 augmentation part      642.0000000 magnetization     130.0000000

 Free energy of the ion-electron system (eV)
  ---------------------------------------------------
  alpha Z        PSCENC =      2023.78361127
  Ewald energy   TEWEN  =    124103.76019431
  -Hartree energ DENC   =   -175215.26979458
  -exchange      EXHF   =         0.00000000
  -V(xc)+E(xc)   XCENC  =       263.80575636
  PAW double counting   =     44535.65345321   -42726.61560978
  entropy T*S    EENTRO =         0.03282450
  eigenvalues    EBANDS =       -46.76313093
  atomic energy  EATOM  =     46688.37031544
  Solvation  Ediel_sol  =         0.00000000
  ---------------------------------------------------
  free energy    TOTEN  =      -373.24238019 eV

  energy without entropy =     -373.27520470  energy(sigma->0) =     -373.25332169


--------------------------------------------------------------------------------------------------------




--------------------------------------- Iteration      1(   5)  ---------------------------------------


     EDDAV:  cpu time   62.3382: real time   62.5180
       DOS:  cpu time    0.0025: real time    0.0025
    CHARGE:  cpu time    3.6015: real time    3.6103
    MIXING:  cpu time    0.0105: real time    0.0116
    --------------------------------------------
      LOOP:  cpu time   65.9528: real time   66.1424

 eigenvalue-minimisations  :  8130
 total energy-change (2. order) :-0.1563745E+00  (-0.1561019E+00)
 number of electron     642.0000059 magnetization     117.7534116
 augmentation part      185.5586390 magnetization      92.6120652

 Broyden mixing:
  rms(total) = 0.11306E+02    rms(broyden)= 0.11306E+02
  rms(prec ) = 0.11399E+02
  weight for this iteration     100.00

 Free energy of the ion-electron system (eV)
  ---------------------------------------------------
  alpha Z        PSCENC =      2023.78361127
  Ewald energy   TEWEN  =    124103.76019431
  -Hartree energ DENC   =   -175215.26979458
  -exchange      EXHF   =         0.00000000
  -V(xc)+E(xc)   XCENC  =       263.80575636
  PAW double counting   =     44535.65345321   -42726.61560978
  entropy T*S    EENTRO =         0.03284882
  eigenvalues    EBANDS =       -46.91952974
  atomic energy  EATOM  =     46688.37031544
  Solvation  Ediel_sol  =         0.00000000
  ---------------------------------------------------
  free energy    TOTEN  =      -373.39875469 eV

  energy without entropy =     -373.43160351  energy(sigma->0) =     -373.40970430


--------------------------------------------------------------------------------------------------------




--------------------------------------- Iteration      1(   6)  ---------------------------------------


    POTLOK:  cpu time    0.4755: real time    0.4767
    SETDIJ:  cpu time    0.0454: real time    0.0455
    EDDIAG:  cpu time    9.6341: real time    9.6573
  RMM-DIIS:  cpu time   34.7570: real time   34.8432
    ORTHCH:  cpu time    1.1325: real time    1.1352
       DOS:  cpu time    0.0023: real time    0.0023
    CHARGE:  cpu time    3.6071: real time    3.6156
    MIXING:  cpu time    0.0147: real time    0.0151
    --------------------------------------------
      LOOP:  cpu time   49.6687: real time   49.7910

 eigenvalue-minimisations  :  7245
 total energy-change (2. order) : 0.6386364E+02  (-0.1130475E+02)
 number of electron     642.0000058 magnetization     102.9933391
 augmentation part      196.3553427 magnetization      77.8702193

 Broyden mixing:
  rms(total) = 0.71804E+01    rms(broyden)= 0.71804E+01
  rms(prec ) = 0.73953E+01
  weight for this iteration     100.00

 eigenvalues of (default mixing * dielectric matrix)
  average eigenvalue GAMMA=   0.9833
  0.9833

 Free energy of the ion-electron system (eV)
  ---------------------------------------------------
  alpha Z        PSCENC =      2023.78361127
  Ewald energy   TEWEN  =    124103.76019431
  -Hartree energ DENC   =   -174558.37157423
  -exchange      EXHF   =         0.00000000
  -V(xc)+E(xc)   XCENC  =       270.76696441
  PAW double counting   =     50937.03713698   -49235.99307004
  entropy T*S    EENTRO =         0.00051050
  eigenvalues    EBANDS =      -538.88920708
  atomic energy  EATOM  =     46688.37031544
  Solvation  Ediel_sol  =         0.00000000
  ---------------------------------------------------
  free energy    TOTEN  =      -309.53511843 eV

  energy without entropy =     -309.53562893  energy(sigma->0) =     -309.53528860


--------------------------------------------------------------------------------------------------------




--------------------------------------- Iteration      1(   7)  ---------------------------------------


    POTLOK:  cpu time    0.5776: real time    0.5790
    SETDIJ:  cpu time    0.0610: real time    0.0611
    EDDIAG:  cpu time    9.8039: real time    9.8270
  RMM-DIIS:  cpu time   34.3447: real time   34.4258
    ORTHCH:  cpu time    1.1315: real time    1.1342
       DOS:  cpu time    0.0020: real time    0.0020
    CHARGE:  cpu time    3.6261: real time    3.6347
    MIXING:  cpu time    0.0110: real time    0.0110
    --------------------------------------------
      LOOP:  cpu time   49.5577: real time   49.6747

 eigenvalue-minimisations  :  7215
 total energy-change (2. order) :-0.6169733E+02  (-0.8303326E+01)
 number of electron     642.0000068 magnetization      93.7143733
 augmentation part      194.9244144 magnetization      71.2462919

 Broyden mixing:
  rms(total) = 0.83750E+01    rms(broyden)= 0.83750E+01
  rms(prec ) = 0.10096E+02
  weight for this iteration     100.00

 eigenvalues of (default mixing * dielectric matrix)
  average eigenvalue GAMMA=   0.9152
  1.3634  0.4671

 Free energy of the ion-electron system (eV)
  ---------------------------------------------------
  alpha Z        PSCENC =      2023.78361127
  Ewald energy   TEWEN  =    124103.76019431
  -Hartree energ DENC   =   -175103.79107510
  -exchange      EXHF   =         0.00000000
  -V(xc)+E(xc)   XCENC  =       270.14672201
  PAW double counting   =     56376.67537880   -54730.61819664
  entropy T*S    EENTRO =        -0.02279681
  eigenvalues    EBANDS =         0.46339699
  atomic energy  EATOM  =     46688.37031544
  Solvation  Ediel_sol  =         0.00000000
  ---------------------------------------------------
  free energy    TOTEN  =      -371.23244972 eV

  energy without entropy =     -371.20965292  energy(sigma->0) =     -371.22485079


--------------------------------------------------------------------------------------------------------




--------------------------------------- Iteration      1(   8)  ---------------------------------------


    POTLOK:  cpu time    0.4758: real time    0.4770
    SETDIJ:  cpu time    0.0449: real time    0.0450
    EDDIAG:  cpu time    9.6347: real time    9.6575
  RMM-DIIS:  cpu time   34.5396: real time   34.6541
    ORTHCH:  cpu time    1.1349: real time    1.1382
       DOS:  cpu time    0.0024: real time    0.0024
    CHARGE:  cpu time    3.6365: real time    3.6467
    MIXING:  cpu time    0.0125: real time    0.0130
    --------------------------------------------
      LOOP:  cpu time   49.4812: real time   49.6338

 eigenvalue-minimisations  :  7230
 total energy-change (2. order) : 0.7908529E+02  (-0.5347217E+01)
 number of electron     642.0000056 magnetization      83.4330297
 augmentation part      198.8234927 magnetization      60.3075468

 Broyden mixing:
  rms(total) = 0.41726E+01    rms(broyden)= 0.41725E+01
  rms(prec ) = 0.47100E+01
  weight for this iteration     100.00

 eigenvalues of (default mixing * dielectric matrix)
  average eigenvalue GAMMA=   0.9984
  2.0784  0.6425  0.2743

 Free energy of the ion-electron system (eV)
  ---------------------------------------------------
  alpha Z        PSCENC =      2023.78361127
  Ewald energy   TEWEN  =    124103.76019431
  -Hartree energ DENC   =   -174673.97449207
  -exchange      EXHF   =         0.00000000
  -V(xc)+E(xc)   XCENC  =       279.62137439
  PAW double counting   =     59013.70347176   -57396.93875315
  entropy T*S    EENTRO =        -0.01186508
  eigenvalues    EBANDS =      -330.46101213
  atomic energy  EATOM  =     46688.37031544
  Solvation  Ediel_sol  =         0.00000000
  ---------------------------------------------------
  free energy    TOTEN  =      -292.14715526 eV

  energy without entropy =     -292.13529018  energy(sigma->0) =     -292.14320023


--------------------------------------------------------------------------------------------------------




--------------------------------------- Iteration      1(   9)  ---------------------------------------


    POTLOK:  cpu time    0.4765: real time    0.4777
    SETDIJ:  cpu time    0.0452: real time    0.0453
    EDDIAG:  cpu time    9.6696: real time    9.6985
  RMM-DIIS:  cpu time   34.4588: real time   34.5590
    ORTHCH:  cpu time    1.1271: real time    1.1297
       DOS:  cpu time    0.0024: real time    0.0024
    CHARGE:  cpu time    3.5946: real time    3.6031
    MIXING:  cpu time    0.0119: real time    0.0120
    --------------------------------------------
      LOOP:  cpu time   49.3861: real time   49.5277

 eigenvalue-minimisations  :  7229
 total energy-change (2. order) :-0.2758089E+02  (-0.1503381E+01)
 number of electron     642.0000066 magnetization      79.2968540
 augmentation part      198.2181768 magnetization      58.7756571

 Broyden mixing:
  rms(total) = 0.56391E+01    rms(broyden)= 0.56391E+01
  rms(prec ) = 0.84081E+01
  weight for this iteration     100.00

 eigenvalues of (default mixing * dielectric matrix)
  average eigenvalue GAMMA=   0.8633
  2.2434  0.6923  0.3100  0.2075

 Free energy of the ion-electron system (eV)
  ---------------------------------------------------
  alpha Z        PSCENC =      2023.78361127
  Ewald energy   TEWEN  =    124103.76019431
  -Hartree energ DENC   =   -174764.96084898
  -exchange      EXHF   =         0.00000000
  -V(xc)+E(xc)   XCENC  =       274.04055674
  PAW double counting   =     61013.70040548   -59414.95942632
  entropy T*S    EENTRO =         0.00431122
  eigenvalues    EBANDS =      -243.46716541
  atomic energy  EATOM  =     46688.37031544
  Solvation  Ediel_sol  =         0.00000000
  ---------------------------------------------------
  free energy    TOTEN  =      -319.72804624 eV

  energy without entropy =     -319.73235746  energy(sigma->0) =     -319.72948332


--------------------------------------------------------------------------------------------------------




--------------------------------------- Iteration      1(  10)  ---------------------------------------


    POTLOK:  cpu time    0.4760: real time    0.4771
    SETDIJ:  cpu time    0.0451: real time    0.0452
    EDDIAG:  cpu time    9.8163: real time    9.8415
  RMM-DIIS:  cpu time   34.3086: real time   34.4153
    ORTHCH:  cpu time    1.1298: real time    1.1333
       DOS:  cpu time    0.0025: real time    0.0025
    CHARGE:  cpu time    3.6520: real time    3.6625
    MIXING:  cpu time    0.0139: real time    0.0139
    --------------------------------------------
      LOOP:  cpu time   49.4441: real time   49.5913

 eigenvalue-minimisations  :  7234
 total energy-change (2. order) : 0.1343621E+02  (-0.8500641E+00)
 number of electron     642.0000057 magnetization      73.7046148
 augmentation part      198.1237179 magnetization      52.1963810

 Broyden mixing:
  rms(total) = 0.33854E+01    rms(broyden)= 0.33854E+01
  rms(prec ) = 0.45701E+01
  weight for this iteration     100.00

 eigenvalues of (default mixing * dielectric matrix)
  average eigenvalue GAMMA=   0.7960
  2.2862  0.7554  0.5510  0.2676  0.1198

 Free energy of the ion-electron system (eV)
  ---------------------------------------------------
  alpha Z        PSCENC =      2023.78361127
  Ewald energy   TEWEN  =    124103.76019431
  -Hartree energ DENC   =   -174843.76598511
  -exchange      EXHF   =         0.00000000
  -V(xc)+E(xc)   XCENC  =       270.39274196
  PAW double counting   =     61551.88589902   -59957.60369528
  entropy T*S    EENTRO =         0.02826418
  eigenvalues    EBANDS =      -143.14318083
  atomic energy  EATOM  =     46688.37031544
  Solvation  Ediel_sol  =         0.00000000
  ---------------------------------------------------
  free energy    TOTEN  =      -306.29183506 eV

  energy without entropy =     -306.32009923  energy(sigma->0) =     -306.30125645


--------------------------------------------------------------------------------------------------------




--------------------------------------- Iteration      1(  11)  ---------------------------------------


    POTLOK:  cpu time    0.4801: real time    0.4831
    SETDIJ:  cpu time    0.0451: real time    0.0452
    EDDIAG:  cpu time    9.6198: real time    9.6489
  RMM-DIIS:  cpu time   34.4554: real time   34.5571
    ORTHCH:  cpu time    1.2057: real time    1.2098
       DOS:  cpu time    0.0025: real time    0.0025
    CHARGE:  cpu time    3.5556: real time    3.5657
    MIXING:  cpu time    0.0142: real time    0.0142
    --------------------------------------------
      LOOP:  cpu time   49.3782: real time   49.5265

 eigenvalue-minimisations  :  7234
 total energy-change (2. order) :-0.2107958E+01  (-0.4919553E+00)
 number of electron     642.0000060 magnetization      69.2263827
 augmentation part      197.7244595 magnetization      48.8331516

 Broyden mixing:
  rms(total) = 0.19495E+01    rms(broyden)= 0.19495E+01
  rms(prec ) = 0.21119E+01
  weight for this iteration     100.00

 eigenvalues of (default mixing * dielectric matrix)
  average eigenvalue GAMMA=   0.7737
  2.0469  1.0823  0.7602  0.3165  0.3165  0.1197

 Free energy of the ion-electron system (eV)
  ---------------------------------------------------
  alpha Z        PSCENC =      2023.78361127
  Ewald energy   TEWEN  =    124103.76019431
  -Hartree energ DENC   =   -174872.19207462
  -exchange      EXHF   =         0.00000000
  -V(xc)+E(xc)   XCENC  =       264.72910025
  PAW double counting   =     61717.45105804   -60124.44533300
  entropy T*S    EENTRO =         0.01052064
  eigenvalues    EBANDS =      -109.86718553
  atomic energy  EATOM  =     46688.37031544
  Solvation  Ediel_sol  =         0.00000000
  ---------------------------------------------------
  free energy    TOTEN  =      -308.39979321 eV

  energy without entropy =     -308.41031385  energy(sigma->0) =     -308.40330009


--------------------------------------------------------------------------------------------------------




--------------------------------------- Iteration      1(  12)  ---------------------------------------


    POTLOK:  cpu time    0.4795: real time    0.4810
    SETDIJ:  cpu time    0.0456: real time    0.0457
    EDDIAG:  cpu time    9.6539: real time    9.6817
  RMM-DIIS:  cpu time   34.5610: real time   34.6625
    ORTHCH:  cpu time    1.1323: real time    1.1356
       DOS:  cpu time    0.0024: real time    0.0024
    CHARGE:  cpu time    3.5515: real time    3.5621
    MIXING:  cpu time    0.0143: real time    0.0144
    --------------------------------------------
      LOOP:  cpu time   49.4404: real time   49.5853

 eigenvalue-minimisations  :  7235
 total energy-change (2. order) :-0.1000555E+02  (-0.4226327E+00)
 number of electron     642.0000059 magnetization      64.2328571
 augmentation part      197.4257293 magnetization      45.5914093

 Broyden mixing:
  rms(total) = 0.17842E+01    rms(broyden)= 0.17842E+01
  rms(prec ) = 0.19106E+01
  weight for this iteration     100.00

 eigenvalues of (default mixing * dielectric matrix)
  average eigenvalue GAMMA=   0.7497
  2.0564  0.9303  0.9303  0.6483  0.2816  0.2816  0.1195

 Free energy of the ion-electron system (eV)
  ---------------------------------------------------
  alpha Z        PSCENC =      2023.78361127
  Ewald energy   TEWEN  =    124103.76019431
  -Hartree energ DENC   =   -174841.88653254
  -exchange      EXHF   =         0.00000000
  -V(xc)+E(xc)   XCENC  =       259.19261076
  PAW double counting   =     61133.02962039   -59534.74567562
  entropy T*S    EENTRO =        -0.02193644
  eigenvalues    EBANDS =      -149.88755346
  atomic energy  EATOM  =     46688.37031544
  Solvation  Ediel_sol  =         0.00000000
  ---------------------------------------------------
  free energy    TOTEN  =      -318.40534588 eV

  energy without entropy =     -318.38340945  energy(sigma->0) =     -318.39803374


--------------------------------------------------------------------------------------------------------




--------------------------------------- Iteration      1(  13)  ---------------------------------------


    POTLOK:  cpu time    0.4810: real time    0.4822
    SETDIJ:  cpu time    0.0452: real time    0.0453
    EDDIAG:  cpu time    9.7967: real time    9.8256
  RMM-DIIS:  cpu time   34.5746: real time   34.6758
    ORTHCH:  cpu time    1.1316: real time    1.1350
       DOS:  cpu time    0.0025: real time    0.0025
    CHARGE:  cpu time    3.6311: real time    3.6416
    MIXING:  cpu time    0.0143: real time    0.0143
    --------------------------------------------
      LOOP:  cpu time   49.6770: real time   49.8224

 eigenvalue-minimisations  :  7237
 total energy-change (2. order) :-0.4779173E+01  (-0.1708116E+00)
 number of electron     642.0000059 magnetization      54.7321310
 augmentation part      197.4998582 magnetization      37.6726691

 Broyden mixing:
  rms(total) = 0.16373E+01    rms(broyden)= 0.16373E+01
  rms(prec ) = 0.17435E+01
  weight for this iteration     100.00

 eigenvalues of (default mixing * dielectric matrix)
  average eigenvalue GAMMA=   0.7680
  2.1946  1.0231  1.0231  0.8580  0.3223  0.3223  0.2807  0.1195

 Free energy of the ion-electron system (eV)
  ---------------------------------------------------
  alpha Z        PSCENC =      2023.78361127
  Ewald energy   TEWEN  =    124103.76019431
  -Hartree energ DENC   =   -174831.84245210
  -exchange      EXHF   =         0.00000000
  -V(xc)+E(xc)   XCENC  =       256.37342714
  PAW double counting   =     61008.65443114   -59410.34700655
  entropy T*S    EENTRO =        -0.06255177
  eigenvalues    EBANDS =      -161.87448731
  atomic energy  EATOM  =     46688.37031544
  Solvation  Ediel_sol  =         0.00000000
  ---------------------------------------------------
  free energy    TOTEN  =      -323.18451842 eV

  energy without entropy =     -323.12196665  energy(sigma->0) =     -323.16366783


--------------------------------------------------------------------------------------------------------




--------------------------------------- Iteration      1(  14)  ---------------------------------------


    POTLOK:  cpu time    0.4807: real time    0.4819
    SETDIJ:  cpu time    0.0454: real time    0.0455
    EDDIAG:  cpu time    9.6819: real time    9.7105
  RMM-DIIS:  cpu time   34.6344: real time   34.7231
    ORTHCH:  cpu time    1.1227: real time    1.1254
       DOS:  cpu time    0.0025: real time    0.0025
    CHARGE:  cpu time    3.6675: real time    3.6762
    MIXING:  cpu time    0.0142: real time    0.0142
    --------------------------------------------
      LOOP:  cpu time   49.6493: real time   49.7792

 eigenvalue-minimisations  :  7233
 total energy-change (2. order) :-0.8974252E+01  (-0.2941474E+00)
 number of electron     642.0000059 magnetization      37.3706070
 augmentation part      197.4836066 magnetization      22.9271687

 Broyden mixing:
  rms(total) = 0.14619E+01    rms(broyden)= 0.14619E+01
  rms(prec ) = 0.16210E+01
  weight for this iteration     100.00

 eigenvalues of (default mixing * dielectric matrix)
  average eigenvalue GAMMA=   0.8224
  2.3814  1.4352  1.0305  1.0305  0.5534  0.1195  0.2929  0.2929  0.2651

 Free energy of the ion-electron system (eV)
  ---------------------------------------------------
  alpha Z        PSCENC =      2023.78361127
  Ewald energy   TEWEN  =    124103.76019431
  -Hartree energ DENC   =   -174829.74462735
  -exchange      EXHF   =         0.00000000
  -V(xc)+E(xc)   XCENC  =       250.76899854
  PAW double counting   =     61071.11283441   -59475.09033994
  entropy T*S    EENTRO =        -0.04813676
  eigenvalues    EBANDS =      -165.07162064
  atomic energy  EATOM  =     46688.37031544
  Solvation  Ediel_sol  =         0.00000000
  ---------------------------------------------------
  free energy    TOTEN  =      -332.15877073 eV

  energy without entropy =     -332.11063397  energy(sigma->0) =     -332.14272514


--------------------------------------------------------------------------------------------------------




--------------------------------------- Iteration      1(  15)  ---------------------------------------


    POTLOK:  cpu time    0.4819: real time    0.4830
    SETDIJ:  cpu time    0.0453: real time    0.0454
    EDDIAG:  cpu time    9.6474: real time    9.6703
  RMM-DIIS:  cpu time   34.7287: real time   34.8119
    ORTHCH:  cpu time    1.1260: real time    1.1287
       DOS:  cpu time    0.0025: real time    0.0025
    CHARGE:  cpu time    3.5948: real time    3.6033
    MIXING:  cpu time    0.0146: real time    0.0146
    --------------------------------------------
      LOOP:  cpu time   49.6412: real time   49.7597

 eigenvalue-minimisations  :  7226
 total energy-change (2. order) :-0.1833591E+02  (-0.1024449E+01)
 number of electron     642.0000060 magnetization      28.0647656
 augmentation part      197.2770374 magnetization      16.6800722

 Broyden mixing:
  rms(total) = 0.11162E+01    rms(broyden)= 0.11162E+01
  rms(prec ) = 0.12469E+01
  weight for this iteration     100.00

 eigenvalues of (default mixing * dielectric matrix)
  average eigenvalue GAMMA=   0.9528
  3.2080  2.3129  0.9216  0.9216  0.6678  0.5419  0.1195  0.2927  0.2927  0.2497

 Free energy of the ion-electron system (eV)
  ---------------------------------------------------
  alpha Z        PSCENC =      2023.78361127
  Ewald energy   TEWEN  =    124103.76019431
  -Hartree energ DENC   =   -174862.47549157
  -exchange      EXHF   =         0.00000000
  -V(xc)+E(xc)   XCENC  =       238.71910317
  PAW double counting   =     61085.81921653   -59491.99540048
  entropy T*S    EENTRO =        -0.02886295
  eigenvalues    EBANDS =      -136.44736206
  atomic energy  EATOM  =     46688.37031544
  Solvation  Ediel_sol  =         0.00000000
  ---------------------------------------------------
  free energy    TOTEN  =      -350.49467634 eV

  energy without entropy =     -350.46581339  energy(sigma->0) =     -350.48505535


--------------------------------------------------------------------------------------------------------




--------------------------------------- Iteration      1(  16)  ---------------------------------------


    POTLOK:  cpu time    0.4847: real time    0.4859
    SETDIJ:  cpu time    0.0456: real time    0.0457
    EDDIAG:  cpu time    9.7580: real time    9.7824
  RMM-DIIS:  cpu time   34.5760: real time   34.6635
    ORTHCH:  cpu time    1.1286: real time    1.1319
       DOS:  cpu time    0.0026: real time    0.0026
    CHARGE:  cpu time    3.5740: real time    3.5846
    MIXING:  cpu time    0.0161: real time    0.0162
    --------------------------------------------
      LOOP:  cpu time   49.5856: real time   49.7126

 eigenvalue-minimisations  :  7228
 total energy-change (2. order) :-0.1092888E+02  (-0.8113219E+00)
 number of electron     642.0000060 magnetization      19.1155273
 augmentation part      196.9887668 magnetization      10.4015545

 Broyden mixing:
  rms(total) = 0.85914E+00    rms(broyden)= 0.85914E+00
  rms(prec ) = 0.97349E+00
  weight for this iteration     100.00

 eigenvalues of (default mixing * dielectric matrix)
  average eigenvalue GAMMA=   1.0719
  4.9936  2.2980  0.8816  0.8816  0.8647  0.6190  0.1195  0.3027  0.3027  0.2848
  0.2426

 Free energy of the ion-electron system (eV)
  ---------------------------------------------------
  alpha Z        PSCENC =      2023.78361127
  Ewald energy   TEWEN  =    124103.76019431
  -Hartree energ DENC   =   -174839.14990797
  -exchange      EXHF   =         0.00000000
  -V(xc)+E(xc)   XCENC  =       231.81555544
  PAW double counting   =     60823.24003955   -59227.78514076
  entropy T*S    EENTRO =         0.00807573
  eigenvalues    EBANDS =      -165.46630041
  atomic energy  EATOM  =     46688.37031544
  Solvation  Ediel_sol  =         0.00000000
  ---------------------------------------------------
  free energy    TOTEN  =      -361.42355741 eV

  energy without entropy =     -361.43163314  energy(sigma->0) =     -361.42624932


--------------------------------------------------------------------------------------------------------




--------------------------------------- Iteration      1(  17)  ---------------------------------------


    POTLOK:  cpu time    0.4837: real time    0.4848
    SETDIJ:  cpu time    0.0463: real time    0.0464
    EDDIAG:  cpu time    9.6375: real time    9.6661
  RMM-DIIS:  cpu time   34.5955: real time   34.6866
    ORTHCH:  cpu time    1.3013: real time    1.3045
       DOS:  cpu time    0.0031: real time    0.0031
    CHARGE:  cpu time    3.5515: real time    3.5599
    MIXING:  cpu time    0.0181: real time    0.0182
    --------------------------------------------
      LOOP:  cpu time   49.6370: real time   49.7696

 eigenvalue-minimisations  :  7223
 total energy-change (2. order) :-0.6926971E+01  (-0.6492748E+00)
 number of electron     642.0000060 magnetization      16.6335507
 augmentation part      196.9496622 magnetization       9.7588467

 Broyden mixing:
  rms(total) = 0.62692E+00    rms(broyden)= 0.62692E+00
  rms(prec ) = 0.69466E+00
  weight for this iteration     100.00

 eigenvalues of (default mixing * dielectric matrix)
  average eigenvalue GAMMA=   1.1539
  6.3245  2.3401  1.0225  1.0225  0.8080  0.5601  0.5601  0.1195  0.2950  0.2950
  0.2653  0.2348

 Free energy of the ion-electron system (eV)
  ---------------------------------------------------
  alpha Z        PSCENC =      2023.78361127
  Ewald energy   TEWEN  =    124103.76019431
  -Hartree energ DENC   =   -174810.06696369
  -exchange      EXHF   =         0.00000000
  -V(xc)+E(xc)   XCENC  =       227.18640705
  PAW double counting   =     60607.58089483   -59011.28904215
  entropy T*S    EENTRO =        -0.01167658
  eigenvalues    EBANDS =      -197.66426905
  atomic energy  EATOM  =     46688.37031544
  Solvation  Ediel_sol  =         0.00000000
  ---------------------------------------------------
  free energy    TOTEN  =      -368.35052857 eV

  energy without entropy =     -368.33885198  energy(sigma->0) =     -368.34663637


--------------------------------------------------------------------------------------------------------




--------------------------------------- Iteration      1(  18)  ---------------------------------------


    POTLOK:  cpu time    0.5148: real time    0.5160
    SETDIJ:  cpu time    0.0458: real time    0.0459
    EDDIAG:  cpu time    9.6454: real time    9.6682
  RMM-DIIS:  cpu time   34.5583: real time   34.6434
    ORTHCH:  cpu time    1.1257: real time    1.1283
       DOS:  cpu time    0.0023: real time    0.0023
    CHARGE:  cpu time    3.5930: real time    3.6089
    MIXING:  cpu time    0.0151: real time    0.0151
    --------------------------------------------
      LOOP:  cpu time   49.5004: real time   49.6281

 eigenvalue-minimisations  :  7223
 total energy-change (2. order) :-0.2101279E+01  (-0.1809376E+00)
 number of electron     642.0000060 magnetization      14.4530516
 augmentation part      196.9314003 magnetization       8.5709660

 Broyden mixing:
  rms(total) = 0.48652E+00    rms(broyden)= 0.48652E+00
  rms(prec ) = 0.55553E+00
  weight for this iteration     100.00

 eigenvalues of (default mixing * dielectric matrix)
  average eigenvalue GAMMA=   1.1780
  7.1456  2.3359  1.1535  1.1535  0.6650  0.6650  0.6563  0.1195  0.3568  0.2933
  0.2933  0.2539  0.2222

 Free energy of the ion-electron system (eV)
  ---------------------------------------------------
  alpha Z        PSCENC =      2023.78361127
  Ewald energy   TEWEN  =    124103.76019431
  -Hartree energ DENC   =   -174771.53063593
  -exchange      EXHF   =         0.00000000
  -V(xc)+E(xc)   XCENC  =       225.62417830
  PAW double counting   =     60508.27263781   -58911.38515454
  entropy T*S    EENTRO =        -0.01468403
  eigenvalues    EBANDS =      -237.33227021
  atomic energy  EATOM  =     46688.37031544
  Solvation  Ediel_sol  =         0.00000000
  ---------------------------------------------------
  free energy    TOTEN  =      -370.45180757 eV

  energy without entropy =     -370.43712354  energy(sigma->0) =     -370.44691290


--------------------------------------------------------------------------------------------------------




--------------------------------------- Iteration      1(  19)  ---------------------------------------


    POTLOK:  cpu time    0.4830: real time    0.4842
    SETDIJ:  cpu time    0.0458: real time    0.0459
    EDDIAG:  cpu time    9.8813: real time    9.9135
  RMM-DIIS:  cpu time   34.5069: real time   34.6080
    ORTHCH:  cpu time    1.1197: real time    1.1230
       DOS:  cpu time    0.0025: real time    0.0025
    CHARGE:  cpu time    3.5524: real time    3.5630
    MIXING:  cpu time    0.0170: real time    0.0170
    --------------------------------------------
      LOOP:  cpu time   49.6086: real time   49.7571

 eigenvalue-minimisations  :  7225
 total energy-change (2. order) :-0.9509067E+00  (-0.7811413E-01)
 number of electron     642.0000060 magnetization      12.4483008
 augmentation part      197.0031952 magnetization       7.0200267

 Broyden mixing:
  rms(total) = 0.35317E+00    rms(broyden)= 0.35317E+00
  rms(prec ) = 0.40198E+00
  weight for this iteration     100.00

 eigenvalues of (default mixing * dielectric matrix)
  average eigenvalue GAMMA=   1.1992
  7.7819  2.2735  1.3052  1.3052  0.7450  0.7450  0.6366  0.5619  0.1195  0.2949
  0.2949  0.2762  0.2402  0.2092

 Free energy of the ion-electron system (eV)
  ---------------------------------------------------
  alpha Z        PSCENC =      2023.78361127
  Ewald energy   TEWEN  =    124103.76019431
  -Hartree energ DENC   =   -174730.01287098
  -exchange      EXHF   =         0.00000000
  -V(xc)+E(xc)   XCENC  =       224.52998219
  PAW double counting   =     60500.40025567   -58903.78356896
  entropy T*S    EENTRO =        -0.01887062
  eigenvalues    EBANDS =      -278.43176254
  atomic energy  EATOM  =     46688.37031544
  Solvation  Ediel_sol  =         0.00000000
  ---------------------------------------------------
  free energy    TOTEN  =      -371.40271423 eV

  energy without entropy =     -371.38384360  energy(sigma->0) =     -371.39642402


--------------------------------------------------------------------------------------------------------




--------------------------------------- Iteration      1(  20)  ---------------------------------------


    POTLOK:  cpu time    0.4838: real time    0.4850
    SETDIJ:  cpu time    0.0465: real time    0.0467
    EDDIAG:  cpu time    9.6100: real time    9.6386
  RMM-DIIS:  cpu time   35.5204: real time   35.6255
    ORTHCH:  cpu time    1.3215: real time    1.3251
       DOS:  cpu time    0.0030: real time    0.0030
    CHARGE:  cpu time    3.6253: real time    3.6360
    MIXING:  cpu time    0.0184: real time    0.0184
    --------------------------------------------
      LOOP:  cpu time   50.6290: real time   50.7783

 eigenvalue-minimisations  :  7230
 total energy-change (2. order) :-0.3385168E+00  (-0.3292616E-01)
 number of electron     642.0000060 magnetization      10.5028721
 augmentation part      197.0864736 magnetization       5.7798401

 Broyden mixing:
  rms(total) = 0.26157E+00    rms(broyden)= 0.26157E+00
  rms(prec ) = 0.28997E+00
  weight for this iteration     100.00

 eigenvalues of (default mixing * dielectric matrix)
  average eigenvalue GAMMA=   1.2100
  8.3222  2.1420  1.5290  1.5290  0.8147  0.8147  0.6756  0.5418  0.1195  0.3579
  0.2950  0.2950  0.2677  0.2371  0.2091

 Free energy of the ion-electron system (eV)
  ---------------------------------------------------
  alpha Z        PSCENC =      2023.78361127
  Ewald energy   TEWEN  =    124103.76019431
  -Hartree energ DENC   =   -174690.01890086
  -exchange      EXHF   =         0.00000000
  -V(xc)+E(xc)   XCENC  =       223.83707366
  PAW double counting   =     60546.15983236   -58950.22497940
  entropy T*S    EENTRO =        -0.02542805
  eigenvalues    EBANDS =      -317.38294974
  atomic energy  EATOM  =     46688.37031544
  Solvation  Ediel_sol  =         0.00000000
  ---------------------------------------------------
  free energy    TOTEN  =      -371.74123100 eV

  energy without entropy =     -371.71580296  energy(sigma->0) =     -371.73275499


--------------------------------------------------------------------------------------------------------




--------------------------------------- Iteration      1(  21)  ---------------------------------------


    POTLOK:  cpu time    0.5031: real time    0.5043
    SETDIJ:  cpu time    0.0485: real time    0.0486
    EDDIAG:  cpu time    9.8652: real time    9.8885
  RMM-DIIS:  cpu time   35.4598: real time   35.5591
    ORTHCH:  cpu time    1.1757: real time    1.1793
       DOS:  cpu time    0.0027: real time    0.0027
    CHARGE:  cpu time    3.6121: real time    3.6229
    MIXING:  cpu time    0.0206: real time    0.0207
    --------------------------------------------
      LOOP:  cpu time   50.6878: real time   50.8262

 eigenvalue-minimisations  :  7232
 total energy-change (2. order) :-0.2260726E+00  (-0.1638455E-01)
 number of electron     642.0000060 magnetization       9.3973994
 augmentation part      197.1789249 magnetization       5.2830655

 Broyden mixing:
  rms(total) = 0.22622E+00    rms(broyden)= 0.22622E+00
  rms(prec ) = 0.25891E+00
  weight for this iteration     100.00

 eigenvalues of (default mixing * dielectric matrix)
  average eigenvalue GAMMA=   1.1916
  8.6101  2.0411  2.0411  1.2599  0.8616  0.8616  0.6564  0.5608  0.4685  0.1195
  0.2970  0.2970  0.2772  0.2772  0.2351  0.2023

 Free energy of the ion-electron system (eV)
  ---------------------------------------------------
  alpha Z        PSCENC =      2023.78361127
  Ewald energy   TEWEN  =    124103.76019431
  -Hartree energ DENC   =   -174649.27369586
  -exchange      EXHF   =         0.00000000
  -V(xc)+E(xc)   XCENC  =       223.28819851
  PAW double counting   =     60550.85993566   -58955.01239404
  entropy T*S    EENTRO =        -0.03146849
  eigenvalues    EBANDS =      -357.71200039
  atomic energy  EATOM  =     46688.37031544
  Solvation  Ediel_sol  =         0.00000000
  ---------------------------------------------------
  free energy    TOTEN  =      -371.96730359 eV

  energy without entropy =     -371.93583510  energy(sigma->0) =     -371.95681409


--------------------------------------------------------------------------------------------------------




--------------------------------------- Iteration      1(  22)  ---------------------------------------


    POTLOK:  cpu time    0.4995: real time    0.5007
[...]


    CHARGE:  cpu time    3.5497: real time    3.5581
    FORLOC:  cpu time    0.0997: real time    0.0999
    FORNL :  cpu time   15.1076: real time   15.1444
    STRESS:  cpu time   45.2612: real time   45.3689
    FORCOR:  cpu time    0.5307: real time    0.5320
    FORHAR:  cpu time    0.1458: real time    0.1464
    MIXING:  cpu time    0.0499: real time    0.0500
    OFIELD:  cpu time    0.0001: real time    0.0003

 ---------------------------------------------------------------------------------------------

         DFTD3 V3.0 Rev 1        
 IVDW         = 11
 DF pbe       
 parameters
 VDW_S6       =    1.0000
 VDW_S8       =    0.7220
 VDW_SR       =    1.2170
 rs18     =    1.0000
 alpha6   =   14.0000
 alpha8   =   16.0000
 k1-k3    =   16.0000    1.3333   -4.0000
 VDW_RADIUS   =   50.2022 A
 VDW_CNRADIUS =   21.1671 A
 Edisp (eV)  -38.70816

 E6    (eV) :   -14.3029
 E8    (eV) :   -24.4053
 % E8        : 63.05
    FORVDW:  cpu time    0.4646: real time    0.4679

  FORCE on cell =-STRESS in cart. coord.  units (eV):
  Direction    XX          YY          ZZ          XY          YZ          ZX
  --------------------------------------------------------------------------------------
  Alpha Z  2023.78361  2023.78361  2023.78361
  Ewald  161137.10928161115.42580************   -15.56978    -3.32994    -0.49615
  Hartree172118.14478172111.28019************    -5.38487    -1.94242    -0.41779
  E(xc)   -2861.56247 -2861.66912 -2886.95534    -0.06185    -0.01922    -0.00329
  Local  ************************355166.38457    17.98075     4.86365     0.80828
  n-local   565.88637   564.82768   314.66201    -0.74829    -0.21011     0.50768
  augment  3256.40338  3257.86751  3527.01741     0.89061     0.26265    -0.16307
  Kinetic  9172.37102  9176.24523  9747.74063     2.42190     0.44457    -0.46621
  Fock        0.00000     0.00000     0.00000     0.00000     0.00000     0.00000
  vdW       -53.20619   -53.11809   -28.38669     0.02423    -0.00582     0.00788
  -------------------------------------------------------------------------------------
  Total      78.54352    78.23336    -0.07368    -0.44730     0.06336    -0.22267
  in kB      65.15270    64.89542    -0.06112    -0.37104     0.05256    -0.18471
  external pressure =       43.33 kB  Pullay stress =        0.00 kB


 VOLUME and BASIS-vectors are now :
 -----------------------------------------------------------------------------
  energy-cutoff  :      550.00
  volume of cell :     1931.47
      direct lattice vectors                 reciprocal lattice vectors
    10.560000420  0.000000000  0.000000000     0.094696966  0.054673319  0.000000000
    -5.280000210  9.145228627  0.000000000     0.000000000  0.109346638  0.000000000
     0.000000000  0.000000000 20.000000000     0.000000000  0.000000000  0.050000000

  length of vectors
    10.560000420 10.560000420 20.000000000     0.109346638  0.109346638  0.050000000


 FORCES acting on ions
    electron-ion (+dipol)            ewald-force                    non-local-force                 convergence-correction
 -----------------------------------------------------------------------------------------------
   -.111E+01 -.145E+02 0.231E+04   0.120E+01 0.145E+02 -.231E+04   -.618E-01 0.559E-01 -.233E+00   -.956E-03 -.114E-02 -.299E-04
   0.548E+01 -.218E+02 0.749E+03   -.555E+01 0.221E+02 -.748E+03   0.826E-01 -.261E+00 -.625E+00   -.427E-05 -.192E-03 0.205E-02
   -.662E+01 0.120E+01 -.884E+03   0.697E+01 -.121E+01 0.884E+03   -.386E+00 -.130E-01 0.837E-01   0.583E-03 -.176E-03 0.569E-03
   0.830E+01 0.335E+02 -.225E+04   -.813E+01 -.330E+02 0.225E+04   -.186E+00 -.475E+00 -.796E-01   0.473E-03 0.120E-02 -.169E-04
   -.145E+02 -.630E+01 0.230E+04   0.147E+02 0.640E+01 -.230E+04   -.581E-01 -.157E-01 -.529E-01   -.769E-03 -.424E-03 -.232E-03
   -.602E+01 0.370E+01 0.657E+03   0.601E+01 -.370E+01 -.656E+03   0.105E-01 -.562E-02 -.128E+01   0.123E-03 0.422E-03 0.152E-02
   0.840E+00 -.758E+01 -.783E+03   -.835E+00 0.821E+01 0.783E+03   -.145E-01 -.621E+00 0.359E-01   0.585E-03 0.279E-03 0.491E-03
   0.368E+02 0.142E+02 -.226E+04   -.362E+02 -.141E+02 0.226E+04   -.580E+00 -.995E-01 0.183E+00   0.382E-03 0.108E-03 0.256E-03
   -.512E+01 -.202E+02 0.228E+04   0.518E+01 0.204E+02 -.228E+04   0.599E-02 -.558E-02 0.109E+00   -.361E-03 0.232E-04 -.277E-03
   -.207E+02 0.518E+01 0.776E+03   0.209E+02 -.517E+01 -.775E+03   -.295E+00 -.142E-01 -.445E+00   -.454E-03 0.198E-03 0.926E-03
   0.343E+00 -.213E+01 -.761E+03   -.486E+00 0.255E+01 0.761E+03   0.168E+00 -.426E+00 0.178E+00   -.376E-03 -.189E-04 0.974E-03
   0.263E+02 0.613E+02 -.239E+04   -.269E+02 -.622E+02 0.239E+04   0.533E+00 0.923E+00 0.183E-01   0.201E-03 -.136E-03 -.105E-03
   0.321E+00 -.195E+02 0.231E+04   -.376E+00 0.195E+02 -.231E+04   0.324E-01 0.998E-01 -.221E+00   -.301E-03 -.856E-03 -.301E-03
   -.839E+01 -.183E+02 0.772E+03   0.861E+01 0.185E+02 -.772E+03   -.237E+00 -.233E+00 -.407E+00   -.399E-03 -.662E-03 0.133E-02
   0.591E+01 -.114E+01 -.946E+03   -.602E+01 0.119E+01 0.946E+03   0.149E+00 -.729E-01 0.484E+00   -.202E-03 -.762E-03 0.465E-03
   -.457E+01 0.388E+02 -.224E+04   0.433E+01 -.386E+02 0.224E+04   0.257E+00 -.220E+00 0.471E-01   0.831E-03 0.918E-03 -.230E-03
   0.495E+00 -.469E+01 0.231E+04   -.557E+00 0.471E+01 -.231E+04   0.315E-01 0.184E-01 -.274E+00   0.103E-02 -.437E-03 -.259E-03
   -.384E+01 -.148E+01 0.801E+03   0.395E+01 0.158E+01 -.801E+03   -.126E+00 -.107E+00 -.376E+00   -.698E-04 -.548E-03 0.475E-03
   0.174E+01 0.769E+00 -.761E+03   -.217E+01 -.874E+00 0.761E+03   0.453E+00 0.894E-01 0.174E+00   -.483E-03 -.514E-03 0.663E-04
   -.541E+01 0.117E+02 -.226E+04   0.531E+01 -.116E+02 0.226E+04   0.102E+00 -.125E+00 0.774E-01   -.521E-03 0.197E-03 0.110E-03
   0.151E+02 -.862E+01 0.229E+04   -.153E+02 0.874E+01 -.229E+04   0.529E-01 -.306E-01 0.115E+00   0.691E-03 0.534E-03 -.306E-03
   0.435E+01 0.720E+01 0.810E+03   -.443E+01 -.722E+01 -.810E+03   0.796E-01 -.579E-03 -.249E+00   -.208E-03 0.607E-03 0.523E-03
   0.170E+00 -.271E+00 -.739E+03   -.137E+00 0.252E+00 0.739E+03   -.239E-01 0.178E-01 0.456E+00   -.646E-03 -.228E-03 0.277E-03
   -.507E+02 0.290E+02 -.230E+04   0.506E+02 -.289E+02 0.230E+04   0.826E-01 -.711E-01 -.112E+01   -.308E-03 -.106E-02 -.195E-03
   0.440E+01 0.188E+01 0.231E+04   -.444E+01 -.184E+01 -.231E+04   0.328E-03 -.330E-01 -.278E+00   0.441E-03 0.124E-03 -.207E-03
   0.216E+02 0.654E+01 0.750E+03   -.218E+02 -.660E+01 -.750E+03   0.263E+00 0.476E-01 -.598E+00   0.541E-03 0.851E-03 0.103E-02
   -.143E+01 -.585E+00 -.737E+03   0.154E+01 0.754E+00 0.736E+03   -.134E+00 -.171E+00 0.419E+00   0.459E-03 0.474E-04 -.828E-04
   -.138E+02 -.979E+00 -.226E+04   0.136E+02 0.992E+00 0.227E+04   0.209E+00 -.120E-01 0.841E-01   -.311E-03 -.839E-03 0.338E-03
   0.209E+00 -.432E-02 0.231E+04   -.190E+00 -.126E-01 -.231E+04   0.230E-01 -.853E-02 -.314E+00   0.222E-03 -.653E-03 0.177E-04
   0.655E+01 -.413E+01 0.784E+03   -.681E+01 0.427E+01 -.784E+03   0.280E+00 -.151E+00 -.473E+00   0.487E-03 -.968E-05 0.126E-02
   -.134E+01 -.157E+01 -.724E+03   0.146E+01 0.147E+01 0.723E+03   -.135E+00 0.816E-01 0.398E+00   0.711E-04 0.554E-05 0.682E-04
   0.167E+01 -.123E+01 -.228E+04   -.159E+01 0.119E+01 0.228E+04   -.900E-01 0.400E-01 0.526E-01   -.776E-03 0.549E-03 0.374E-03
   -.109E+02 0.745E+01 0.232E+04   0.109E+02 -.735E+01 -.232E+04   0.292E-01 -.927E-01 -.309E+00   -.717E-03 0.275E-03 -.137E-03
   -.147E+02 0.150E+02 0.775E+03   0.148E+02 -.153E+02 -.775E+03   -.143E+00 0.280E+00 -.462E+00   0.288E-03 0.418E-03 0.966E-03
   0.145E+00 0.447E+00 -.696E+03   -.403E-01 -.316E+00 0.695E+03   -.983E-01 -.120E+00 0.492E+00   0.250E-03 0.632E-03 0.123E-03
   0.260E+02 -.127E+02 -.225E+04   -.256E+02 0.126E+02 0.225E+04   -.370E+00 0.876E-01 0.439E-01   0.864E-03 -.513E-03 0.180E-03
   0.158E+01 -.939E+00 0.232E+04   -.158E+01 0.930E+00 -.232E+04   0.163E-01 -.449E-02 -.387E+00   -.834E-03 -.602E-03 0.386E-04
   -.382E+01 -.705E+01 0.811E+03   0.378E+01 0.713E+01 -.811E+03   0.418E-01 -.728E-01 -.228E+00   0.250E-03 -.374E-03 0.144E-02
   -.182E+01 0.122E+01 -.762E+03   0.236E+01 -.153E+01 0.762E+03   -.523E+00 0.300E+00 0.288E-01   0.341E-03 0.213E-03 0.115E-03
   -.548E+01 0.302E+01 -.222E+04   0.541E+01 -.298E+01 0.222E+04   0.637E-01 -.397E-01 0.211E+00   0.849E-03 0.707E-03 -.187E-03
   -.120E+02 0.574E+01 0.231E+04   0.120E+02 -.584E+01 -.232E+04   0.927E-01 0.199E-01 -.305E+00   -.120E-03 -.330E-03 -.241E-03
   0.493E+00 -.137E+02 0.810E+03   -.470E+00 0.139E+02 -.810E+03   -.224E-01 -.226E+00 -.203E+00   -.786E-03 -.778E-03 0.108E-02
   -.266E+01 0.458E+01 -.882E+03   0.280E+01 -.489E+01 0.882E+03   -.152E+00 0.364E+00 0.104E+00   -.259E-03 -.261E-03 0.116E-03
   0.249E+02 -.165E+02 -.225E+04   -.246E+02 0.162E+02 0.225E+04   -.289E+00 0.309E+00 0.484E-01   0.803E-03 0.682E-03 0.737E-04
   -.211E+02 0.120E+02 0.228E+04   0.213E+02 -.121E+02 -.228E+04   0.396E-01 -.230E-01 0.711E-01   -.207E-03 0.590E-03 -.230E-03
   -.873E+01 0.488E+01 0.812E+03   0.890E+01 -.497E+01 -.812E+03   -.157E+00 0.897E-01 -.198E+00   -.705E-03 -.132E-03 0.654E-03
   0.923E+00 0.193E+01 -.723E+03   -.782E+00 -.198E+01 0.723E+03   -.137E+00 0.678E-01 0.416E+00   -.244E-03 0.280E-03 0.380E-03
   0.553E+02 -.323E+02 -.234E+04   -.552E+02 0.322E+02 0.234E+04   -.862E-01 0.446E-01 -.129E+01   0.172E-03 -.197E-03 0.997E-04
   0.151E+02 0.143E+02 0.228E+04   -.152E+02 -.145E+02 -.228E+04   0.553E-02 -.971E-03 0.111E+00   0.602E-03 0.124E-02 -.105E-03
   0.120E+02 0.615E+01 0.810E+03   -.122E+02 -.628E+01 -.810E+03   0.190E+00 0.136E+00 -.212E+00   -.167E-03 0.290E-03 0.195E-03
   -.440E+00 0.130E+01 -.738E+03   0.347E+00 -.146E+01 0.738E+03   0.833E-01 0.187E+00 0.429E+00   -.343E-03 0.249E-04 -.683E-03
   -.367E+02 -.471E+02 -.238E+04   0.375E+02 0.485E+02 0.238E+04   -.724E+00 -.133E+01 0.393E+00   -.791E-03 -.769E-03 0.204E-03
   -.182E+01 0.157E+02 0.230E+04   0.183E+01 -.160E+02 -.230E+04   -.138E-01 0.603E-01 -.501E-01   0.790E-03 0.463E-03 0.133E-04
   0.424E+01 -.226E+01 0.804E+03   -.418E+01 0.222E+01 -.804E+03   -.733E-01 0.431E-01 -.362E+00   -.179E-03 -.696E-03 0.240E-03
   0.560E+01 0.235E+01 -.781E+03   -.611E+01 -.265E+01 0.781E+03   0.503E+00 0.310E+00 0.100E+00   -.227E-03 -.309E-03 -.866E-03
   0.642E+01 -.398E+02 -.226E+04   -.626E+01 0.393E+02 0.226E+04   -.171E+00 0.529E+00 0.176E+00   -.949E-03 0.242E-03 0.164E-03
   0.122E+02 0.824E+01 0.231E+04   -.122E+02 -.832E+01 -.231E+04   -.790E-01 0.268E-01 -.241E+00   0.161E-03 0.198E-03 0.256E-03
   -.935E+00 0.429E+01 0.801E+03   0.903E+00 -.444E+01 -.801E+03   0.362E-01 0.162E+00 -.379E+00   0.708E-03 -.324E-03 0.552E-03
   -.359E+00 -.310E+00 -.696E+03   0.310E+00 0.162E+00 0.696E+03   0.434E-01 0.140E+00 0.516E+00   0.317E-04 0.118E-03 -.939E-03
   -.262E+02 -.254E+02 -.226E+04   0.258E+02 0.250E+02 0.226E+04   0.333E+00 0.394E+00 -.516E-01   -.722E-03 0.311E-03 0.128E-03
   0.169E+02 0.943E+01 0.231E+04   -.170E+02 -.941E+01 -.231E+04   -.681E-01 -.773E-01 -.237E+00   0.321E-03 0.992E-03 0.674E-04
   0.116E+02 0.159E+02 0.771E+03   -.117E+02 -.162E+02 -.771E+03   0.897E-01 0.330E+00 -.422E+00   0.569E-03 0.795E-03 0.400E-03
   -.182E+00 -.781E-01 -.709E+03   0.568E-01 0.151E+00 0.708E+03   0.118E+00 -.684E-01 0.364E+00   0.288E-03 0.329E-03 -.103E-02
   -.368E+02 -.157E+02 -.224E+04   0.364E+02 0.158E+02 0.224E+04   0.312E+00 -.828E-01 0.524E-01   -.217E-03 -.118E-02 0.491E-04
   0.158E+01 -.226E+01 -.290E+03   -.112E+01 0.207E+01 0.292E+03   -.492E+00 0.173E+00 -.179E+01   -.303E-04 -.304E-04 0.851E-04
   -.655E+01 0.229E+01 -.291E+03   0.632E+01 -.206E+01 0.292E+03   0.221E+00 -.264E+00 -.178E+01   -.777E-05 -.773E-04 0.669E-04
 -----------------------------------------------------------------------------------------------
   0.893E+00 0.157E+00 0.940E+01   -.759E-12 -.123E-11 0.506E-11   -.892E+00 -.142E+00 -.946E+01   -.237E-03 -.372E-03 0.141E-01
 
 
 POSITION                                       TOTAL-FORCE (eV/Angst)
 -----------------------------------------------------------------------------------
     10.55998      0.00001      1.11585         0.033720      0.063663     -0.116784
      2.63404      1.54472      3.62437        -0.007736     -0.000900      0.014784
      0.03142      3.05432      6.15156        -0.001083      0.008388      0.023795
      0.00144      0.01739      8.32973        -0.000901      0.000471     -0.012165
      9.23998      2.28632      1.11585         0.138514      0.085205      0.092677
      1.32379      3.80905      3.79957         0.000695     -0.005131      0.026446
      1.32284      0.79969      5.98780         0.008457     -0.005417      0.015452
     -1.31361      2.29415      8.37259        -0.002606      0.004402      0.022887
      1.31998      2.28632      1.11585         0.064317      0.157566      0.183509
     -1.29760      3.80877      3.57106         0.003206      0.005299      0.001622
      3.95192      0.78517      5.95770        -0.001204      0.000197      0.013081
      1.29791      2.25665      8.89966         0.007009      0.014299      0.014896
      2.63998      0.00001      1.11585        -0.024352      0.143895     -0.100913
      0.01719      1.54242      3.58017         0.008853      0.001373      0.003654
      2.63559      3.05294      6.24366         0.000813      0.003282      0.034461
      2.62783      0.01473      8.31258         0.004823     -0.001062      0.018877
      5.27998      0.00001      1.11585        -0.037437      0.026419     -0.042663
      7.92624      1.52674      3.52404        -0.009492     -0.001074      0.000392
      5.25768      3.04668      5.95834         0.003694      0.004196      0.013739
      5.28323      0.00354      8.32021        -0.004466     -0.002462     -0.003796
      3.95998      2.28632      1.11585        -0.162593      0.091751      0.152990
      6.59542      3.80633      3.50098        -0.001998     -0.005611      0.001930
      6.60493      0.76228      5.91453        -0.000878      0.003069     -0.004752
      3.99005      2.27814      8.56438        -0.004027      0.006985      0.033706
      6.59998      2.28632      1.11585        -0.043308      0.016017     -0.036852
      3.93984      3.80703      3.62172         0.005629     -0.003932      0.018911
      9.25157      0.77199      5.91290        -0.006614     -0.000621      0.002626
      6.60335      2.29132      8.32114         0.005041      0.009093     -0.003985
      7.91998      0.00001      1.11585         0.044189     -0.027713     -0.046575
      5.26668      1.53185      3.55654         0.006748      0.002547     -0.001462
      7.93143      3.04280      5.89196        -0.002874      0.003641      0.002736
      7.92520      0.00471      8.33397         0.001579      0.004189      0.011653
      7.91998      4.57263      1.11585         0.086585      0.014224     -0.178434
      0.01332      6.07800      3.57255        -0.007386     -0.001928      0.001840
     -2.62863      7.63016      5.83560        -0.000642      0.002884     -0.000786
      7.91516      4.57862      8.28241        -0.005080     -0.002677     -0.020097
      6.59998      6.85894      1.11585         0.019703     -0.014568     -0.229619
     -1.31790      8.39004      3.50002        -0.002092     -0.005493      0.003353
     -1.28111      5.31501      5.95741        -0.001815      0.002934     -0.010364
      6.59310      6.87007      8.20310        -0.000788      0.005395     -0.013285
     -1.32002      6.85894      1.11585         0.036218     -0.086070     -0.177742
     -3.95769      8.39689      3.49693         0.004875      0.004422     -0.003093
      1.33223      5.30794      6.15315        -0.006531      0.000913      0.021870
     -1.32102      6.86944      8.28210         0.000190      0.006998     -0.015559
     -0.00002      4.57263      1.11585         0.151570     -0.089179      0.165612
     -2.62810      6.09028      3.49013         0.005004      0.003329     -0.004998
      0.01348      7.61819      5.89147        -0.004379      0.000655      0.003438
     -0.04589      4.60690      8.69953         0.006461      0.004029      0.010657
      2.63998      4.57263      1.11585        -0.106994     -0.136038      0.189340
      5.26937      6.08818      3.49698        -0.003890     -0.002519     -0.002778
      2.63958      7.61125      5.91627        -0.001429      0.007307      0.004197
      2.66131      4.62021      8.85100         0.004659      0.006739     -0.027988
      1.31998      6.85894      1.11585        -0.004645     -0.162337      0.097650
      3.96141      8.38253      3.51563        -0.003608     -0.002819     -0.005846
      3.93091      5.31738      5.98773         0.007778     -0.003141      0.013875
      1.32114      6.86151      8.37564        -0.003617      0.004041      0.026321
      3.95998      6.85894      1.11585        -0.044216     -0.060081     -0.113919
      1.32105      8.37713      3.52458        -0.000214      0.002440      0.000237
      6.60025      5.32426      5.83623        -0.002476      0.002260      0.000482
      3.95172      6.86047      8.33710         0.007355      0.002895     -0.014287
      5.27998      4.57263      1.11585        -0.131364     -0.051546     -0.108799
      2.63264      6.07354      3.58235         0.004858      0.000060      0.002343
      5.27458      7.62573      5.85542         0.000578     -0.000227     -0.014021
      5.26880      4.58605      8.31325         0.008741      0.000785      0.022397
      1.05036      3.92828      9.83200        -0.038793     -0.015806      0.017135
      2.88878      2.85657      9.76627        -0.000330     -0.039901      0.025993
 -----------------------------------------------------------------------------------
    total drift:                                0.001621      0.014960     -0.043900


--------------------------------------------------------------------------------------------------------



  FREE ENERGIE OF THE ION-ELECTRON SYSTEM (eV)
  ---------------------------------------------------
  free  energy   TOTEN  =      -412.62507688 eV

  energy  without entropy=     -412.58419415  energy(sigma->0) =     -412.61144930
 


--------------------------------------------------------------------------------------------------------


    POTLOK:  cpu time    0.5228: real time    0.5240


--------------------------------------------------------------------------------------------------------


 Quasi-Newton relaxation of ions (Broydens 2nd method)
  g(Force)  = 0.815E-03   g(Stress)= 0.000E+00

 Reset! Starting new Quasi-Newton update for ions 


--------------------------------------------------------------------------------------------------------


  
 reached required accuracy - stopping structural energy minimisation
     LOOP+:  cpu time 2566.7494: real time 2574.4895
    4ORBIT:  cpu time    0.0000: real time    0.0000

 total amount of memory used by VASP MPI-rank0   206343. kBytes
=======================================================================

   base      :      30000. kBytes
   nonlr-proj:      31128. kBytes
   fftplans  :      17093. kBytes
   grid      :      44247. kBytes
   one-center:        528. kBytes
   wavefun   :      83347. kBytes
 
  
  
 General timing and accounting informations for this job:
 ========================================================
  
                  Total CPU time used (sec):     2588.842
                            User time (sec):     2583.805
                          System time (sec):        5.037
                         Elapsed time (sec):     2597.852
  
                   Maximum memory used (kb):      579464.
                   Average memory used (kb):           0.
  
                          Minor page faults:       886644
                          Major page faults:            0
                 Voluntary context switches:         4850
