 vasp.5.4.4.18Apr17-6-g9f103f2a35 (build Nov 30 2020 22:55:02) complex          
  
 executed on             LinuxIFC date 2023.07.29  12:10:42
 running on   40 total cores
 distrk:  each k-point on   40 cores,    1 groups
 distr:  one band on NCORES_PER_BAND=   4 cores,   10 groups


--------------------------------------------------------------------------------------------------------


 INCAR:
 POTCAR:    PAW_PBE Pt 04Feb2005                  
 POTCAR:    PAW_PBE H 15Jun2001                   
 POTCAR:    PAW_PBE Pt 04Feb2005                  
   VRHFIN =Pt: s1d9                                                             
   LEXCH  = PE                                                                  
   EATOM  =   729.1176 eV,   53.5886 Ry                                         
                                                                                
   TITEL  = PAW_PBE Pt 04Feb2005                                                
   LULTRA =        F    use ultrasoft PP ?                                      
   IUNSCR =        1    unscreen: 0-lin 1-nonlin 2-no                           
   RPACOR =    2.330    partial core radius                                     
   POMASS =  195.080; ZVAL   =   10.000    mass and valenz                      
   RCORE  =    2.600    outmost cutoff radius                                   
   RWIGS  =    2.750; RWIGS  =    1.455    wigner-seitz radius (au A)           
   ENMAX  =  230.283; ENMIN  =  172.712 eV                                      
   ICORE  =        3    local potential                                         
   LCOR   =        T    correct aug charges                                     
   LPAW   =        T    paw PP                                                  
   EAUG   =  358.966                                                            
   DEXC   =    0.000                                                            
   RMAX   =    2.658    core radius for proj-oper                               
   RAUG   =    1.300    factor for augmentation sphere                          
   RDEP   =    2.761    radius for radial grids                                 
   RDEPT  =    2.203    core radius for aug-charge                              
                                                                                
   Atomic configuration                                                         
   16 entries                                                                   
     n  l   j            E        occ.                                          
     1  0  0.50    -78401.1885   2.0000                                         
     2  0  0.50    -13770.7750   2.0000                                         
     2  1  1.50    -11931.0468   6.0000                                         
     3  0  0.50     -3234.7234   2.0000                                         
     3  1  1.50     -2699.2216   6.0000                                         
     3  2  2.50     -2119.5714  10.0000                                         
     4  0  0.50      -695.1528   2.0000                                         
     4  1  1.50      -519.6034   6.0000                                         
     4  2  2.50      -306.6786  10.0000                                         
     4  3  3.50       -70.1041  14.0000                                         
     5  0  0.50      -101.7747   2.0000                                         
     5  1  1.50       -55.9873   6.0000                                         
     5  2  2.50        -6.1423   9.0000                                         
     6  0  0.50        -5.6573   1.0000                                         
     6  1  1.50        -6.8029   0.0000                                         
     5  3  2.50        -1.3606   0.0000                                         
   Description                                                                  
     l       E           TYP  RCUT    TYP  RCUT                                 
     2     -6.1423404     23  2.500                                             
     2     -7.5029230     23  2.500                                             
     0     -5.6573207     23  2.500                                             
     0      0.7416693     23  2.500                                             
     1     -2.7211652     23  2.600                                             
     1     20.4087390     23  2.600                                             
     3     -1.3605826     23  2.500                                             
  local pseudopotential read in
  partial core-charges read in
  partial kinetic energy density read in
  atomic valenz-charges read in
  non local Contribution for L=           2  read in
    real space projection operators read in
  non local Contribution for L=           2  read in
    real space projection operators read in
  non local Contribution for L=           0  read in
    real space projection operators read in
  non local Contribution for L=           0  read in
    real space projection operators read in
  non local Contribution for L=           1  read in
    real space projection operators read in
  non local Contribution for L=           1  read in
    real space projection operators read in
    PAW grid and wavefunctions read in
 
   number of l-projection  operators is LMAX  =           6
   number of lm-projection operators is LMMAX =          18
 
 POTCAR:    PAW_PBE H 15Jun2001                   
   VRHFIN =H: ultrasoft test                                                    
   LEXCH  = PE                                                                  
   EATOM  =    12.4884 eV,    0.9179 Ry                                         
                                                                                
   TITEL  = PAW_PBE H 15Jun2001                                                 
   LULTRA =        F    use ultrasoft PP ?                                      
   IUNSCR =        0    unscreen: 0-lin 1-nonlin 2-no                           
   RPACOR =    0.000    partial core radius                                     
   POMASS =    1.000; ZVAL   =    1.000    mass and valenz                      
   RCORE  =    1.100    outmost cutoff radius                                   
   RWIGS  =    0.700; RWIGS  =    0.370    wigner-seitz radius (au A)           
   ENMAX  =  250.000; ENMIN  =  200.000 eV                                      
   RCLOC  =    0.701    cutoff for local pot                                    
   LCOR   =        T    correct aug charges                                     
   LPAW   =        T    paw PP                                                  
   EAUG   =  400.000                                                            
   RMAX   =    1.123    core radius for proj-oper                               
   RAUG   =    1.200    factor for augmentation sphere                          
   RDEP   =    1.112    radius for radial grids                                 
   RDEPT  =    0.926    core radius for aug-charge                              
                                                                                
   Atomic configuration                                                         
    2 entries                                                                   
     n  l   j            E        occ.                                          
     1  0  0.50        -6.4927   1.0000                                         
     2  1  0.50        -3.4015   0.0000                                         
   Description                                                                  
     l       E           TYP  RCUT    TYP  RCUT                                 
     0     -6.4927494     23  1.100                                             
     0      6.8029130     23  1.100                                             
     1     -4.0817478     23  1.100                                             
  local pseudopotential read in
  atomic valenz-charges read in
  non local Contribution for L=           0  read in
    real space projection operators read in
  non local Contribution for L=           0  read in
    real space projection operators read in
  non local Contribution for L=           1  read in
    real space projection operators read in
    PAW grid and wavefunctions read in
 
   number of l-projection  operators is LMAX  =           3
   number of lm-projection operators is LMMAX =           5
 
 Optimization of the real space projectors (new method)

 maximal supplied QI-value         = 14.36
 optimisation between [QCUT,QGAM] = [ 11.92, 23.98] = [ 39.79,161.09] Ry 
 Optimized for a Real-space Cutoff    1.49 Angstroem

   l    n(q)    QCUT    max X(q) W(low)/X(q) W(high)/X(q)  e(spline) 
   2     10    11.920    66.195    0.79E-04    0.18E-03    0.24E-06
   2     10    11.920    64.643    0.81E-04    0.19E-03    0.24E-06
   0     11    11.920    95.520    0.28E-04    0.54E-04    0.18E-06
   0     11    11.920    63.403    0.27E-04    0.52E-04    0.17E-06
   1     10    11.920    19.961    0.18E-04    0.11E-03    0.23E-06
   1     10    11.920    13.289    0.25E-04    0.87E-04    0.19E-06
 Optimization of the real space projectors (new method)

 maximal supplied QI-value         = 34.20
 optimisation between [QCUT,QGAM] = [ 11.97, 23.94] = [ 40.13,160.53] Ry 
 Optimized for a Real-space Cutoff    1.18 Angstroem

   l    n(q)    QCUT    max X(q) W(low)/X(q) W(high)/X(q)  e(spline) 
   0      8    11.971    19.460    0.15E-03    0.31E-03    0.25E-06
   0      8    11.971    12.209    0.13E-03    0.29E-03    0.25E-06
   1      8    11.971     4.655    0.22E-03    0.24E-03    0.21E-06
  PAW_PBE Pt 04Feb2005                  :
 energy of atom  1       EATOM= -729.1176
 kinetic energy error for atom=    0.0021 (will be added to EATOM!!)
  PAW_PBE H 15Jun2001                   :
 energy of atom  2       EATOM=  -12.4884
 kinetic energy error for atom=    0.0008 (will be added to EATOM!!)
 
 
 POSCAR: Pt111\(1\1\1)\(2)                       
  positions in direct lattice
  velocities in cartesian coordinates
 exchange correlation table for  LEXCH =        8
   RHO(1)=    0.500       N(1)  =     2000
   RHO(2)=  100.500       N(2)  =     4000
 


--------------------------------------------------------------------------------------------------------


 ion  position               nearest neighbor table
   1  1.000  0.000  0.056-   5 2.64   9 2.64  13 2.64  29 2.64  57 2.64  37 2.64  42 2.87  14 2.87
                            54 2.87
   2  0.333  0.167  0.178-  30 2.64  26 2.64  38 2.64  42 2.64  14 2.64   6 2.64  11 2.83   7 2.86
                            15 2.87   9 2.87  21 2.87  13 2.87
   3  0.168  0.334  0.299-  15 2.62  43 2.62   7 2.63  39 2.63  27 2.65  31 2.65   8 2.81   6 2.86
                            10 2.86  14 2.87  48 2.97  12 2.97
   4  1.000  0.000  0.419-  12 2.62  60 2.64  40 2.64  32 2.64  16 2.64   8 2.64   7 2.86  63 2.87
                            27 2.88
   5  1.000  0.250  0.056-   1 2.64  45 2.64  33 2.64   9 2.64  29 2.64  25 2.64  14 2.87  10 2.87
                            18 2.87
   6  0.333  0.417  0.178-  26 2.64  62 2.64  10 2.64  34 2.64  14 2.64   2 2.64   3 2.86  15 2.86
                            43 2.86  45 2.87  49 2.87   9 2.87
   7  0.167  0.085  0.299-  15 2.63   3 2.63  27 2.64  11 2.64  63 2.65  35 2.65   2 2.86  14 2.86
                            16 2.86   4 2.86  42 2.87  12 2.95
   8  0.999  0.250  0.416-  28 2.63  32 2.63  36 2.64   4 2.64  48 2.66  12 2.66   3 2.81  31 2.82
                            27 2.83
   9  0.250  0.250  0.056-  21 2.64  13 2.64   1 2.64  49 2.64  45 2.64   5 2.64   2 2.87  14 2.87
                             6 2.87
  10  0.083  0.417  0.178-  34 2.64   6 2.64  46 2.64  14 2.64  18 2.64  22 2.64  31 2.83  39 2.86
                             3 2.86  33 2.87  45 2.87   5 2.87
  11  0.417  0.083  0.297-  47 2.63  35 2.64   7 2.64  23 2.64  19 2.65  15 2.65  24 2.83  38 2.83
                             2 2.83  30 2.83  16 2.88  20 2.91
  12  0.249  0.247  0.426-  16 2.62   4 2.62  24 2.66   8 2.66  52 2.69  48 2.69   7 2.95   3 2.97
                            15 2.97
  13  0.250  0.000  0.056-  21 2.64   9 2.64  17 2.64   1 2.64  37 2.64  41 2.64  38 2.87   2 2.87
                            42 2.87
  14  0.083  0.167  0.178-  42 2.64  54 2.64   6 2.64   2 2.64  10 2.64  18 2.64  27 2.83   7 2.86
                             3 2.87   5 2.87   1 2.87   9 2.87
  15  0.416  0.334  0.299-   3 2.62  43 2.62   7 2.63  55 2.63  11 2.65  19 2.65  24 2.81   6 2.86
                            26 2.86   2 2.87  52 2.97  12 2.97
  16  0.250  0.000  0.419-  12 2.62  44 2.64  40 2.64  20 2.64   4 2.64  24 2.64   7 2.86  35 2.87
                            11 2.88
  17  0.500  0.000  0.056-  29 2.64  25 2.64  13 2.64  21 2.64  41 2.64  53 2.64  58 2.87  30 2.87
                            38 2.87
  18  0.833  0.167  0.178-  54 2.64  58 2.64  22 2.64  10 2.64  30 2.64  14 2.64  27 2.83  31 2.83
                            23 2.86  25 2.87  29 2.87   5 2.87
  19  0.667  0.334  0.297-  31 2.63  59 2.64  55 2.64  23 2.64  11 2.65  15 2.65  24 2.82  22 2.83
                            26 2.83  30 2.83  64 2.88  28 2.91
  20  0.500  0.000  0.421-  56 2.63  24 2.63  16 2.64  44 2.64  32 2.64  28 2.64  23 2.88  11 2.91
                            47 2.91
  21  0.500  0.250  0.056-  25 2.64  61 2.64   9 2.64  13 2.64  49 2.64  17 2.64  30 2.87   2 2.87
                            26 2.87
  22  0.833  0.417  0.178-  50 2.64  26 2.64  30 2.64  18 2.64  46 2.64  10 2.64  19 2.83  31 2.83
                            59 2.84  61 2.87  25 2.87  33 2.87
  23  0.667  0.083  0.299-  31 2.64  19 2.64  51 2.64  47 2.64  27 2.64  11 2.64  18 2.86  30 2.86
                            58 2.86  32 2.88  20 2.88  28 2.88
  24  0.501  0.250  0.416-  65 1.95  28 2.63  20 2.63  64 2.64  16 2.64  52 2.66  12 2.66  15 2.81
                            19 2.82  11 2.83
  25  0.750  0.250  0.056-  17 2.64  21 2.64  29 2.64  61 2.64  33 2.64   5 2.64  18 2.87  22 2.87
                            30 2.87
  26  0.583  0.417  0.178-   6 2.64   2 2.64  22 2.64  30 2.64  62 2.64  50 2.64  19 2.83  55 2.86
                            15 2.86  49 2.87  61 2.87  21 2.87
  27  0.917  0.083  0.297-  51 2.63  63 2.64   7 2.64  23 2.64  31 2.65   3 2.65   8 2.83  54 2.83
                            14 2.83  18 2.83   4 2.88  32 2.91
  28  0.750  0.251  0.421-  24 2.63   8 2.63  64 2.64  36 2.64  20 2.64  32 2.64  23 2.88  19 2.91
                            31 2.91
  29  0.750  0.000  0.056-  17 2.64  25 2.64   5 2.64  53 2.64   1 2.64  57 2.64  54 2.87  18 2.87
                            58 2.87
  30  0.583  0.167  0.178-   2 2.64  38 2.64  58 2.64  26 2.64  22 2.64  18 2.64  11 2.83  19 2.83
                            23 2.86  21 2.87  17 2.87  25 2.87
  31  0.917  0.334  0.297-  19 2.63  59 2.64  39 2.64  23 2.64  27 2.65   3 2.65   8 2.82  22 2.83
                            10 2.83  18 2.83  36 2.88  28 2.91
  32  0.750  0.000  0.421-  56 2.63   8 2.63   4 2.64  60 2.64  20 2.64  28 2.64  23 2.88  27 2.91
                            51 2.91
  33  1.000  0.500  0.056-  37 2.64  41 2.64   5 2.64  45 2.64  25 2.64  61 2.64  10 2.87  46 2.87
                            22 2.87
  34  0.333  0.667  0.178-  62 2.64  10 2.64  58 2.64  46 2.64   6 2.64  38 2.64  47 2.83  39 2.86
                            43 2.86  41 2.87  45 2.87  53 2.87
  35  0.167  0.833  0.297-  59 2.64  63 2.64  47 2.64  11 2.64   7 2.65  39 2.65  42 2.84  38 2.84
                            46 2.84  40 2.86  44 2.87  16 2.87
  36  0.000  0.500  0.419-  48 2.62  64 2.64  40 2.64  44 2.64  28 2.64   8 2.64  39 2.86  59 2.87
                            31 2.88
  37  1.000  0.750  0.056-  33 2.64  41 2.64  61 2.64  57 2.64  13 2.64   1 2.64  46 2.87  50 2.87
                            42 2.87
  38  0.333  0.917  0.178-  58 2.64  30 2.64   2 2.64  42 2.64  34 2.64  46 2.64  47 2.83  11 2.83
                            35 2.84  13 2.87  17 2.87  41 2.87
  39  0.167  0.583  0.299-  43 2.63   3 2.63  31 2.64  47 2.64  59 2.65  35 2.65  34 2.86  10 2.86
                            36 2.86  44 2.86  46 2.87  48 2.95
  40  0.000  0.750  0.418-  36 2.64  64 2.64  16 2.64   4 2.64  44 2.64  60 2.64  63 2.86  35 2.86
                            59 2.86
  41  0.250  0.750  0.056-  45 2.64  33 2.64  37 2.64  53 2.64  17 2.64  13 2.64  34 2.87  46 2.87
                            38 2.87
  42  0.083  0.917  0.178-  14 2.64   2 2.64  38 2.64  46 2.64  50 2.64  54 2.64  63 2.84  35 2.84
                             7 2.87   1 2.87  13 2.87  37 2.87
  43  0.416  0.582  0.299-  15 2.62   3 2.62  39 2.63  55 2.63  51 2.65  47 2.65  56 2.81   6 2.86
                            62 2.86  34 2.86  52 2.97  48 2.97
  44  0.250  0.750  0.419-  48 2.62  16 2.64  40 2.64  36 2.64  20 2.64  56 2.64  39 2.86  35 2.87
                            47 2.88
  45  0.250  0.500  0.056-  41 2.64  53 2.64   5 2.64   9 2.64  49 2.64  33 2.64   6 2.87  10 2.87
                            34 2.87
  46  0.083  0.667  0.178-  34 2.64  50 2.64  10 2.64  42 2.64  22 2.64  38 2.64  59 2.84  35 2.84
                            39 2.87  37 2.87  33 2.87  41 2.87
  47  0.417  0.834  0.297-  11 2.63  35 2.64  23 2.64  39 2.64  51 2.65  43 2.65  56 2.83  38 2.83
                            58 2.83  34 2.83  44 2.88  20 2.91
  48  0.249  0.502  0.426-  44 2.62  36 2.62   8 2.66  56 2.66  52 2.68  12 2.69  39 2.95  43 2.97
                             3 2.97
  49  0.500  0.500  0.056-  61 2.64  53 2.64  57 2.64  21 2.64   9 2.64  45 2.64  26 2.87   6 2.87
                            62 2.87
  50  0.833  0.667  0.178-  22 2.64  46 2.64  26 2.64  42 2.64  54 2.64  62 2.64  59 2.84  63 2.84
                            55 2.87  57 2.87  61 2.87  37 2.87
  51  0.667  0.834  0.297-  27 2.63  63 2.64  23 2.64  55 2.64  47 2.65  43 2.65  56 2.83  54 2.83
                            58 2.83  62 2.83  60 2.88  32 2.91
  52  0.503  0.502  0.426-  65 1.83  60 2.62  64 2.62  24 2.66  56 2.66  48 2.68  12 2.69  55 2.95
                            43 2.97  15 2.97
  53  0.500  0.750  0.056-  49 2.64  57 2.64  45 2.64  41 2.64  29 2.64  17 2.64  62 2.87  34 2.87
                            58 2.87
  54  0.833  0.917  0.178-  18 2.64  14 2.64  50 2.64  58 2.64  42 2.64  62 2.64  51 2.83  27 2.83
                            63 2.84  29 2.87   1 2.87  57 2.87
  55  0.665  0.583  0.299-  43 2.63  15 2.63  19 2.64  51 2.64  59 2.65  63 2.65  62 2.86  26 2.86
                            64 2.86  60 2.86  50 2.87  52 2.95
  56  0.501  0.751  0.416-  32 2.63  20 2.63  60 2.64  44 2.64  52 2.66  48 2.66  43 2.81  47 2.83
                            51 2.83
  57  0.750  0.750  0.056-  61 2.64  49 2.64  53 2.64  37 2.64   1 2.64  29 2.64  50 2.87  62 2.87
                            54 2.87
  58  0.583  0.917  0.178-  38 2.64  30 2.64  18 2.64  34 2.64  62 2.64  54 2.64  47 2.83  51 2.83
                            23 2.86  17 2.87  29 2.87  53 2.87
  59  0.917  0.584  0.297-  35 2.64  63 2.64  31 2.64  19 2.64  55 2.65  39 2.65  46 2.84  50 2.84
                            22 2.84  40 2.86  36 2.87  64 2.87
  60  0.750  0.750  0.419-  52 2.62   4 2.64  40 2.64  64 2.64  32 2.64  56 2.64  55 2.86  63 2.87
                            51 2.88
  61  0.750  0.500  0.056-  49 2.64  57 2.64  21 2.64  25 2.64  37 2.64  33 2.64  22 2.87  26 2.87
                            50 2.87
  62  0.583  0.667  0.178-  34 2.64   6 2.64  26 2.64  58 2.64  54 2.64  50 2.64  51 2.83  55 2.86
                            43 2.86  53 2.87  49 2.87  57 2.87
  63  0.917  0.833  0.297-  59 2.64  35 2.64  51 2.64  27 2.64   7 2.65  55 2.65  42 2.84  50 2.84
                            54 2.84  40 2.86  60 2.87   4 2.87
  64  0.750  0.500  0.419-  65 1.92  52 2.62  36 2.64  40 2.64  60 2.64  28 2.64  24 2.64  55 2.86
                            59 2.87  19 2.88
  65  0.583  0.416  0.477-  52 1.83  64 1.92  24 1.95
 
  LATTYP: Found a hexagonal cell.
 ALAT       =    10.5600004196
 C/A-ratio  =     1.8939393187
  
  Lattice vectors:
  
 A1 = (  10.5600004196,   0.0000000000,   0.0000000000)
 A2 = (  -5.2800002098,   9.1452286274,   0.0000000000)
 A3 = (   0.0000000000,   0.0000000000,  20.0000000000)


Analysis of symmetry for initial positions (statically):
=====================================================================
 Subroutine PRICEL returns:
 Original cell was already a primitive cell.
 

 Routine SETGRP: Setting up the symmetry group for a 
 hexagonal supercell.


 Subroutine GETGRP returns: Found  1 space group operations
 (whereof  1 operations were pure point group operations)
 out of a pool of 24 trial point group operations.


The static configuration has the point symmetry C_1 .


Analysis of symmetry for dynamics (positions and initial velocities):
=====================================================================
 Subroutine PRICEL returns:
 Original cell was already a primitive cell.
 

 Routine SETGRP: Setting up the symmetry group for a 
 hexagonal supercell.


 Subroutine GETGRP returns: Found  1 space group operations
 (whereof  1 operations were pure point group operations)
 out of a pool of 24 trial point group operations.


The dynamic configuration has the point symmetry C_1 .


Analysis of constrained symmetry for selective dynamics:
=====================================================================
 Subroutine PRICEL returns:
 Original cell was already a primitive cell.
 

 Routine SETGRP: Setting up the symmetry group for a 
 hexagonal supercell.


 Subroutine GETGRP returns: Found  1 space group operations
 (whereof  1 operations were pure point group operations)
 out of a pool of 24 trial point group operations.


The constrained configuration has the point symmetry C_1 .


Analysis of structural, dynamic, and magnetic symmetry:
=====================================================================
 Subroutine PRICEL returns:
 Original cell was already a primitive cell.
 

 Routine SETGRP: Setting up the symmetry group for a 
 hexagonal supercell.


 Subroutine GETGRP returns: Found  1 space group operations
 (whereof  1 operations were pure point group operations)
 out of a pool of 24 trial point group operations.


The magnetic configuration has the point symmetry C_1 .


 Subroutine INISYM returns: Found  1 space group operations
 (whereof  1 operations are pure point group operations),
 and found     1 'primitive' translations

 
 
 KPOINTS: mesh auto                               

Automatic generation of k-mesh.
Space group operators:
 irot       det(A)        alpha          n_x          n_y          n_z        tau_x        tau_y        tau_z
    1     1.000000     0.000000     1.000000     0.000000     0.000000     0.000000     0.000000     0.000000
 
 Subroutine IBZKPT returns following result:
 ===========================================
 
 Found      4 irreducible k-points:
 
 Following reciprocal coordinates:
            Coordinates               Weight
  0.000000  0.000000  0.000000      1.000000
  0.500000 -0.000000  0.000000      1.000000
  0.000000  0.500000  0.000000      1.000000
  0.500000  0.500000  0.000000      1.000000
 
 Following cartesian coordinates:
            Coordinates               Weight
  0.000000  0.000000  0.000000      1.000000
  0.047348  0.027337  0.000000      1.000000
  0.000000  0.054673  0.000000      1.000000
  0.047348  0.082010  0.000000      1.000000
 


--------------------------------------------------------------------------------------------------------




 Dimension of arrays:
   k-points           NKPTS =      4   k-points in BZ     NKDIM =      4   number of bands    NBANDS=    420
   number of dos      NEDOS =    301   number of ions     NIONS =     65
   non local maximal  LDIM  =      6   non local SUM 2l+1 LMDIM =     18
   total plane-waves  NPLWV = ******
   max r-space proj   IRMAX =   8171   max aug-charges    IRDMAX=  35597
   dimension x,y,z NGX =    84 NGY =   84 NGZ =  160
   dimension x,y,z NGXF=   168 NGYF=  168 NGZF=  320
   support grid    NGXF=   168 NGYF=  168 NGZF=  320
   ions per type =              64   1
   NGX,Y,Z   is equivalent  to a cutoff of  13.22, 13.22, 13.30 a.u.
   NGXF,Y,Z  is equivalent  to a cutoff of  26.45, 26.45, 26.60 a.u.

 SYSTEM =  Pt111                                   
 POSCAR =  Pt111\(1\1\1)\(2)                       

 Startparameter for this run:
   NWRITE =      2    write-flag & timer
   PREC   = accura    normal or accurate (medium, high low for compatibility)
   ISTART =      0    job   : 0-new  1-cont  2-samecut
   ICHARG =      2    charge: 1-file 2-atom 10-const
   ISPIN  =      2    spin polarized calculation?
   LNONCOLLINEAR =      F non collinear calculations
   LSORBIT =      F    spin-orbit coupling
   INIWAV =      1    electr: 0-lowe 1-rand  2-diag
   LASPH  =      F    aspherical Exc in radial PAW
   METAGGA=      F    non-selfconsistent MetaGGA calc.

 Electronic Relaxation 1
   ENCUT  =  550.0 eV  40.42 Ry    6.36 a.u.  20.19 20.19 38.24*2*pi/ulx,y,z
   ENINI  =  550.0     initial cutoff
   ENAUG  =  400.0 eV  augmentation charge cutoff
   NELM   =    200;   NELMIN=  2; NELMDL= -5     # of ELM steps 
   EDIFF  = 0.1E-04   stopping-criterion for ELM
   LREAL  =      T    real-space projection
   NLSPLINE    = F    spline interpolate recip. space projectors
   LCOMPAT=      F    compatible to vasp.4.4
   GGA_COMPAT  = T    GGA compatible to vasp.4.4-vasp.4.6
   LMAXPAW     = -100 max onsite density
   LMAXMIX     =    2 max onsite mixed and CHGCAR
   VOSKOWN=      0    Vosko Wilk Nusair interpolation
   ROPT   =   -0.00025  -0.00025
 Ionic relaxation
   EDIFFG = -.5E-01   stopping-criterion for IOM
   NSW    =    300    number of steps for IOM
   NBLOCK =      1;   KBLOCK =    300    inner block; outer block 
   IBRION =      2    ionic relax: 0-MD 1-quasi-New 2-CG
   NFREE  =      1    steps in history (QN), initial steepest desc. (CG)
   ISIF   =      2    stress and relaxation
   IWAVPR =     11    prediction:  0-non 1-charg 2-wave 3-comb
   ISYM   =      2    0-nonsym 1-usesym 2-fastsym
   LCORR  =      T    Harris-Foulkes like correction to forces

   POTIM  = 0.5000    time-step for ionic-motion
   TEIN   =    0.0    initial temperature
   TEBEG  =    0.0;   TEEND  =   0.0 temperature during run
   SMASS  =  -3.00    Nose mass-parameter (am)
   estimated Nose-frequenzy (Omega)   =  0.10E-29 period in steps =****** mass=  -0.255E-26a.u.
   SCALEE = 1.0000    scale energy and forces
   NPACO  =    256;   APACO  = 16.0  distance and # of slots for P.C.
   PSTRESS=    0.0 pullay stress

  Mass of Ions in am
   POMASS = 195.08  1.00
  Ionic Valenz
   ZVAL   =  10.00  1.00
  Atomic Wigner-Seitz radii
   RWIGS  =  -1.00 -1.00
  virtual crystal weights 
   VCA    =   1.00  1.00
   NELECT =     641.0000    total number of electrons
   NUPDOWN=      -1.0000    fix difference up-down

 DOS related values:
   EMIN   =  10.00;   EMAX   =-10.00  energy-range for DOS
   EFERMI =   0.00
   ISMEAR =     1;   SIGMA  =   0.10  broadening in eV -4-tet -1-fermi 0-gaus

 Electronic relaxation 2 (details)
   IALGO  =     68    algorithm
   LDIAG  =      T    sub-space diagonalisation (order eigenvalues)
   LSUBROT=      F    optimize rotation matrix (better conditioning)
   TURBO    =      0    0=normal 1=particle mesh
   IRESTART =      0    0=no restart 2=restart with 2 vectors
   NREBOOT  =      0    no. of reboots
   NMIN     =      0    reboot dimension
   EREF     =   0.00    reference energy to select bands
   IMIX   =      4    mixing-type and parameters
     AMIX     =   0.40;   BMIX     =  1.00
     AMIX_MAG =   1.60;   BMIX_MAG =  1.00
     AMIN     =   0.10
     WC   =   100.;   INIMIX=   1;  MIXPRE=   1;  MAXMIX= -45

 Intra band minimization:
   WEIMIN = 0.0010     energy-eigenvalue tresh-hold
   EBREAK =  0.60E-08  absolut break condition
   DEPER  =   0.30     relativ break condition  

   TIME   =   0.40     timestep for ELM

  volume/ion in A,a.u.               =      29.71       200.53
  Fermi-wavevector in a.u.,A,eV,Ry     =   1.133439  2.141888 17.479175  1.284683
  Thomas-Fermi vector in A             =   2.270141
 
 Write flags
   LWAVE        =      F    write WAVECAR
   LDOWNSAMPLE  =      F    k-point downsampling of WAVECAR
   LCHARG       =      F    write CHGCAR
   LVTOT        =      F    write LOCPOT, total local potential
   LVHAR        =      F    write LOCPOT, Hartree potential only
   LELF         =      F    write electronic localiz. function (ELF)
   LORBIT       =      0    0 simple, 1 ext, 2 COOP (PROOUT), +10 PAW based schemes


 Dipole corrections
   LMONO  =      F    monopole corrections only (constant potential shift)
   LDIPOL =      F    correct potential (dipole corrections)
   IDIPOL =      0    1-x, 2-y, 3-z, 4-all directions 
   EPSILON=  1.0000000 bulk dielectric constant

 Exchange correlation treatment:
   GGA     =    --    GGA type
   LEXCH   =     8    internal setting for exchange type
   VOSKOWN=      0    Vosko Wilk Nusair interpolation
   LHFCALC =     F    Hartree Fock is set to
   LHFONE  =     F    Hartree Fock one center treatment
   AEXX    =    0.0000 exact exchange contribution

 Linear response parameters
   LEPSILON=     F    determine dielectric tensor
   LRPA    =     F    only Hartree local field effects (RPA)
   LNABLA  =     F    use nabla operator in PAW spheres
   LVEL    =     F    velocity operator in full k-point grid
   LINTERFAST=   F  fast interpolation
   KINTER  =     0    interpolate to denser k-point grid
   CSHIFT  =0.1000    complex shift for real part using Kramers Kronig
   OMEGAMAX=  -1.0    maximum frequency
   DEG_THRESHOLD= 0.2000000E-02 threshold for treating states as degnerate
   RTIME   =   -0.100 relaxation time in fs
  (WPLASMAI=    0.000 imaginary part of plasma frequency in eV, 0.658/RTIME)
   DFIELD  = 0.0000000 0.0000000 0.0000000 field for delta impulse in time
 
 Orbital magnetization related:
   ORBITALMAG=     F  switch on orbital magnetization
   LCHIMAG   =     F  perturbation theory with respect to B field
   DQ        =  0.001000  dq finite difference perturbation B field
   LLRAUG    =     F  two centre corrections for induced B field



--------------------------------------------------------------------------------------------------------


 conjugate gradient relaxation of ions
   using selective dynamics as specified on POSCAR
 charge density and potential will be updated during run
 spin polarized calculation
 RMM-DIIS sequential band-by-band and
  variant of blocked Davidson during initial phase
 perform sub-space diagonalisation
    before iterative eigenvector-optimisation
 modified Broyden-mixing scheme, WC =      100.0
 initial mixing is a Kerker type mixing with AMIX =  0.4000 and BMIX =      1.0000
 Hartree-type preconditioning will be used
 using additional bands           99
 real space projection scheme for non local part
 use partial core corrections
 calculate Harris-corrections to forces 
   (improved forces if not selfconsistent)
 use gradient corrections 
 use of overlap-Matrix (Vanderbilt PP)
 Methfessel and Paxton  Order N= 1 SIGMA  =   0.10


--------------------------------------------------------------------------------------------------------


  energy-cutoff  :      550.00
  volume of cell :     1931.47
      direct lattice vectors                 reciprocal lattice vectors
    10.560000420  0.000000000  0.000000000     0.094696966  0.054673319  0.000000000
    -5.280000210  9.145228627  0.000000000     0.000000000  0.109346638  0.000000000
     0.000000000  0.000000000 20.000000000     0.000000000  0.000000000  0.050000000

  length of vectors
    10.560000420 10.560000420 20.000000000     0.109346638  0.109346638  0.050000000


 
 k-points in units of 2pi/SCALE and weight: mesh auto                               
   0.00000000  0.00000000  0.00000000       0.250
   0.04734848  0.02733666  0.00000000       0.250
   0.00000000  0.05467332  0.00000000       0.250
   0.04734848  0.08200998  0.00000000       0.250
 
 k-points in reciprocal lattice and weights: mesh auto                               
   0.00000000  0.00000000  0.00000000       0.250
   0.50000000 -0.00000000  0.00000000       0.250
   0.00000000  0.50000000  0.00000000       0.250
   0.50000000  0.50000000  0.00000000       0.250
 
 position of ions in fractional coordinates (direct lattice) 
   0.99999844  0.00000156  0.05579229
   0.33333173  0.16666826  0.17752397
   0.16789213  0.33403322  0.29863071
   0.99999387  0.00001869  0.41923595
   0.99999844  0.25000155  0.05579229
   0.33333172  0.41666827  0.17752397
   0.16745864  0.08491248  0.29856887
   0.99903384  0.24980324  0.41581712
   0.24999844  0.25000155  0.05579229
   0.08333172  0.41666827  0.17752397
   0.41656665  0.08314265  0.29677035
   0.24868992  0.24737517  0.42607214
   0.24999844  0.00000156  0.05579229
   0.08333172  0.16666826  0.17752397
   0.41614589  0.33403322  0.29863071
   0.25002948  0.00001869  0.41923595
   0.49999844  0.00000156  0.05579229
   0.83333168  0.16666826  0.17752397
   0.66707099  0.33364725  0.29678313
   0.50000026  0.00017561  0.42052524
   0.49999843  0.25000155  0.05579229
   0.83333168  0.41666827  0.17752397
   0.66674699  0.08348911  0.29863634
   0.50077406  0.24980324  0.41581712
   0.74999841  0.25000155  0.05579229
   0.58333168  0.41666827  0.17752397
   0.91658082  0.08314265  0.29677035
   0.75025392  0.25050324  0.42060703
   0.74999842  0.00000156  0.05579229
   0.58333166  0.16666826  0.17752397
   0.91658108  0.33364725  0.29678313
   0.75018000  0.00017561  0.42052524
   0.99999844  0.50000154  0.05579229
   0.33333171  0.66666826  0.17752397
   0.16659900  0.83340150  0.29744137
   0.00007607  0.50044686  0.41915474
   0.99999843  0.75000151  0.05579229
   0.33333173  0.91666828  0.17752397
   0.16745807  0.58274108  0.29851833
   0.00013306  0.75026142  0.41832325
   0.24999843  0.75000151  0.05579229
   0.08333173  0.91666828  0.17752397
   0.41615746  0.58231005  0.29864645
   0.24997829  0.75027909  0.41916804
   0.24999844  0.50000154  0.05579229
   0.08333171  0.66666826  0.17752397
   0.41656907  0.83365652  0.29676610
   0.24873591  0.50167992  0.42590148
   0.49999844  0.50000154  0.05579229
   0.83333171  0.66666826  0.17752397
   0.66709232  0.83365652  0.29676610
   0.50294868  0.50167992  0.42590148
   0.49999843  0.75000151  0.05579229
   0.83333170  0.91666828  0.17752397
   0.66528789  0.58274108  0.29851833
   0.50066776  0.75133082  0.41581697
   0.74999841  0.75000151  0.05579229
   0.58333168  0.91666828  0.17752397
   0.91681226  0.58361965  0.29743809
   0.75030547  0.75027909  0.41916804
   0.74999839  0.50000154  0.05579229
   0.58333166  0.66666826  0.17752397
   0.91680733  0.83340150  0.29744137
   0.75037541  0.50044686  0.41915474
   0.58333110  0.41617662  0.47690930
 
 position of ions in cartesian coordinates  (Angst):
  10.55997578  0.00001422  1.11584590
   2.63997474  1.52421935  3.55047947
   0.00924549  3.05481019  5.97261418
  10.55983704  0.00017093  8.38471901
   9.23997574  2.28632132  1.11584590
   1.31997457  3.81052657  3.55047947
   1.32002541  0.77654402  5.97137747
   9.23083656  2.28450776  8.31634239
   1.31997542  2.28632132  1.11584590
  -1.32002553  3.81052657  3.55047947
   3.95995078  0.76035853  5.93540695
   1.32002469  2.26230245  8.52144271
   2.63997547  0.00001422  1.11584590
  -0.00002541  1.52421935  3.55047947
   2.63080531  3.05481019  5.97261418
   2.64021276  0.00017093  8.38471901
   5.27997557  0.00001422  1.11584590
   7.91997448  1.52421935  3.55047947
   5.28261243  3.05128036  5.93566267
   5.27907572  0.00160603  8.41050487
   3.95997540  2.28632132  1.11584590
   6.59997431  3.81052657  3.55047947
   6.60002598  0.76352699  5.97272689
   3.96921312  2.28450776  8.31634239
   6.59997527  2.28632132  1.11584590
   3.95997420  3.81052657  3.55047947
   9.24010069  0.76035853  5.93540695
   6.60002455  2.29090940  8.41214053
   7.91997543  0.00001422  1.11584590
   5.27997414  1.52421935  3.55047947
   7.91743903  3.05128036  5.93566267
   7.92097384  0.00160603  8.41050487
   7.91997567  4.57262842  1.11584590
  -0.00002559  6.09683366  3.55047947
  -2.64107463  7.62164727  5.94882736
  -2.64155626  4.57670097  8.38309476
   6.59997574  6.85893527  1.11584590
  -1.32002553  8.38314100  3.55047947
  -1.30851573  5.32930039  5.97036661
  -3.95997540  6.86131224  8.36646503
  -1.32002457  6.85893527  1.11584590
  -3.96002563  8.38314100  3.55047947
   1.32002577  5.32535854  5.97292906
  -1.32170294  6.86147378  8.38336070
  -0.00002464  4.57262842  1.11584590
  -2.64002570  6.09683366  3.55047947
  -0.00273706  7.62397946  5.93532196
  -0.02221877  4.58797761  8.51802966
   2.63997546  4.57262842  1.11584590
   5.27997462  6.09683366  3.55047947
   2.64278859  7.62397946  5.93532196
   2.66226813  4.58797761  8.51802966
   1.31997553  6.85893527  1.11584590
   3.95997444  8.38314100  3.55047947
   3.94856739  5.32930039  5.97036661
   1.32002481  6.87109215  8.31633948
   3.95997540  6.85893527  1.11584590
   1.31997410  8.38314100  3.55047947
   6.60002598  5.33733514  5.94876182
   3.96175232  6.86147378  8.38336070
   5.27997509  4.57262842  1.11584590
   2.63997404  6.09683366  3.55047947
   5.28112569  7.62164727  5.94882736
   5.28160516  4.57670097  8.38309476
   3.96256402  3.80603036  9.53818590
 


--------------------------------------------------------------------------------------------------------


 k-point  1 :   0.0000 0.0000 0.0000  plane waves:   56579
 k-point  2 :   0.5000-0.0000 0.0000  plane waves:   56606
 k-point  3 :   0.0000 0.5000 0.0000  plane waves:   56606
 k-point  4 :   0.5000 0.5000 0.0000  plane waves:   56606

 maximum and minimum number of plane-waves per node :     14185    14108

 maximum number of plane-waves:     56606
 maximum index in each direction: 
   IXMAX=   20   IYMAX=   20   IZMAX=   38
   IXMIN=  -20   IYMIN=  -20   IZMIN=  -38


 real space projection operators:
  total allocation   :      71204.26 KBytes
  max/ min on nodes  :      17806.24      17790.91


 parallel 3D FFT for wavefunctions:
    minimum data exchange during FFTs selected (reduces bandwidth)
 parallel 3D FFT for charge:
    minimum data exchange during FFTs selected (reduces bandwidth)


 total amount of memory used by VASP MPI-rank0   200598. kBytes
=======================================================================

   base      :      30000. kBytes
   nonlr-proj:      30940. kBytes
   fftplans  :      17093. kBytes
   grid      :      44247. kBytes
   one-center:        528. kBytes
   wavefun   :      77790. kBytes
 
     INWAV:  cpu time    0.0000: real time    0.0000
 Broyden mixing: mesh for mixing (old mesh)
   NGX = 41   NGY = 41   NGZ = 77
  (NGX  =168   NGY  =168   NGZ  =320)
  gives a total of 129437 points

 initial charge density was supplied:
 charge density of overlapping atoms calculated
 number of electron     641.0000000 magnetization      65.0000000
 keeping initial charge density in first step


--------------------------------------------------------------------------------------------------------


 Maximum index for non-local projection operator         2013
 Maximum index for augmentation-charges         2183 (set IRDMAX)


--------------------------------------------------------------------------------------------------------


 First call to EWALD:  gamma=   0.142
 Maximum number of real-space cells 4x 4x 2
 Maximum number of reciprocal cells 2x 2x 4

    FEWALD:  cpu time    0.0032: real time    0.0032


--------------------------------------- Iteration      1(   1)  ---------------------------------------


    POTLOK:  cpu time    0.3673: real time    0.4261
    SETDIJ:  cpu time    0.0323: real time    0.0325
     EDDAV:  cpu time   39.9613: real time   40.1805
       DOS:  cpu time    0.0026: real time    0.0027
    --------------------------------------------
      LOOP:  cpu time   40.3635: real time   40.6418

 eigenvalue-minimisations  :  6720
 total energy-change (2. order) : 0.4501111E+04  (-0.3118159E+05)
 number of electron     641.0000000 magnetization      65.0000000
 augmentation part      641.0000000 magnetization      65.0000000

 Free energy of the ion-electron system (eV)
  ---------------------------------------------------
  alpha Z        PSCENC =      2019.82280658
  Ewald energy   TEWEN  =    125284.74704988
  -Hartree energ DENC   =   -176370.42443094
  -exchange      EXHF   =         0.00000000
  -V(xc)+E(xc)   XCENC  =       244.95185175
  PAW double counting   =     44548.75599742   -42738.90423410
  entropy T*S    EENTRO =        -0.00612730
  eigenvalues    EBANDS =      4836.28502168
  atomic energy  EATOM  =     46675.88275157
  Solvation  Ediel_sol  =         0.00000000
  ---------------------------------------------------
  free energy    TOTEN  =      4501.11068654 eV

  energy without entropy =     4501.11681384  energy(sigma->0) =     4501.11272898


--------------------------------------------------------------------------------------------------------




--------------------------------------- Iteration      1(   2)  ---------------------------------------


     EDDAV:  cpu time   43.5617: real time   43.6779
       DOS:  cpu time    0.0014: real time    0.0014
    --------------------------------------------
      LOOP:  cpu time   43.5632: real time   43.6794

 eigenvalue-minimisations  :  7550
 total energy-change (2. order) :-0.4637695E+04  (-0.4249568E+04)
 number of electron     641.0000000 magnetization      65.0000000
 augmentation part      641.0000000 magnetization      65.0000000

 Free energy of the ion-electron system (eV)
  ---------------------------------------------------
  alpha Z        PSCENC =      2019.82280658
  Ewald energy   TEWEN  =    125284.74704988
  -Hartree energ DENC   =   -176370.42443094
  -exchange      EXHF   =         0.00000000
  -V(xc)+E(xc)   XCENC  =       244.95185175
  PAW double counting   =     44548.75599742   -42738.90423410
  entropy T*S    EENTRO =         0.00382185
  eigenvalues    EBANDS =       198.57965679
  atomic energy  EATOM  =     46675.88275157
  Solvation  Ediel_sol  =         0.00000000
  ---------------------------------------------------
  free energy    TOTEN  =      -136.58472920 eV

  energy without entropy =     -136.58855105  energy(sigma->0) =     -136.58600315


--------------------------------------------------------------------------------------------------------




--------------------------------------- Iteration      1(   3)  ---------------------------------------


     EDDAV:  cpu time   44.2613: real time   44.3779
       DOS:  cpu time    0.0016: real time    0.0016
    --------------------------------------------
      LOOP:  cpu time   44.2629: real time   44.3794

 eigenvalue-minimisations  :  7640
 total energy-change (2. order) :-0.2455708E+03  (-0.2273674E+03)
 number of electron     641.0000000 magnetization      65.0000000
 augmentation part      641.0000000 magnetization      65.0000000

 Free energy of the ion-electron system (eV)
  ---------------------------------------------------
  alpha Z        PSCENC =      2019.82280658
  Ewald energy   TEWEN  =    125284.74704988
  -Hartree energ DENC   =   -176370.42443094
  -exchange      EXHF   =         0.00000000
  -V(xc)+E(xc)   XCENC  =       244.95185175
  PAW double counting   =     44548.75599742   -42738.90423410
  entropy T*S    EENTRO =         0.01801468
  eigenvalues    EBANDS =       -47.00535409
  atomic energy  EATOM  =     46675.88275157
  Solvation  Ediel_sol  =         0.00000000
  ---------------------------------------------------
  free energy    TOTEN  =      -382.15554725 eV

  energy without entropy =     -382.17356193  energy(sigma->0) =     -382.16155214


--------------------------------------------------------------------------------------------------------




--------------------------------------- Iteration      1(   4)  ---------------------------------------


     EDDAV:  cpu time   46.0325: real time   46.1418
       DOS:  cpu time    0.0016: real time    0.0016
    --------------------------------------------
      LOOP:  cpu time   46.0341: real time   46.1434

 eigenvalue-minimisations  :  8000
 total energy-change (2. order) :-0.6394637E+01  (-0.6335631E+01)
 number of electron     641.0000000 magnetization      65.0000000
 augmentation part      641.0000000 magnetization      65.0000000

 Free energy of the ion-electron system (eV)
  ---------------------------------------------------
  alpha Z        PSCENC =      2019.82280658
  Ewald energy   TEWEN  =    125284.74704988
  -Hartree energ DENC   =   -176370.42443094
  -exchange      EXHF   =         0.00000000
  -V(xc)+E(xc)   XCENC  =       244.95185175
  PAW double counting   =     44548.75599742   -42738.90423410
  entropy T*S    EENTRO =         0.01253753
  eigenvalues    EBANDS =       -53.39451414
  atomic energy  EATOM  =     46675.88275157
  Solvation  Ediel_sol  =         0.00000000
  ---------------------------------------------------
  free energy    TOTEN  =      -388.55018444 eV

  energy without entropy =     -388.56272198  energy(sigma->0) =     -388.55436362


--------------------------------------------------------------------------------------------------------




--------------------------------------- Iteration      1(   5)  ---------------------------------------


     EDDAV:  cpu time   45.9178: real time   46.0269
       DOS:  cpu time    0.0017: real time    0.0016
    CHARGE:  cpu time    3.0018: real time    3.0090
    MIXING:  cpu time    0.0085: real time    0.0091
    --------------------------------------------
      LOOP:  cpu time   48.9298: real time   49.0468

 eigenvalue-minimisations  :  7880
 total energy-change (2. order) :-0.2124901E+00  (-0.2119215E+00)
 number of electron     641.0000089 magnetization      58.7662416
 augmentation part      185.7201810 magnetization      46.9908046

 Broyden mixing:
  rms(total) = 0.10525E+02    rms(broyden)= 0.10525E+02
  rms(prec ) = 0.10630E+02
  weight for this iteration     100.00

 Free energy of the ion-electron system (eV)
  ---------------------------------------------------
  alpha Z        PSCENC =      2019.82280658
  Ewald energy   TEWEN  =    125284.74704988
  -Hartree energ DENC   =   -176370.42443094
  -exchange      EXHF   =         0.00000000
  -V(xc)+E(xc)   XCENC  =       244.95185175
  PAW double counting   =     44548.75599742   -42738.90423410
  entropy T*S    EENTRO =         0.01328453
  eigenvalues    EBANDS =       -53.60775126
  atomic energy  EATOM  =     46675.88275157
  Solvation  Ediel_sol  =         0.00000000
  ---------------------------------------------------
  free energy    TOTEN  =      -388.76267458 eV

  energy without entropy =     -388.77595910  energy(sigma->0) =     -388.76710275


--------------------------------------------------------------------------------------------------------




--------------------------------------- Iteration      1(   6)  ---------------------------------------


    POTLOK:  cpu time    0.3646: real time    0.3663
    SETDIJ:  cpu time    0.0314: real time    0.0315
    EDDIAG:  cpu time    7.2307: real time    7.2483
  RMM-DIIS:  cpu time   26.3961: real time   26.4586
    ORTHCH:  cpu time    0.6649: real time    0.6665
       DOS:  cpu time    0.0018: real time    0.0018
    CHARGE:  cpu time    2.9703: real time    2.9773
    MIXING:  cpu time    0.0088: real time    0.0102
    --------------------------------------------
      LOOP:  cpu time   37.6686: real time   37.7604

 eigenvalue-minimisations  :  6765
 total energy-change (2. order) : 0.2661807E+02  (-0.6369365E+01)
 number of electron     641.0000096 magnetization      51.3238726
 augmentation part      195.1987332 magnetization      38.1944940

 Broyden mixing:
  rms(total) = 0.68228E+01    rms(broyden)= 0.68228E+01
  rms(prec ) = 0.71344E+01
  weight for this iteration     100.00

 eigenvalues of (default mixing * dielectric matrix)
  average eigenvalue GAMMA=   1.2570
  1.2570

 Free energy of the ion-electron system (eV)
  ---------------------------------------------------
  alpha Z        PSCENC =      2019.82280658
  Ewald energy   TEWEN  =    125284.74704988
  -Hartree energ DENC   =   -175685.82677476
  -exchange      EXHF   =         0.00000000
  -V(xc)+E(xc)   XCENC  =       234.72792432
  PAW double counting   =     50865.29700687   -49162.75148532
  entropy T*S    EENTRO =        -0.05081322
  eigenvalues    EBANDS =      -593.99306827
  atomic energy  EATOM  =     46675.88275157
  Solvation  Ediel_sol  =         0.00000000
  ---------------------------------------------------
  free energy    TOTEN  =      -362.14460234 eV

  energy without entropy =     -362.09378913  energy(sigma->0) =     -362.12766460


--------------------------------------------------------------------------------------------------------




--------------------------------------- Iteration      1(   7)  ---------------------------------------


    POTLOK:  cpu time    0.3640: real time    0.3649
    SETDIJ:  cpu time    0.0313: real time    0.0314
    EDDIAG:  cpu time    7.2877: real time    7.3067
  RMM-DIIS:  cpu time   25.5979: real time   25.6661
    ORTHCH:  cpu time    0.6552: real time    0.6568
       DOS:  cpu time    0.0018: real time    0.0018
    CHARGE:  cpu time    3.0205: real time    3.0286
    MIXING:  cpu time    0.0099: real time    0.0099
    --------------------------------------------
      LOOP:  cpu time   36.9684: real time   37.0661

 eigenvalue-minimisations  :  6724
 total energy-change (2. order) :-0.1119049E+03  (-0.1285694E+02)
 number of electron     641.0000098 magnetization      45.4684368
 augmentation part      192.4788393 magnetization      34.0925165

 Broyden mixing:
  rms(total) = 0.97519E+01    rms(broyden)= 0.97519E+01
  rms(prec ) = 0.12061E+02
  weight for this iteration     100.00

 eigenvalues of (default mixing * dielectric matrix)
  average eigenvalue GAMMA=   1.0450
  1.7660  0.3241

 Free energy of the ion-electron system (eV)
  ---------------------------------------------------
  alpha Z        PSCENC =      2019.82280658
  Ewald energy   TEWEN  =    125284.74704988
  -Hartree energ DENC   =   -176242.99049608
  -exchange      EXHF   =         0.00000000
  -V(xc)+E(xc)   XCENC  =       228.71578878
  PAW double counting   =     56362.55725081   -54720.48763336
  entropy T*S    EENTRO =         0.00565515
  eigenvalues    EBANDS =       -82.30264297
  atomic energy  EATOM  =     46675.88275157
  Solvation  Ediel_sol  =         0.00000000
  ---------------------------------------------------
  free energy    TOTEN  =      -474.04946964 eV

  energy without entropy =     -474.05512479  energy(sigma->0) =     -474.05135469


--------------------------------------------------------------------------------------------------------




--------------------------------------- Iteration      1(   8)  ---------------------------------------


    POTLOK:  cpu time    0.3626: real time    0.3637
    SETDIJ:  cpu time    0.0313: real time    0.0314
    EDDIAG:  cpu time    7.1110: real time    7.1301
  RMM-DIIS:  cpu time   25.6182: real time   25.6868
    ORTHCH:  cpu time    0.6551: real time    0.6567
       DOS:  cpu time    0.0017: real time    0.0017
    CHARGE:  cpu time    2.9561: real time    2.9639
    MIXING:  cpu time    0.0102: real time    0.0102
    --------------------------------------------
      LOOP:  cpu time   36.7463: real time   36.8446

 eigenvalue-minimisations  :  6747
 total energy-change (2. order) : 0.1112273E+03  (-0.4960978E+01)
 number of electron     641.0000099 magnetization      43.1739782
 augmentation part      198.3244251 magnetization      31.4749649

 Broyden mixing:
  rms(total) = 0.38701E+01    rms(broyden)= 0.38701E+01
  rms(prec ) = 0.47166E+01
  weight for this iteration     100.00

 eigenvalues of (default mixing * dielectric matrix)
  average eigenvalue GAMMA=   0.9764
  2.0755  0.5222  0.3315

 Free energy of the ion-electron system (eV)
  ---------------------------------------------------
  alpha Z        PSCENC =      2019.82280658
  Ewald energy   TEWEN  =    125284.74704988
  -Hartree energ DENC   =   -175728.43570623
  -exchange      EXHF   =         0.00000000
  -V(xc)+E(xc)   XCENC  =       230.74231362
  PAW double counting   =     59962.16726683   -58363.80651579
  entropy T*S    EENTRO =        -0.05366554
  eigenvalues    EBANDS =      -443.88843571
  atomic energy  EATOM  =     46675.88275157
  Solvation  Ediel_sol  =         0.00000000
  ---------------------------------------------------
  free energy    TOTEN  =      -362.82213478 eV

  energy without entropy =     -362.76846924  energy(sigma->0) =     -362.80424627


--------------------------------------------------------------------------------------------------------




--------------------------------------- Iteration      1(   9)  ---------------------------------------


    POTLOK:  cpu time    0.3622: real time    0.3634
    SETDIJ:  cpu time    0.0317: real time    0.0317
    EDDIAG:  cpu time    7.1189: real time    7.1379
  RMM-DIIS:  cpu time   25.4954: real time   25.5632
    ORTHCH:  cpu time    0.6542: real time    0.6561
       DOS:  cpu time    0.0017: real time    0.0017
    CHARGE:  cpu time    2.9401: real time    2.9480
    MIXING:  cpu time    0.0106: real time    0.0106
    --------------------------------------------
      LOOP:  cpu time   36.6148: real time   36.7126

 eigenvalue-minimisations  :  6737
 total energy-change (2. order) :-0.1848291E+02  (-0.2960624E+01)
 number of electron     641.0000096 magnetization      40.8863249
 augmentation part      198.0713726 magnetization      33.6933543

 Broyden mixing:
  rms(total) = 0.52862E+01    rms(broyden)= 0.52862E+01
  rms(prec ) = 0.79505E+01
  weight for this iteration     100.00

 eigenvalues of (default mixing * dielectric matrix)
  average eigenvalue GAMMA=   0.8543
  2.2298  0.6860  0.3287  0.1727

 Free energy of the ion-electron system (eV)
  ---------------------------------------------------
  alpha Z        PSCENC =      2019.82280658
  Ewald energy   TEWEN  =    125284.74704988
  -Hartree energ DENC   =   -175676.37368318
  -exchange      EXHF   =         0.00000000
  -V(xc)+E(xc)   XCENC  =       230.13601964
  PAW double counting   =     60445.47784427   -58849.57834402
  entropy T*S    EENTRO =         0.00934955
  eigenvalues    EBANDS =      -511.42883795
  atomic energy  EATOM  =     46675.88275157
  Solvation  Ediel_sol  =         0.00000000
  ---------------------------------------------------
  free energy    TOTEN  =      -381.30504366 eV

  energy without entropy =     -381.31439320  energy(sigma->0) =     -381.30816017


--------------------------------------------------------------------------------------------------------




--------------------------------------- Iteration      1(  10)  ---------------------------------------


    POTLOK:  cpu time    0.3625: real time    0.3633
    SETDIJ:  cpu time    0.0318: real time    0.0318
    EDDIAG:  cpu time    7.1205: real time    7.1397
  RMM-DIIS:  cpu time   25.6607: real time   25.7291
    ORTHCH:  cpu time    0.6573: real time    0.6591
       DOS:  cpu time    0.0017: real time    0.0017
    CHARGE:  cpu time    2.9473: real time    2.9552
    MIXING:  cpu time    0.0101: real time    0.0101
    --------------------------------------------
      LOOP:  cpu time   36.7918: real time   36.8901

 eigenvalue-minimisations  :  6753
 total energy-change (2. order) : 0.1574923E+02  (-0.1005893E+01)
 number of electron     641.0000098 magnetization      38.5958466
 augmentation part      197.6300744 magnetization      29.9320628

 Broyden mixing:
  rms(total) = 0.36691E+01    rms(broyden)= 0.36691E+01
  rms(prec ) = 0.46941E+01
  weight for this iteration     100.00

 eigenvalues of (default mixing * dielectric matrix)
  average eigenvalue GAMMA=   0.7509
  2.2825  0.7539  0.2935  0.2935  0.1312

 Free energy of the ion-electron system (eV)
  ---------------------------------------------------
  alpha Z        PSCENC =      2019.82280658
  Ewald energy   TEWEN  =    125284.74704988
  -Hartree energ DENC   =   -175738.62992934
  -exchange      EXHF   =         0.00000000
  -V(xc)+E(xc)   XCENC  =       229.77105281
  PAW double counting   =     60783.62256888   -59188.75121400
  entropy T*S    EENTRO =         0.01672067
  eigenvalues    EBANDS =      -432.03761864
  atomic energy  EATOM  =     46675.88275157
  Solvation  Ediel_sol  =         0.00000000
  ---------------------------------------------------
  free energy    TOTEN  =      -365.55581160 eV

  energy without entropy =     -365.57253227  energy(sigma->0) =     -365.56138515


--------------------------------------------------------------------------------------------------------




--------------------------------------- Iteration      1(  11)  ---------------------------------------


    POTLOK:  cpu time    0.3641: real time    0.3649
    SETDIJ:  cpu time    0.0314: real time    0.0315
    EDDIAG:  cpu time    7.1259: real time    7.1450
  RMM-DIIS:  cpu time   25.5845: real time   25.6529
    ORTHCH:  cpu time    0.6586: real time    0.6605
       DOS:  cpu time    0.0017: real time    0.0018
    CHARGE:  cpu time    2.9898: real time    2.9977
    MIXING:  cpu time    0.0112: real time    0.0112
    --------------------------------------------
      LOOP:  cpu time   36.7672: real time   36.8655

 eigenvalue-minimisations  :  6743
 total energy-change (2. order) : 0.1110073E+02  (-0.4594874E+00)
 number of electron     641.0000095 magnetization      36.9803203
 augmentation part      197.6445363 magnetization      27.3066299

 Broyden mixing:
  rms(total) = 0.16054E+01    rms(broyden)= 0.16054E+01
  rms(prec ) = 0.17841E+01
  weight for this iteration     100.00

 eigenvalues of (default mixing * dielectric matrix)
  average eigenvalue GAMMA=   0.7084
  2.2091  0.6398  0.6398  0.3194  0.3194  0.1227

 Free energy of the ion-electron system (eV)
  ---------------------------------------------------
  alpha Z        PSCENC =      2019.82280658
  Ewald energy   TEWEN  =    125284.74704988
  -Hartree energ DENC   =   -175740.24097982
  -exchange      EXHF   =         0.00000000
  -V(xc)+E(xc)   XCENC  =       229.42031024
  PAW double counting   =     61003.58993914   -59410.13866013
  entropy T*S    EENTRO =        -0.01261381
  eigenvalues    EBANDS =      -417.52568138
  atomic energy  EATOM  =     46675.88275157
  Solvation  Ediel_sol  =         0.00000000
  ---------------------------------------------------
  free energy    TOTEN  =      -354.45507772 eV

  energy without entropy =     -354.44246391  energy(sigma->0) =     -354.45087312


--------------------------------------------------------------------------------------------------------




--------------------------------------- Iteration      1(  12)  ---------------------------------------


    POTLOK:  cpu time    0.4388: real time    0.4398
    SETDIJ:  cpu time    0.0429: real time    0.0430
    EDDIAG:  cpu time    7.1300: real time    7.1490
  RMM-DIIS:  cpu time   25.6305: real time   25.6990
    ORTHCH:  cpu time    0.6562: real time    0.6581
       DOS:  cpu time    0.0017: real time    0.0017
    CHARGE:  cpu time    2.9309: real time    2.9387
    MIXING:  cpu time    0.0107: real time    0.0107
    --------------------------------------------
      LOOP:  cpu time   36.8417: real time   36.9401

 eigenvalue-minimisations  :  6760
 total energy-change (2. order) :-0.1052287E+01  (-0.1553842E+00)
 number of electron     641.0000095 magnetization      35.4136419
 augmentation part      197.5472241 magnetization      25.5524369

 Broyden mixing:
  rms(total) = 0.11738E+01    rms(broyden)= 0.11738E+01
  rms(prec ) = 0.12660E+01
  weight for this iteration     100.00

 eigenvalues of (default mixing * dielectric matrix)
  average eigenvalue GAMMA=   0.6900
  2.2072  0.6415  0.6415  0.6048  0.3061  0.3061  0.1229

 Free energy of the ion-electron system (eV)
  ---------------------------------------------------
  alpha Z        PSCENC =      2019.82280658
  Ewald energy   TEWEN  =    125284.74704988
  -Hartree energ DENC   =   -175736.58341253
  -exchange      EXHF   =         0.00000000
  -V(xc)+E(xc)   XCENC  =       228.75070801
  PAW double counting   =     60771.37614985   -59175.89611792
  entropy T*S    EENTRO =         0.01894705
  eigenvalues    EBANDS =      -423.62624696
  atomic energy  EATOM  =     46675.88275157
  Solvation  Ediel_sol  =         0.00000000
  ---------------------------------------------------
  free energy    TOTEN  =      -355.50736446 eV

  energy without entropy =     -355.52631150  energy(sigma->0) =     -355.51368014


--------------------------------------------------------------------------------------------------------




--------------------------------------- Iteration      1(  13)  ---------------------------------------


    POTLOK:  cpu time    0.3689: real time    0.3698
    SETDIJ:  cpu time    0.0324: real time    0.0325
    EDDIAG:  cpu time    7.1205: real time    7.1394
  RMM-DIIS:  cpu time   25.6830: real time   25.7518
    ORTHCH:  cpu time    0.6556: real time    0.6575
       DOS:  cpu time    0.0018: real time    0.0018
    CHARGE:  cpu time    2.9180: real time    2.9257
    MIXING:  cpu time    0.0102: real time    0.0103
    --------------------------------------------
      LOOP:  cpu time   36.7904: real time   36.8888

 eigenvalue-minimisations  :  6764
 total energy-change (2. order) :-0.1161758E+01  (-0.7610043E-01)
 number of electron     641.0000095 magnetization      32.0615093
 augmentation part      197.4647275 magnetization      22.4560639

 Broyden mixing:
  rms(total) = 0.10599E+01    rms(broyden)= 0.10599E+01
  rms(prec ) = 0.11429E+01
  weight for this iteration     100.00

 eigenvalues of (default mixing * dielectric matrix)
  average eigenvalue GAMMA=   0.7048
  2.2225  0.7995  0.7995  0.8134  0.3142  0.3142  0.1232  0.2517

 Free energy of the ion-electron system (eV)
  ---------------------------------------------------
  alpha Z        PSCENC =      2019.82280658
  Ewald energy   TEWEN  =    125284.74704988
  -Hartree energ DENC   =   -175746.97633474
  -exchange      EXHF   =         0.00000000
  -V(xc)+E(xc)   XCENC  =       228.02773825
  PAW double counting   =     60767.15945995   -59171.72060023
  entropy T*S    EENTRO =         0.01870847
  eigenvalues    EBANDS =      -413.63070267
  atomic energy  EATOM  =     46675.88275157
  Solvation  Ediel_sol  =         0.00000000
  ---------------------------------------------------
  free energy    TOTEN  =      -356.66912294 eV

  energy without entropy =     -356.68783141  energy(sigma->0) =     -356.67535909


--------------------------------------------------------------------------------------------------------




--------------------------------------- Iteration      1(  14)  ---------------------------------------


    POTLOK:  cpu time    0.3640: real time    0.3649
    SETDIJ:  cpu time    0.0316: real time    0.0317
    EDDIAG:  cpu time    7.1183: real time    7.1374
  RMM-DIIS:  cpu time   25.6662: real time   25.7350
    ORTHCH:  cpu time    0.6562: real time    0.6581
       DOS:  cpu time    0.0017: real time    0.0018
    CHARGE:  cpu time    2.9117: real time    2.9192
    MIXING:  cpu time    0.0112: real time    0.0112
    --------------------------------------------
      LOOP:  cpu time   36.7610: real time   36.8591

 eigenvalue-minimisations  :  6755
 total energy-change (2. order) :-0.2284475E+01  (-0.8221928E-01)
 number of electron     641.0000095 magnetization      27.4349501
 augmentation part      197.3154885 magnetization      17.6823270

 Broyden mixing:
  rms(total) = 0.84260E+00    rms(broyden)= 0.84260E+00
  rms(prec ) = 0.91901E+00
  weight for this iteration     100.00

 eigenvalues of (default mixing * dielectric matrix)
  average eigenvalue GAMMA=   0.7479
  2.1884  1.1352  1.1352  0.7976  0.4908  0.3136  0.3136  0.1230  0.2338

 Free energy of the ion-electron system (eV)
  ---------------------------------------------------
  alpha Z        PSCENC =      2019.82280658
  Ewald energy   TEWEN  =    125284.74704988
  -Hartree energ DENC   =   -175763.06903521
  -exchange      EXHF   =         0.00000000
  -V(xc)+E(xc)   XCENC  =       226.62248079
  PAW double counting   =     60800.88091841   -59205.84976250
  entropy T*S    EENTRO =        -0.01585256
  eigenvalues    EBANDS =      -397.97495494
  atomic energy  EATOM  =     46675.88275157
  Solvation  Ediel_sol  =         0.00000000
  ---------------------------------------------------
  free energy    TOTEN  =      -358.95359798 eV

  energy without entropy =     -358.93774542  energy(sigma->0) =     -358.94831380


--------------------------------------------------------------------------------------------------------




--------------------------------------- Iteration      1(  15)  ---------------------------------------


    POTLOK:  cpu time    0.3638: real time    0.3649
    SETDIJ:  cpu time    0.0318: real time    0.0319
    EDDIAG:  cpu time    7.1375: real time    7.1566
  RMM-DIIS:  cpu time   25.6946: real time   25.7634
    ORTHCH:  cpu time    0.6573: real time    0.6588
       DOS:  cpu time    0.0017: real time    0.0017
    CHARGE:  cpu time    2.9099: real time    2.9178
    MIXING:  cpu time    0.0114: real time    0.0114
    --------------------------------------------
      LOOP:  cpu time   36.8079: real time   36.9064

 eigenvalue-minimisations  :  6751
 total energy-change (2. order) :-0.3980482E+01  (-0.1784362E+00)
 number of electron     641.0000096 magnetization      24.4682567
 augmentation part      197.1639274 magnetization      14.7926658

 Broyden mixing:
  rms(total) = 0.74343E+00    rms(broyden)= 0.74343E+00
  rms(prec ) = 0.84547E+00
  weight for this iteration     100.00

 eigenvalues of (default mixing * dielectric matrix)
  average eigenvalue GAMMA=   0.7572
  2.0182  2.0182  0.9754  0.5750  0.5750  0.4354  0.3129  0.3129  0.1231  0.2263

 Free energy of the ion-electron system (eV)
  ---------------------------------------------------
  alpha Z        PSCENC =      2019.82280658
  Ewald energy   TEWEN  =    125284.74704988
  -Hartree energ DENC   =   -175775.22117710
  -exchange      EXHF   =         0.00000000
  -V(xc)+E(xc)   XCENC  =       224.32356023
  PAW double counting   =     60729.63445340   -59134.06590549
  entropy T*S    EENTRO =        -0.01385772
  eigenvalues    EBANDS =      -388.04376171
  atomic energy  EATOM  =     46675.88275157
  Solvation  Ediel_sol  =         0.00000000
  ---------------------------------------------------
  free energy    TOTEN  =      -362.93408036 eV

  energy without entropy =     -362.92022265  energy(sigma->0) =     -362.92946112


--------------------------------------------------------------------------------------------------------




--------------------------------------- Iteration      1(  16)  ---------------------------------------


    POTLOK:  cpu time    0.3645: real time    0.3656
    SETDIJ:  cpu time    0.0316: real time    0.0317
    EDDIAG:  cpu time    7.1256: real time    7.1445
  RMM-DIIS:  cpu time   25.7479: real time   25.8166
    ORTHCH:  cpu time    0.7026: real time    0.7043
       DOS:  cpu time    0.0018: real time    0.0018
    CHARGE:  cpu time    2.9111: real time    2.9190
    MIXING:  cpu time    0.0112: real time    0.0112
    --------------------------------------------
      LOOP:  cpu time   36.8964: real time   36.9948

 eigenvalue-minimisations  :  6752
 total energy-change (2. order) :-0.2685326E+01  (-0.1305931E+00)
 number of electron     641.0000096 magnetization      22.5153404
 augmentation part      197.0851899 magnetization      13.6511893

 Broyden mixing:
  rms(total) = 0.45143E+00    rms(broyden)= 0.45143E+00
  rms(prec ) = 0.47788E+00
  weight for this iteration     100.00

 eigenvalues of (default mixing * dielectric matrix)
  average eigenvalue GAMMA=   0.8080
  2.3558  2.3558  0.8226  0.8226  0.6306  0.6306  0.1231  0.3139  0.3139  0.2923
  0.2263

 Free energy of the ion-electron system (eV)
  ---------------------------------------------------
  alpha Z        PSCENC =      2019.82280658
  Ewald energy   TEWEN  =    125284.74704988
  -Hartree energ DENC   =   -175771.72573770
  -exchange      EXHF   =         0.00000000
  -V(xc)+E(xc)   XCENC  =       222.58500433
  PAW double counting   =     60613.80919772   -59017.23528097
  entropy T*S    EENTRO =        -0.01233012
  eigenvalues    EBANDS =      -393.49286731
  atomic energy  EATOM  =     46675.88275157
  Solvation  Ediel_sol  =         0.00000000
  ---------------------------------------------------
  free energy    TOTEN  =      -365.61940601 eV

  energy without entropy =     -365.60707589  energy(sigma->0) =     -365.61529597


--------------------------------------------------------------------------------------------------------




--------------------------------------- Iteration      1(  17)  ---------------------------------------


    POTLOK:  cpu time    0.3636: real time    0.3647
    SETDIJ:  cpu time    0.0314: real time    0.0315
    EDDIAG:  cpu time    7.1221: real time    7.1413
  RMM-DIIS:  cpu time   25.7023: real time   25.7710
    ORTHCH:  cpu time    0.6591: real time    0.6607
       DOS:  cpu time    0.0018: real time    0.0018
    CHARGE:  cpu time    2.9129: real time    2.9207
    MIXING:  cpu time    0.0126: real time    0.0126
    --------------------------------------------
      LOOP:  cpu time   36.8059: real time   36.9044

 eigenvalue-minimisations  :  6747
 total energy-change (2. order) :-0.1593129E+01  (-0.6744139E-01)
 number of electron     641.0000096 magnetization      21.2564960
 augmentation part      197.0576918 magnetization      12.7673390

 Broyden mixing:
  rms(total) = 0.40112E+00    rms(broyden)= 0.40112E+00
  rms(prec ) = 0.43844E+00
  weight for this iteration     100.00

 eigenvalues of (default mixing * dielectric matrix)
  average eigenvalue GAMMA=   0.8066
  2.4852  2.4852  0.8834  0.8834  0.6630  0.6630  0.1231  0.3244  0.3244  0.3503
  0.2684  0.2253

 Free energy of the ion-electron system (eV)
  ---------------------------------------------------
  alpha Z        PSCENC =      2019.82280658
  Ewald energy   TEWEN  =    125284.74704988
  -Hartree energ DENC   =   -175764.28613037
  -exchange      EXHF   =         0.00000000
  -V(xc)+E(xc)   XCENC  =       221.45273727
  PAW double counting   =     60575.96981304   -58979.14948836
  entropy T*S    EENTRO =         0.00173969
  eigenvalues    EBANDS =      -401.65381409
  atomic energy  EATOM  =     46675.88275157
  Solvation  Ediel_sol  =         0.00000000
  ---------------------------------------------------
  free energy    TOTEN  =      -367.21253479 eV

  energy without entropy =     -367.21427448  energy(sigma->0) =     -367.21311469


--------------------------------------------------------------------------------------------------------




--------------------------------------- Iteration      1(  18)  ---------------------------------------


    POTLOK:  cpu time    0.3642: real time    0.3653
    SETDIJ:  cpu time    0.0317: real time    0.0318
    EDDIAG:  cpu time    7.1167: real time    7.1356
  RMM-DIIS:  cpu time   25.7241: real time   25.7930
    ORTHCH:  cpu time    0.6562: real time    0.6577
       DOS:  cpu time    0.0017: real time    0.0017
    CHARGE:  cpu time    2.9208: real time    2.9285
    MIXING:  cpu time    0.0117: real time    0.0117
    --------------------------------------------
      LOOP:  cpu time   36.8271: real time   36.9254

 eigenvalue-minimisations  :  6745
 total energy-change (2. order) :-0.7860041E+00  (-0.2770004E-01)
 number of electron     641.0000096 magnetization      19.1088057
 augmentation part      197.0585967 magnetization      10.7546887

 Broyden mixing:
  rms(total) = 0.31742E+00    rms(broyden)= 0.31742E+00
  rms(prec ) = 0.34856E+00
  weight for this iteration     100.00

 eigenvalues of (default mixing * dielectric matrix)
  average eigenvalue GAMMA=   0.8791
  3.4514  2.2633  1.1055  1.1055  0.7318  0.6224  0.6224  0.1231  0.3151  0.3151
  0.3165  0.2347  0.2220

 Free energy of the ion-electron system (eV)
  ---------------------------------------------------
  alpha Z        PSCENC =      2019.82280658
  Ewald energy   TEWEN  =    125284.74704988
  -Hartree energ DENC   =   -175757.83725601
  -exchange      EXHF   =         0.00000000
  -V(xc)+E(xc)   XCENC  =       220.76253185
  PAW double counting   =     60586.06899598   -58989.46731054
  entropy T*S    EENTRO =         0.00004327
  eigenvalues    EBANDS =      -407.97815152
  atomic energy  EATOM  =     46675.88275157
  Solvation  Ediel_sol  =         0.00000000
  ---------------------------------------------------
  free energy    TOTEN  =      -367.99853894 eV

  energy without entropy =     -367.99858220  energy(sigma->0) =     -367.99855336


--------------------------------------------------------------------------------------------------------




--------------------------------------- Iteration      1(  19)  ---------------------------------------


    POTLOK:  cpu time    0.3629: real time    0.3640
    SETDIJ:  cpu time    0.0316: real time    0.0317
    EDDIAG:  cpu time    7.1216: real time    7.1407
  RMM-DIIS:  cpu time   25.7032: real time   25.7729
    ORTHCH:  cpu time    0.7286: real time    0.7303
       DOS:  cpu time    0.0018: real time    0.0018
    CHARGE:  cpu time    2.9537: real time    2.9626
    MIXING:  cpu time    0.0121: real time    0.0121
    --------------------------------------------
      LOOP:  cpu time   36.9156: real time   37.0161

 eigenvalue-minimisations  :  6737
 total energy-change (2. order) :-0.1035084E+01  (-0.4506432E-01)
 number of electron     641.0000096 magnetization      17.3033124
 augmentation part      197.1028455 magnetization       9.1623593

 Broyden mixing:
  rms(total) = 0.32179E+00    rms(broyden)= 0.32179E+00
  rms(prec ) = 0.36166E+00
  weight for this iteration     100.00

 eigenvalues of (default mixing * dielectric matrix)
  average eigenvalue GAMMA=   0.9119
  4.2165  2.2444  1.1995  1.1995  0.8384  0.6053  0.6053  0.1231  0.3582  0.3191
  0.3191  0.2929  0.2285  0.2170

 Free energy of the ion-electron system (eV)
  ---------------------------------------------------
  alpha Z        PSCENC =      2019.82280658
  Ewald energy   TEWEN  =    125284.74704988
  -Hartree energ DENC   =   -175741.76663451
  -exchange      EXHF   =         0.00000000
  -V(xc)+E(xc)   XCENC  =       219.78591618
  PAW double counting   =     60603.95947250   -59007.79928441
  entropy T*S    EENTRO =        -0.00511248
  eigenvalues    EBANDS =      -423.66058838
  atomic energy  EATOM  =     46675.88275157
  Solvation  Ediel_sol  =         0.00000000
  ---------------------------------------------------
  free energy    TOTEN  =      -369.03362307 eV

  energy without entropy =     -369.02851059  energy(sigma->0) =     -369.03191891


--------------------------------------------------------------------------------------------------------




--------------------------------------- Iteration      1(  20)  ---------------------------------------


    POTLOK:  cpu time    0.3655: real time    0.3665
    SETDIJ:  cpu time    0.0315: real time    0.0316
    EDDIAG:  cpu time    7.2258: real time    7.2454
  RMM-DIIS:  cpu time   25.8232: real time   25.8922
    ORTHCH:  cpu time    0.6560: real time    0.6576
       DOS:  cpu time    0.0017: real time    0.0017
    CHARGE:  cpu time    2.9294: real time    2.9373
    MIXING:  cpu time    0.0117: real time    0.0117
    --------------------------------------------
      LOOP:  cpu time   37.0449: real time   37.1441

 eigenvalue-minimisations  :  6750
 total energy-change (2. order) :-0.3506804E+00  (-0.2441305E-01)
 number of electron     641.0000096 magnetization      15.9304587
 augmentation part      197.1332108 magnetization       8.0958134

 Broyden mixing:
  rms(total) = 0.25686E+00    rms(broyden)= 0.25686E+00
  rms(prec ) = 0.28343E+00
  weight for this iteration     100.00

 eigenvalues of (default mixing * dielectric matrix)
  average eigenvalue GAMMA=   0.9880
  5.3299  2.2445  1.3582  1.3582  0.7064  0.7064  0.7616  0.5367  0.1231  0.3157
  0.3157  0.3437  0.2766  0.2291  0.2144

 Free energy of the ion-electron system (eV)
  ---------------------------------------------------
  alpha Z        PSCENC =      2019.82280658
  Ewald energy   TEWEN  =    125284.74704988
  -Hartree energ DENC   =   -175728.85955059
  -exchange      EXHF   =         0.00000000
  -V(xc)+E(xc)   XCENC  =       219.37229382
  PAW double counting   =     60596.66859495   -59000.58821380
  entropy T*S    EENTRO =        -0.02232119
  eigenvalues    EBANDS =      -436.40771467
  atomic energy  EATOM  =     46675.88275157
  Solvation  Ediel_sol  =         0.00000000
  ---------------------------------------------------
  free energy    TOTEN  =      -369.38430344 eV

  energy without entropy =     -369.36198225  energy(sigma->0) =     -369.37686304


--------------------------------------------------------------------------------------------------------




--------------------------------------- Iteration      1(  21)  ---------------------------------------


    POTLOK:  cpu time    0.3620: real time    0.3631
    SETDIJ:  cpu time    0.0316: real time    0.0317
    EDDIAG:  cpu time    7.1548: real time    7.1740
  RMM-DIIS:  cpu time   25.7758: real time   25.8450
    ORTHCH:  cpu time    0.6569: real time    0.6584
       DOS:  cpu time    0.0018: real time    0.0018
    CHARGE:  cpu time    2.9322: real time    2.9401
    MIXING:  cpu time    0.0130: real time    0.0131
    --------------------------------------------
      LOOP:  cpu time   36.9282: real time   37.0271

 eigenvalue-minimisations  :  6751
 total energy-change (2. order) :-0.1146358E+00  (-0.1159364E-01)
 number of electron     641.0000096 magnetization      15.4545964
 augmentation part      197.1449616 magnetization       8.0988328

 Broyden mixing:
  rms(total) = 0.17105E+00    rms(broyden)= 0.17105E+00
  rms(prec ) = 0.19204E+00
  weight for this iteration     100.00

 eigenvalues of (default mixing * dielectric matrix)
  average eigenvalue GAMMA=   0.9548
  5.4436  2.2290  1.4086  1.4086  0.7378  0.7378  0.6393  0.6393  0.1231  0.3185
  0.3185  0.3352  0.2908  0.2357  0.2189  0.1919

 Free energy of the ion-electron system (eV)
  ---------------------------------------------------
  alpha Z        PSCENC =      2019.82280658
  Ewald energy   TEWEN  =    125284.74704988
  -Hartree energ DENC   =   -175714.30615636
  -exchange      EXHF   =         0.00000000
  -V(xc)+E(xc)   XCENC  =       219.16305485
  PAW double counting   =     60586.04427473   -58989.77835721
  entropy T*S    EENTRO =        -0.01653454
  eigenvalues    EBANDS =      -451.05782875
  atomic energy  EATOM  =     46675.88275157
  Solvation  Ediel_sol  =         0.00000000
  ---------------------------------------------------
  free energy    TOTEN  =      -369.49893925 eV

  energy without entropy =     -369.48240471  energy(sigma->0) =     -369.49342773


--------------------------------------------------------------------------------------------------------




--------------------------------------- Iteration      1(  22)  ---------------------------------------


    POTLOK:  cpu time    0.3618: real time    0.3629
    SETDIJ:  cpu time    0.0315: real time    0.0316
    EDDIAG:  cpu time    7.1239: real time    7.1428
  RMM-DIIS:  cpu time   25.7727: real time   25.8416
[...]


------------------------ aborting loop because EDIFF is reached ----------------------------------------


    CHARGE:  cpu time    2.8994: real time    2.9063
    FORLOC:  cpu time    0.0683: real time    0.0685
    FORNL :  cpu time   11.5864: real time   11.6139
    STRESS:  cpu time   34.3905: real time   34.4741
    FORCOR:  cpu time    0.3886: real time    0.3898
    FORHAR:  cpu time    0.1010: real time    0.1013
    MIXING:  cpu time    0.0099: real time    0.0100
    OFIELD:  cpu time    0.0001: real time    0.0001

 ---------------------------------------------------------------------------------------------

         DFTD3 V3.0 Rev 1        
 Edisp (eV)  -38.73944

 E6    (eV) :   -14.2946
 E8    (eV) :   -24.4448
 % E8        : 63.10
    FORVDW:  cpu time    0.3158: real time    0.3180

  FORCE on cell =-STRESS in cart. coord.  units (eV):
  Direction    XX          YY          ZZ          XY          YZ          ZX
  --------------------------------------------------------------------------------------
  Alpha Z  2019.82281  2019.82281  2019.82281
  Ewald  162636.08029162627.56876************    -1.57408    -1.36499     0.43185
  Hartree173531.24031173527.97033************    -0.72058    -0.20298     0.10287
  E(xc)   -2859.09024 -2859.11154 -2884.75197    -0.00162    -0.00617     0.00293
  Local  ************************358287.72082     2.20108     1.12998    -0.42904
  n-local   576.10212   575.65908   315.46150    -0.06051    -0.12165     0.04305
  augment  3253.05794  3253.42459  3533.59144     0.02987     0.16569    -0.05215
  Kinetic  9157.60743  9158.57595  9752.40198     0.05915     0.44647    -0.11566
  Fock        0.00000     0.00000     0.00000     0.00000     0.00000     0.00000
  vdW       -53.61460   -53.59821   -28.86118     0.00666    -0.00139     0.00069
  -------------------------------------------------------------------------------------
  Total      82.05855    81.85035    -0.08763    -0.06003     0.04497    -0.01546
  in kB      68.06846    67.89575    -0.07269    -0.04979     0.03730    -0.01282
  external pressure =       45.30 kB  Pullay stress =        0.00 kB


 VOLUME and BASIS-vectors are now :
 -----------------------------------------------------------------------------
  energy-cutoff  :      550.00
  volume of cell :     1931.47
      direct lattice vectors                 reciprocal lattice vectors
    10.560000420  0.000000000  0.000000000     0.094696966  0.054673319  0.000000000
    -5.280000210  9.145228627  0.000000000     0.000000000  0.109346638  0.000000000
     0.000000000  0.000000000 20.000000000     0.000000000  0.000000000  0.050000000

  length of vectors
    10.560000420 10.560000420 20.000000000     0.109346638  0.109346638  0.050000000


 FORCES acting on ions
    electron-ion (+dipol)            ewald-force                    non-local-force                 convergence-correction
 -----------------------------------------------------------------------------------------------
   -.946E-01 0.427E-01 0.231E+04   0.731E-01 -.871E-02 -.231E+04   0.208E-02 -.254E-02 -.108E+00   0.739E-02 -.234E-01 -.645E-01
   -.190E+01 -.330E+01 0.780E+03   0.190E+01 0.329E+01 -.780E+03   -.600E-02 0.368E-01 -.309E+00   0.495E-01 -.299E-02 -.703E-01
   -.128E+01 -.183E+01 -.762E+03   0.129E+01 0.186E+01 0.762E+03   -.228E-01 -.382E-01 0.423E+00   0.218E-01 0.154E-01 0.580E-01
   -.393E+00 0.787E+00 -.232E+04   0.321E+00 -.729E+00 0.232E+04   0.517E-01 -.404E-01 0.129E+00   0.132E-01 -.222E-02 0.771E-01
   -.646E-01 -.211E+00 0.231E+04   0.830E-01 0.189E+00 -.231E+04   -.132E-03 -.352E-03 -.105E+00   -.198E-01 0.574E-02 -.718E-01
   -.373E+01 -.214E+01 0.779E+03   0.372E+01 0.218E+01 -.778E+03   0.238E-01 -.532E-02 -.302E+00   0.415E-01 0.158E-01 -.730E-01
   -.680E+00 0.160E+00 -.765E+03   0.687E+00 -.125E+00 0.765E+03   -.493E-01 -.266E-01 0.395E+00   0.344E-01 -.102E-01 0.394E-01
   0.373E+00 0.269E+00 -.231E+04   -.363E+00 -.336E+00 0.231E+04   -.133E-01 0.529E-01 0.101E+00   0.137E-04 0.142E-01 0.844E-01
   -.475E+00 -.445E+00 0.231E+04   0.471E+00 0.450E+00 -.231E+04   -.135E-02 0.189E-03 -.283E-01   0.283E-01 0.122E-02 -.678E-01
   -.360E+00 -.167E+01 0.784E+03   0.393E+00 0.165E+01 -.784E+03   -.183E-02 0.175E-01 -.487E+00   -.313E-01 0.199E-01 -.773E-01
   0.231E+00 -.180E+01 -.778E+03   -.264E+00 0.207E+01 0.778E+03   0.122E-01 -.281E+00 0.361E+00   0.254E-01 0.855E-02 0.152E-01
   0.401E+01 0.424E+01 -.227E+04   -.414E+01 -.429E+01 0.227E+04   0.135E+00 0.335E-01 0.447E-02   0.109E-01 0.382E-02 0.958E-01
   -.254E+00 -.272E+00 0.231E+04   0.218E+00 0.247E+00 -.231E+04   0.597E-02 0.512E-02 -.116E+00   0.252E-01 -.987E-02 -.550E-01
   0.244E+00 0.192E-02 0.783E+03   -.247E+00 0.131E-01 -.782E+03   -.224E-01 -.111E-01 -.364E+00   0.880E-02 -.172E-01 -.725E-01
   -.437E+01 -.535E+01 -.791E+03   0.445E+01 0.547E+01 0.791E+03   -.143E+00 -.137E+00 0.342E+00   0.439E-01 0.158E-01 0.730E-01
   0.370E+01 0.605E+01 -.230E+04   -.368E+01 -.599E+01 0.230E+04   -.428E-01 -.635E-01 0.937E-01   0.172E-01 0.875E-02 0.740E-01
   0.220E+00 -.150E+00 0.231E+04   -.208E+00 0.117E+00 -.231E+04   -.615E-02 0.204E-02 -.114E+00   -.720E-02 0.262E-02 -.481E-01
   -.758E+00 0.610E-01 0.783E+03   0.806E+00 -.546E-01 -.783E+03   0.260E-01 -.957E-02 -.359E+00   -.504E-01 -.443E-02 -.654E-01
   0.519E+01 -.429E+01 -.787E+03   -.532E+01 0.439E+01 0.786E+03   0.161E+00 -.112E+00 0.352E+00   -.321E-02 0.501E-02 0.385E-01
   -.307E+01 0.580E+01 -.230E+04   0.304E+01 -.574E+01 0.230E+04   0.359E-01 -.794E-01 0.970E-01   -.174E-01 0.149E-02 0.547E-01
   0.872E-01 -.442E+00 0.231E+04   -.109E+00 0.466E+00 -.231E+04   0.147E-02 -.108E-01 -.683E-01   0.199E-01 0.113E-02 -.426E-01
   0.314E+01 -.104E+01 0.780E+03   -.312E+01 0.109E+01 -.780E+03   -.166E-01 -.208E-01 -.328E+00   -.426E-01 0.381E-02 -.635E-01
   0.771E+00 0.402E+00 -.762E+03   -.774E+00 -.407E+00 0.762E+03   0.379E-01 -.834E-02 0.406E+00   -.324E-01 0.172E-01 0.499E-02
   -.495E+00 0.185E+02 -.231E+04   0.480E+00 -.194E+02 0.231E+04   0.104E-01 0.916E+00 -.217E+00   -.579E-02 0.160E-01 -.849E-02
   0.451E+00 -.308E+00 0.231E+04   -.444E+00 0.318E+00 -.231E+04   0.139E-02 -.203E-02 -.337E-01   -.283E-01 0.432E-02 -.478E-01
   0.923E+00 -.683E+00 0.778E+03   -.964E+00 0.692E+00 -.777E+03   -.232E-02 -.812E-05 -.417E+00   0.324E-01 0.208E-02 -.665E-01
   -.184E+00 0.217E+00 -.786E+03   0.216E+00 -.199E+00 0.786E+03   -.172E-01 -.375E-02 0.421E+00   -.252E-01 -.212E-01 0.319E-01
   -.389E+01 0.234E+01 -.227E+04   0.403E+01 -.243E+01 0.227E+04   -.136E+00 0.885E-01 0.262E-01   -.849E-02 0.221E-01 0.589E-01
   0.128E+00 0.146E+00 0.231E+04   -.831E-01 -.132E+00 -.231E+04   -.213E-02 0.301E-02 -.109E+00   -.254E-01 -.110E-01 -.575E-01
   0.238E+01 -.266E+01 0.781E+03   -.242E+01 0.265E+01 -.781E+03   0.585E-02 0.289E-01 -.329E+00   -.790E-02 0.110E-01 -.623E-01
   0.463E+00 -.126E+01 -.764E+03   -.416E+00 0.129E+01 0.764E+03   0.565E-02 -.373E-01 0.381E+00   -.624E-01 0.418E-02 0.365E-01
   -.321E+00 0.269E+00 -.231E+04   0.378E+00 -.220E+00 0.231E+04   -.296E-01 -.406E-01 0.115E+00   -.455E-02 -.162E-01 0.677E-01
   0.257E+00 -.123E+00 0.231E+04   -.211E+00 0.111E+00 -.231E+04   -.266E-02 0.904E-02 -.115E+00   -.223E-01 0.149E-01 -.584E-01
   -.254E+01 0.157E+01 0.779E+03   0.254E+01 -.160E+01 -.779E+03   0.183E-01 -.839E-02 -.332E+00   0.126E-02 0.304E-01 -.783E-01
   0.262E+00 -.296E+00 -.769E+03   -.256E+00 0.300E+00 0.768E+03   -.134E-01 -.261E-02 0.377E+00   0.394E-02 -.392E-02 0.227E-01
   -.699E+01 0.459E-01 -.230E+04   0.689E+01 -.399E-01 0.230E+04   0.115E+00 -.391E-02 0.912E-01   -.694E-02 -.673E-02 0.714E-01
   0.991E-01 0.401E+00 0.231E+04   -.771E-01 -.367E+00 -.231E+04   -.297E-02 -.438E-02 -.104E+00   0.493E-02 -.144E-01 -.520E-01
   -.312E+00 -.104E+01 0.781E+03   0.298E+00 0.101E+01 -.781E+03   0.777E-02 0.740E-02 -.383E+00   0.959E-02 0.156E-01 -.715E-01
   -.735E+00 0.558E+00 -.770E+03   0.768E+00 -.591E+00 0.769E+03   -.131E-01 0.111E-01 0.380E+00   -.150E-01 0.253E-01 0.393E-01
   -.319E+01 -.691E+01 -.229E+04   0.315E+01 0.683E+01 0.229E+04   0.380E-01 0.977E-01 0.825E-01   0.833E-02 -.121E-01 0.429E-01
   -.128E+00 0.118E+00 0.231E+04   0.123E+00 -.118E+00 -.231E+04   0.222E-02 -.653E-02 -.148E+00   -.216E-02 0.128E-01 -.595E-01
   -.128E+01 0.387E+00 0.785E+03   0.127E+01 -.359E+00 -.784E+03   0.239E-01 -.642E-02 -.494E+00   0.156E-01 -.270E-01 -.696E-01
   -.318E+01 0.244E+01 -.789E+03   0.343E+01 -.260E+01 0.789E+03   -.275E+00 0.140E+00 0.318E+00   0.228E-01 0.272E-02 0.536E-01
   0.786E+00 -.765E+00 -.230E+04   -.778E+00 0.753E+00 0.230E+04   -.130E-02 0.112E-01 0.800E-01   0.818E-02 -.178E-02 0.975E-01
   -.465E+00 -.167E+00 0.231E+04   0.448E+00 0.149E+00 -.231E+04   -.227E-02 0.535E-02 -.111E+00   -.453E-03 0.252E-01 -.714E-01
   0.108E+01 0.107E+01 0.781E+03   -.105E+01 -.107E+01 -.780E+03   -.753E-02 -.206E-02 -.360E+00   -.234E-01 0.671E-02 -.722E-01
   -.402E+00 0.308E+00 -.770E+03   0.431E+00 -.353E+00 0.770E+03   -.323E-01 0.290E-01 0.372E+00   -.740E-02 0.196E-01 0.272E-01
   0.916E+01 0.546E+00 -.230E+04   -.900E+01 -.537E+00 0.230E+04   -.170E+00 -.144E-01 0.690E-01   -.334E-02 0.116E-01 0.103E+00
   -.172E+00 0.899E-01 0.231E+04   0.168E+00 -.107E+00 -.231E+04   -.522E-02 0.366E-02 -.814E-01   0.241E-01 0.567E-02 -.512E-01
   0.156E+01 0.396E+01 0.780E+03   -.152E+01 -.398E+01 -.780E+03   -.324E-01 -.171E-01 -.306E+00   -.307E-02 -.267E-01 -.625E-01
   0.819E+00 0.146E+01 -.763E+03   -.845E+00 -.150E+01 0.762E+03   0.289E-01 0.585E-01 0.389E+00   0.773E-02 -.895E-02 0.274E-01
   0.165E+02 -.954E+01 -.233E+04   -.172E+02 0.990E+01 0.233E+04   0.627E+00 -.344E+00 -.413E+00   0.106E-01 -.108E-01 0.418E-01
   -.104E+00 0.519E+00 0.231E+04   0.855E-01 -.513E+00 -.231E+04   0.490E-04 -.174E-02 -.115E+00   -.470E-02 0.912E-02 -.563E-01
   0.416E+00 -.468E+00 0.783E+03   -.402E+00 0.497E+00 -.783E+03   -.829E-02 0.305E-01 -.382E+00   -.996E-02 -.339E-01 -.657E-01
   0.126E+01 0.715E+01 -.792E+03   -.131E+01 -.731E+01 0.792E+03   0.332E-01 0.201E+00 0.359E+00   0.232E-01 -.183E-01 0.390E-01
   0.345E+01 -.844E+01 -.230E+04   -.340E+01 0.831E+01 0.230E+04   -.422E-01 0.151E+00 0.662E-01   -.600E-02 -.833E-02 0.726E-01
   0.133E+00 0.662E+00 0.231E+04   -.132E+00 -.670E+00 -.231E+04   0.547E-03 0.150E-02 -.223E-01   0.193E-02 -.191E-01 -.490E-01
   0.115E+01 0.143E+01 0.784E+03   -.113E+01 -.145E+01 -.784E+03   -.195E-01 -.699E-02 -.495E+00   -.153E-01 0.952E-02 -.713E-01
   0.259E+01 0.168E+01 -.780E+03   -.283E+01 -.183E+01 0.780E+03   0.255E+00 0.155E+00 0.331E+00   -.284E-01 -.674E-02 0.142E-01
   -.101E+01 -.602E+01 -.226E+04   0.991E+00 0.614E+01 0.226E+04   0.217E-01 -.126E+00 0.168E-01   -.147E-01 -.533E-02 0.391E-01
   0.379E+00 0.130E+00 0.231E+04   -.404E+00 -.131E+00 -.231E+04   0.105E-01 0.196E-02 -.706E-01   -.134E-02 -.489E-02 -.386E-01
   -.108E+00 0.441E+01 0.779E+03   0.447E-01 -.446E+01 -.778E+03   0.230E-01 -.175E-01 -.288E+00   0.252E-01 -.263E-02 -.712E-01
   -.539E+00 0.682E+00 -.760E+03   0.534E+00 -.671E+00 0.760E+03   0.239E-02 0.363E-01 0.401E+00   -.141E-02 -.430E-01 0.157E-01
   -.178E+02 -.945E+01 -.232E+04   0.185E+02 0.983E+01 0.232E+04   -.639E+00 -.378E+00 -.401E+00   -.743E-02 -.184E-01 0.134E-02
   -.836E+00 0.183E+01 -.293E+03   0.868E+00 -.197E+01 0.295E+03   -.378E-01 0.137E+00 -.170E+01   -.889E-03 -.868E-03 -.582E-03
 -----------------------------------------------------------------------------------------------
   0.957E-01 -.397E+00 0.367E+01   0.234E-12 -.632E-12 0.108E-11   -.958E-01 0.403E+00 -.313E+01   0.500E-03 -.326E-02 -.495E+00
 
 
 POSITION                                       TOTAL-FORCE (eV/Angst)
 -----------------------------------------------------------------------------------
     10.55998      0.00001      1.11585        -0.012032      0.008073     -0.012932
      2.63997      1.52422      3.55048         0.041573      0.024771     -0.013062
     -0.00104      3.05195      5.93422         0.019354      0.005924      0.027232
     -0.00037      0.00001      8.40548        -0.006677      0.015886     -0.003799
      9.23998      2.28632      1.11585        -0.001574     -0.016488     -0.008869
      1.31997      3.81053      3.55048         0.055179      0.049978      0.042217
      1.32216      0.76148      5.93796        -0.003905      0.003048      0.009390
     -1.32078      2.28855      8.39912        -0.003502     -0.000884     -0.006920
      1.31998      2.28632      1.11585         0.022262      0.006254      0.011298
     -1.32003      3.81053      3.55048         0.000910      0.019706     -0.030381
      3.95994      0.77657      5.95785         0.003845     -0.005717      0.026062
      1.30878      2.28465      8.32492         0.017676     -0.009783     -0.005985
      2.63998      0.00001      1.11585        -0.004922     -0.030047     -0.011788
     -0.00003      1.52422      3.55048        -0.012823     -0.010611     -0.012064
      2.64871      3.05715      5.97243        -0.015151      0.003623     -0.000367
      2.63821      0.00067      8.38216        -0.004397      0.009802     -0.009867
      5.27998      0.00001      1.11585        -0.000976     -0.028558     -0.004686
      7.91997      1.52422      3.55048         0.019827     -0.005793     -0.005227
      5.27167      3.05545      5.96596         0.010719      0.001031      0.009663
      5.27916      0.00160      8.37505        -0.007047     -0.019935      0.009441
      3.95998      2.28632      1.11585        -0.000731      0.014117     -0.043181
      6.59997      3.81053      3.55048        -0.041582      0.032485      0.011953
      6.59989      0.76054      5.93396        -0.000688      0.007026      0.013246
      3.95865      2.26539      8.47677        -0.009605     -0.003321      0.048091
      6.59998      2.28632      1.11585        -0.020712      0.012770      0.014427
      3.95997      3.81053      3.55048        -0.011436      0.012071      0.245979
      9.24150      0.76275      5.96864        -0.009435     -0.006014     -0.009767
      6.60833      2.28189      8.32153        -0.007229      0.025326     -0.000902
      7.91998      0.00001      1.11585         0.017602      0.005607     -0.009114
      5.27997      1.52422      3.55048        -0.044716      0.021361     -0.027563
      7.92359      3.05156      5.93821        -0.015135     -0.003816     -0.000111
      7.91628      0.00089      8.39982         0.023457     -0.007839      0.002404
      7.91998      4.57263      1.11585         0.020613      0.011413     -0.002126
     -0.00003      6.09683      3.55048         0.011398     -0.005956     -0.016175
     -2.63713      7.62188      5.94647        -0.005703     -0.001467     -0.008587
     -2.64073      4.57387      8.38113         0.008438     -0.005124     -0.001094
      6.59998      6.85894      1.11585         0.023931      0.014800     -0.005417
     -1.32003      8.38314      3.55048         0.003448     -0.004596     -0.041371
     -1.31850      5.33584      5.94809         0.006272      0.001997     -0.006995
     -3.96146      6.86096      8.36313         0.004337      0.004968      0.017417
     -1.32002      6.85894      1.11585        -0.004999      0.005860     -0.043315
     -3.96003      8.38314      3.55048         0.022276     -0.005414     -0.038901
      1.33457      5.32808      5.97715        -0.002042     -0.018027      0.007441
     -1.32186      6.86016      8.35989         0.014114     -0.001690     -0.006544
     -0.00002      4.57263      1.11585        -0.020185      0.012083     -0.002871
     -2.64003      6.09683      3.55048         0.004632      0.000283     -0.047705
      0.00166      7.61947      5.94891        -0.010325      0.003911     -0.010862
     -0.00121      4.57357      8.38681        -0.008626      0.005700     -0.007952
      2.63998      4.57263      1.11585         0.014475     -0.007337     -0.062427
      5.27997      6.09683      3.55048         0.002981     -0.061152     -0.015463
      2.63665      7.62127      5.93515         0.012307      0.002238      0.006384
      2.61656      4.58640      8.54823        -0.008856      0.010365      0.020570
      1.31998      6.85894      1.11585        -0.022929      0.013378     -0.003486
      3.95997      8.38314      3.55048        -0.003467      0.021619     -0.025450
      3.95881      5.32283      5.97314         0.002563      0.006558      0.001023
      1.31768      6.86009      8.38605         0.004016      0.006134     -0.012294
      3.95998      6.85894      1.11585         0.003693     -0.025034      0.012401
      1.31997      8.38314      3.55048        -0.015926     -0.017150     -0.032934
      6.58808      5.32727      5.96211        -0.009205      0.001114      0.020951
      3.95738      6.86951      8.31467        -0.006392     -0.011927      0.019275
      5.27998      4.57263      1.11585        -0.015477     -0.003069     -0.056011
      2.63997      6.09683      3.55048        -0.017271     -0.069338      0.036553
      5.28215      7.62262      5.93054        -0.004920     -0.002401      0.014158
      5.30014      4.58695      8.51141         0.005487     -0.009121      0.039510
      3.96796      3.82963      9.54163        -0.006789     -0.003673     -0.002521
 -----------------------------------------------------------------------------------
    total drift:                                0.000393      0.001870      0.041870


--------------------------------------------------------------------------------------------------------



  FREE ENERGIE OF THE ION-ELECTRON SYSTEM (eV)
  ---------------------------------------------------
  free  energy   TOTEN  =      -408.86804218 eV

  energy  without entropy=     -408.83286827  energy(sigma->0) =     -408.85631755
 
 d Force = 0.1226371E-02[ 0.525E-03, 0.193E-02]  d Energy = 0.1267955E-02-0.416E-04
 d Force = 0.4112924E+01[ 0.412E+01, 0.411E+01]  d Ewald  = 0.4112922E+01 0.176E-05


--------------------------------------------------------------------------------------------------------


    POTLOK:  cpu time    0.3913: real time    0.3924


--------------------------------------------------------------------------------------------------------


 Conjugate gradient step on ions:
 trial-energy change:   -0.001268  1 .order   -0.001226   -0.001928   -0.000525
  (g-gl).g = 0.144E-02      g.g   = 0.141E-02  gl.gl    = 0.481E-02
 g(Force)  = 0.141E-02   g(Stress)= 0.000E+00 ortho     =-0.433E-04
 gamma     =   0.29889
 trial     =   1.38186
 opt step  =   1.80109  (harmonic =   1.89821) maximal distance =0.00951400
 next E    =  -408.868123   (d E  =  -0.00135)


--------------------------------------------------------------------------------------------------------


  
 reached required accuracy - stopping structural energy minimisation
     LOOP+:  cpu time  338.3519: real time  339.1646
    4ORBIT:  cpu time    0.0000: real time    0.0000

 total amount of memory used by VASP MPI-rank0   200598. kBytes
=======================================================================

   base      :      30000. kBytes
   nonlr-proj:      30940. kBytes
   fftplans  :      17093. kBytes
   grid      :      44247. kBytes
   one-center:        528. kBytes
   wavefun   :      77790. kBytes
 
  
  
 General timing and accounting informations for this job:
 ========================================================
  
                  Total CPU time used (sec):     9509.247
                            User time (sec):     9496.348
                          System time (sec):       12.899
                         Elapsed time (sec):     9536.535
  
                   Maximum memory used (kb):      754404.
                   Average memory used (kb):           0.
  
                          Minor page faults:      3400491
                          Major page faults:            0
                 Voluntary context switches:         4646
