 vasp.5.4.4.18Apr17-6-g9f103f2a35 (build Nov 30 2020 22:55:02) complex          
  
 executed on             LinuxIFC date 2023.08.04  09:58:24
 running on   40 total cores
 distrk:  each k-point on   40 cores,    1 groups
 distr:  one band on NCORES_PER_BAND=   1 cores,   40 groups


--------------------------------------------------------------------------------------------------------


 INCAR:
 POTCAR:    PAW_PBE Pt 04Feb2005                  
 POTCAR:    PAW_PBE H 15Jun2001                   

 ----------------------------------------------------------------------------- 
|                                                                             |
|           W    W    AA    RRRRR   N    N  II  N    N   GGGG   !!!           |
|           W    W   A  A   R    R  NN   N  II  NN   N  G    G  !!!           |
|           W    W  A    A  R    R  N N  N  II  N N  N  G       !!!           |
|           W WW W  AAAAAA  RRRRR   N  N N  II  N  N N  G  GGG   !            |
|           WW  WW  A    A  R   R   N   NN  II  N   NN  G    G                |
|           W    W  A    A  R    R  N    N  II  N    N   GGGG   !!!           |
|                                                                             |
|      For optimal performance we recommend to set                            |
|        NCORE= 4 - approx SQRT( number of cores)                             |
|      NCORE specifies how many cores store one orbital (NPAR=cpu/NCORE).     |
|      This setting can  greatly improve the performance of VASP for DFT.     |
|      The default,   NCORE=1            might be grossly inefficient         |
|      on modern multi-core architectures or massively parallel machines.     |
|      Do your own testing !!!!                                               |
|      Unfortunately you need to use the default for GW and RPA calculations. |
|      (for HF NCORE is supported but not extensively tested yet)             |
|                                                                             |
 ----------------------------------------------------------------------------- 

 POTCAR:    PAW_PBE Pt 04Feb2005                  
   VRHFIN =Pt: s1d9                                                             
   LEXCH  = PE                                                                  
   EATOM  =   729.1176 eV,   53.5886 Ry                                         
                                                                                
   TITEL  = PAW_PBE Pt 04Feb2005                                                
   LULTRA =        F    use ultrasoft PP ?                                      
   IUNSCR =        1    unscreen: 0-lin 1-nonlin 2-no                           
   RPACOR =    2.330    partial core radius                                     
   POMASS =  195.080; ZVAL   =   10.000    mass and valenz                      
   RCORE  =    2.600    outmost cutoff radius                                   
   RWIGS  =    2.750; RWIGS  =    1.455    wigner-seitz radius (au A)           
   ENMAX  =  230.283; ENMIN  =  172.712 eV                                      
   ICORE  =        3    local potential                                         
   LCOR   =        T    correct aug charges                                     
   LPAW   =        T    paw PP                                                  
   EAUG   =  358.966                                                            
   DEXC   =    0.000                                                            
   RMAX   =    2.658    core radius for proj-oper                               
   RAUG   =    1.300    factor for augmentation sphere                          
   RDEP   =    2.761    radius for radial grids                                 
   RDEPT  =    2.203    core radius for aug-charge                              
                                                                                
   Atomic configuration                                                         
   16 entries                                                                   
     n  l   j            E        occ.                                          
     1  0  0.50    -78401.1885   2.0000                                         
     2  0  0.50    -13770.7750   2.0000                                         
     2  1  1.50    -11931.0468   6.0000                                         
     3  0  0.50     -3234.7234   2.0000                                         
     3  1  1.50     -2699.2216   6.0000                                         
     3  2  2.50     -2119.5714  10.0000                                         
     4  0  0.50      -695.1528   2.0000                                         
     4  1  1.50      -519.6034   6.0000                                         
     4  2  2.50      -306.6786  10.0000                                         
     4  3  3.50       -70.1041  14.0000                                         
     5  0  0.50      -101.7747   2.0000                                         
     5  1  1.50       -55.9873   6.0000                                         
     5  2  2.50        -6.1423   9.0000                                         
     6  0  0.50        -5.6573   1.0000                                         
     6  1  1.50        -6.8029   0.0000                                         
     5  3  2.50        -1.3606   0.0000                                         
   Description                                                                  
     l       E           TYP  RCUT    TYP  RCUT                                 
     2     -6.1423404     23  2.500                                             
     2     -7.5029230     23  2.500                                             
     0     -5.6573207     23  2.500                                             
     0      0.7416693     23  2.500                                             
     1     -2.7211652     23  2.600                                             
     1     20.4087390     23  2.600                                             
     3     -1.3605826     23  2.500                                             
  local pseudopotential read in
  partial core-charges read in
  partial kinetic energy density read in
  atomic valenz-charges read in
  non local Contribution for L=           2  read in
    real space projection operators read in
  non local Contribution for L=           2  read in
    real space projection operators read in
  non local Contribution for L=           0  read in
    real space projection operators read in
  non local Contribution for L=           0  read in
    real space projection operators read in
  non local Contribution for L=           1  read in
    real space projection operators read in
  non local Contribution for L=           1  read in
    real space projection operators read in
    PAW grid and wavefunctions read in
 
   number of l-projection  operators is LMAX  =           6
   number of lm-projection operators is LMMAX =          18
 
 POTCAR:    PAW_PBE H 15Jun2001                   
   VRHFIN =H: ultrasoft test                                                    
   LEXCH  = PE                                                                  
   EATOM  =    12.4884 eV,    0.9179 Ry                                         
                                                                                
   TITEL  = PAW_PBE H 15Jun2001                                                 
   LULTRA =        F    use ultrasoft PP ?                                      
   IUNSCR =        0    unscreen: 0-lin 1-nonlin 2-no                           
   RPACOR =    0.000    partial core radius                                     
   POMASS =    1.000; ZVAL   =    1.000    mass and valenz                      
   RCORE  =    1.100    outmost cutoff radius                                   
   RWIGS  =    0.700; RWIGS  =    0.370    wigner-seitz radius (au A)           
   ENMAX  =  250.000; ENMIN  =  200.000 eV                                      
   RCLOC  =    0.701    cutoff for local pot                                    
   LCOR   =        T    correct aug charges                                     
   LPAW   =        T    paw PP                                                  
   EAUG   =  400.000                                                            
   RMAX   =    1.123    core radius for proj-oper                               
   RAUG   =    1.200    factor for augmentation sphere                          
   RDEP   =    1.112    radius for radial grids                                 
   RDEPT  =    0.926    core radius for aug-charge                              
                                                                                
   Atomic configuration                                                         
    2 entries                                                                   
     n  l   j            E        occ.                                          
     1  0  0.50        -6.4927   1.0000                                         
     2  1  0.50        -3.4015   0.0000                                         
   Description                                                                  
     l       E           TYP  RCUT    TYP  RCUT                                 
     0     -6.4927494     23  1.100                                             
     0      6.8029130     23  1.100                                             
     1     -4.0817478     23  1.100                                             
  local pseudopotential read in
  atomic valenz-charges read in
  non local Contribution for L=           0  read in
    real space projection operators read in
  non local Contribution for L=           0  read in
    real space projection operators read in
  non local Contribution for L=           1  read in
    real space projection operators read in
    PAW grid and wavefunctions read in
 
   number of l-projection  operators is LMAX  =           3
   number of lm-projection operators is LMMAX =           5
 
 Optimization of the real space projectors (new method)

 maximal supplied QI-value         = 14.36
 optimisation between [QCUT,QGAM] = [ 11.92, 23.98] = [ 39.79,161.09] Ry 
 Optimized for a Real-space Cutoff    1.49 Angstroem

   l    n(q)    QCUT    max X(q) W(low)/X(q) W(high)/X(q)  e(spline) 
   2     10    11.920    66.195    0.79E-04    0.18E-03    0.24E-06
   2     10    11.920    64.643    0.81E-04    0.19E-03    0.24E-06
   0     11    11.920    95.520    0.28E-04    0.54E-04    0.18E-06
   0     11    11.920    63.403    0.27E-04    0.52E-04    0.17E-06
   1     10    11.920    19.961    0.18E-04    0.11E-03    0.23E-06
   1     10    11.920    13.289    0.25E-04    0.87E-04    0.19E-06
 Optimization of the real space projectors (new method)

 maximal supplied QI-value         = 34.20
 optimisation between [QCUT,QGAM] = [ 11.97, 23.94] = [ 40.13,160.53] Ry 
 Optimized for a Real-space Cutoff    1.18 Angstroem

   l    n(q)    QCUT    max X(q) W(low)/X(q) W(high)/X(q)  e(spline) 
   0      8    11.971    19.460    0.15E-03    0.31E-03    0.25E-06
   0      8    11.971    12.209    0.13E-03    0.29E-03    0.25E-06
   1      8    11.971     4.655    0.22E-03    0.24E-03    0.21E-06
  PAW_PBE Pt 04Feb2005                  :
 energy of atom  1       EATOM= -729.1176
 kinetic energy error for atom=    0.0021 (will be added to EATOM!!)
  PAW_PBE H 15Jun2001                   :
 energy of atom  2       EATOM=  -12.4884
 kinetic energy error for atom=    0.0008 (will be added to EATOM!!)
 
 
 POSCAR: Pt111\(1\1\1)\(2)                       
  positions in cartesian coordinates
  No initial velocities read in
 exchange correlation table for  LEXCH =        8
   RHO(1)=    0.500       N(1)  =     2000
   RHO(2)=  100.500       N(2)  =     4000
 


--------------------------------------------------------------------------------------------------------


 ion  position               nearest neighbor table
   1  1.000  0.000  0.056-   5 2.64   9 2.64  13 2.64  29 2.64  57 2.64  37 2.64  42 2.87  14 2.87
                            54 2.87
   2  0.333  0.167  0.178-  30 2.64  26 2.64  38 2.64  42 2.64  14 2.64   6 2.64   7 2.84  15 2.84
                            11 2.84   9 2.87  21 2.87  13 2.87
   3  0.167  0.334  0.298-  39 2.64  43 2.64  31 2.64   7 2.64  27 2.64  15 2.64  10 2.84   6 2.84
                            14 2.85  12 2.86   8 2.87  48 2.89
   4  1.000  0.000  0.419-  16 2.64  12 2.64  60 2.64  40 2.64   8 2.64  32 2.64  27 2.86  63 2.87
                             7 2.87
   5  1.000  0.250  0.056-   1 2.64  45 2.64  33 2.64   9 2.64  29 2.64  25 2.64  14 2.87  10 2.87
                            18 2.87
   6  0.333  0.417  0.178-  26 2.64  62 2.64  10 2.64  34 2.64  14 2.64   2 2.64  15 2.84   3 2.84
                            43 2.85  45 2.87  49 2.87   9 2.87
   7  0.167  0.084  0.297-  35 2.64  11 2.64  15 2.64  63 2.64  27 2.64   3 2.64  14 2.84   2 2.84
                            42 2.84  12 2.86   4 2.87  16 2.90
   8  1.000  0.250  0.419-  36 2.64  48 2.64  12 2.64  28 2.64   4 2.64  32 2.64  27 2.87   3 2.87
                            31 2.87
   9  0.250  0.250  0.056-  21 2.64  13 2.64   1 2.64  49 2.64  45 2.64   5 2.64   2 2.87  14 2.87
                             6 2.87
  10  0.083  0.417  0.178-  34 2.64   6 2.64  46 2.64  14 2.64  18 2.64  22 2.64  31 2.84   3 2.84
                            39 2.84  33 2.87  45 2.87   5 2.87
  11  0.416  0.083  0.298-  15 2.64  35 2.64   7 2.64  47 2.64  19 2.64  23 2.64   2 2.84  38 2.84
                            30 2.85  20 2.86  24 2.88  16 2.90
  12  0.250  0.250  0.418-  16 2.64  52 2.64   4 2.64   8 2.64  24 2.64  48 2.64   3 2.86  15 2.86
                             7 2.86
  13  0.250  0.000  0.056-  21 2.64   9 2.64  17 2.64   1 2.64  37 2.64  41 2.64  38 2.87   2 2.87
                            42 2.87
  14  0.083  0.167  0.178-  42 2.64  54 2.64   6 2.64   2 2.64  10 2.64  18 2.64   7 2.84   3 2.85
                            27 2.85   5 2.87   1 2.87   9 2.87
  15  0.417  0.333  0.297-  11 2.64  19 2.64  55 2.64   7 2.64   3 2.64  43 2.65  26 2.84   2 2.84
                             6 2.84  52 2.86  12 2.86  24 2.88
  16  0.250  0.000  0.421-   4 2.64  12 2.64  24 2.64  40 2.64  20 2.64  44 2.64  35 2.89  11 2.90
                             7 2.90
  17  0.500  0.000  0.056-  29 2.64  25 2.64  13 2.64  21 2.64  41 2.64  53 2.64  58 2.87  30 2.87
                            38 2.87
  18  0.833  0.167  0.178-  54 2.64  58 2.64  22 2.64  10 2.64  30 2.64  14 2.64  31 2.84  23 2.85
                            27 2.85  25 2.87  29 2.87   5 2.87
  19  0.667  0.334  0.298-  15 2.64  59 2.64  55 2.64  31 2.64  11 2.64  23 2.64  26 2.84  22 2.84
                            30 2.85  28 2.86  24 2.88  64 2.89
  20  0.500  0.000  0.419-  24 2.64  28 2.64  44 2.64  32 2.64  56 2.64  16 2.64  23 2.86  11 2.86
                            47 2.87
  21  0.500  0.250  0.056-  25 2.64  61 2.64   9 2.64  13 2.64  49 2.64  17 2.64  30 2.87   2 2.87
                            26 2.87
  22  0.833  0.417  0.178-  50 2.64  26 2.64  30 2.64  18 2.64  46 2.64  10 2.64  31 2.84  19 2.84
                            59 2.85  61 2.87  25 2.87  33 2.87
  23  0.667  0.083  0.298-  51 2.64  27 2.64  31 2.64  47 2.64  19 2.64  11 2.64  18 2.85  58 2.85
                            30 2.85  28 2.86  20 2.86  32 2.90
  24  0.500  0.250  0.420-  28 2.64  20 2.64  64 2.64  16 2.64  12 2.64  52 2.64  15 2.88  19 2.88
                            11 2.88
  25  0.750  0.250  0.056-  17 2.64  21 2.64  29 2.64  61 2.64  33 2.64   5 2.64  18 2.87  22 2.87
                            30 2.87
  26  0.583  0.417  0.178-   6 2.64   2 2.64  22 2.64  30 2.64  62 2.64  50 2.64  55 2.84  15 2.84
                            19 2.84  49 2.87  61 2.87  21 2.87
  27  0.916  0.083  0.298-  23 2.64  51 2.64  63 2.64  31 2.64   7 2.64   3 2.64  18 2.85  54 2.85
                            14 2.85   4 2.86   8 2.87  32 2.90
  28  0.750  0.250  0.419-  24 2.64  20 2.64  36 2.64  32 2.64   8 2.64  64 2.64  23 2.86  19 2.86
                            31 2.87
  29  0.750  0.000  0.056-  17 2.64  25 2.64   5 2.64  53 2.64   1 2.64  57 2.64  54 2.87  18 2.87
                            58 2.87
  30  0.583  0.167  0.178-   2 2.64  38 2.64  58 2.64  26 2.64  22 2.64  18 2.64  11 2.85  19 2.85
                            23 2.85  21 2.87  17 2.87  25 2.87
  31  0.917  0.334  0.297-  39 2.64   3 2.64  19 2.64  59 2.64  27 2.64  23 2.64  22 2.84  10 2.84
                            18 2.84  36 2.87  28 2.87   8 2.87
  32  0.750  0.000  0.421-  20 2.64  28 2.64  60 2.64  56 2.64   8 2.64   4 2.64  23 2.90  51 2.90
                            27 2.90
  33  1.000  0.500  0.056-  37 2.64  41 2.64   5 2.64  45 2.64  25 2.64  61 2.64  10 2.87  46 2.87
                            22 2.87
  34  0.333  0.667  0.178-  62 2.64  10 2.64  58 2.64  46 2.64   6 2.64  38 2.64  47 2.84  43 2.84
                            39 2.84  41 2.87  45 2.87  53 2.87
  35  0.167  0.834  0.298-  11 2.64   7 2.64  47 2.64  63 2.64  59 2.64  39 2.64  42 2.84  38 2.85
                            46 2.85  44 2.86  40 2.87  16 2.89
  36  1.000  0.500  0.419-   8 2.64  48 2.64  28 2.64  40 2.64  64 2.64  44 2.64  59 2.86  39 2.87
                            31 2.87
  37  1.000  0.750  0.056-  33 2.64  41 2.64  61 2.64  57 2.64  13 2.64   1 2.64  46 2.87  50 2.87
                            42 2.87
  38  0.333  0.917  0.178-  58 2.64  30 2.64   2 2.64  42 2.64  34 2.64  46 2.64  47 2.84  11 2.84
                            35 2.85  13 2.87  17 2.87  41 2.87
  39  0.167  0.583  0.298-  43 2.64   3 2.64  31 2.64  47 2.64  59 2.64  35 2.64  46 2.84  34 2.84
                            10 2.84  36 2.87  44 2.87  48 2.89
  40  1.000  0.750  0.419-  36 2.64  44 2.64   4 2.64  64 2.64  16 2.64  60 2.64  35 2.87  59 2.87
                            63 2.87
  41  0.250  0.750  0.056-  45 2.64  33 2.64  37 2.64  53 2.64  17 2.64  13 2.64  34 2.87  46 2.87
                            38 2.87
  42  0.083  0.917  0.178-  14 2.64   2 2.64  38 2.64  46 2.64  50 2.64  54 2.64  63 2.84   7 2.84
                            35 2.84   1 2.87  13 2.87  37 2.87
  43  0.416  0.584  0.298-  39 2.64   3 2.64  47 2.64  51 2.64  55 2.64  15 2.65  34 2.84   6 2.85
                            62 2.85  52 2.86  56 2.87  48 2.90
  44  0.250  0.750  0.419-  56 2.64  48 2.64  40 2.64  20 2.64  16 2.64  36 2.64  35 2.86  39 2.87
                            47 2.87
  45  0.250  0.500  0.056-  41 2.64  53 2.64   5 2.64   9 2.64  49 2.64  33 2.64   6 2.87  10 2.87
                            34 2.87
  46  0.083  0.667  0.178-  34 2.64  50 2.64  10 2.64  42 2.64  22 2.64  38 2.64  39 2.84  59 2.85
                            35 2.85  37 2.87  33 2.87  41 2.87
  47  0.416  0.833  0.297-  43 2.64  39 2.64  11 2.64  35 2.64  51 2.64  23 2.64  38 2.84  34 2.84
                            58 2.84  44 2.87  20 2.87  56 2.88
  48  0.250  0.500  0.421-  56 2.64   8 2.64  44 2.64  36 2.64  52 2.64  12 2.64  39 2.89   3 2.89
                            43 2.90
  49  0.500  0.500  0.056-  61 2.64  53 2.64  57 2.64  21 2.64   9 2.64  45 2.64  26 2.87   6 2.87
                            62 2.87
  50  0.833  0.667  0.178-  22 2.64  46 2.64  26 2.64  42 2.64  54 2.64  62 2.64  55 2.84  63 2.84
                            59 2.84  57 2.87  61 2.87  37 2.87
  51  0.667  0.834  0.298-  23 2.64  27 2.64  63 2.64  47 2.64  55 2.64  43 2.64  58 2.85  54 2.85
                            62 2.85  60 2.86  56 2.87  32 2.90
  52  0.500  0.500  0.418-  64 2.64  12 2.64  60 2.64  56 2.64  48 2.64  24 2.64  43 2.86  15 2.86
                            55 2.86
  53  0.500  0.750  0.056-  49 2.64  57 2.64  45 2.64  41 2.64  29 2.64  17 2.64  62 2.87  34 2.87
                            58 2.87
  54  0.833  0.917  0.178-  18 2.64  14 2.64  50 2.64  58 2.64  42 2.64  62 2.64  63 2.84  51 2.85
                            27 2.85  29 2.87   1 2.87  57 2.87
  55  0.667  0.583  0.297-  59 2.64  15 2.64  19 2.64  63 2.64  51 2.64  43 2.64  62 2.84  26 2.84
                            50 2.84  52 2.86  60 2.87  64 2.90
  56  0.500  0.750  0.419-  44 2.64  48 2.64  52 2.64  20 2.64  60 2.64  32 2.64  51 2.87  43 2.87
                            47 2.88
  57  0.750  0.750  0.056-  61 2.64  49 2.64  53 2.64  37 2.64   1 2.64  29 2.64  50 2.87  62 2.87
                            54 2.87
  58  0.583  0.917  0.178-  38 2.64  30 2.64  18 2.64  34 2.64  62 2.64  54 2.64  47 2.84  51 2.85
                            23 2.85  17 2.87  29 2.87  53 2.87
  59  0.916  0.583  0.298-  19 2.64  55 2.64  31 2.64  63 2.64  35 2.64  39 2.64  50 2.84  22 2.85
                            46 2.85  36 2.86  40 2.87  64 2.89
  60  0.750  0.750  0.419-  64 2.64  52 2.64   4 2.64  32 2.64  40 2.64  56 2.64  51 2.86  63 2.87
                            55 2.87
  61  0.750  0.500  0.056-  49 2.64  57 2.64  21 2.64  25 2.64  37 2.64  33 2.64  22 2.87  26 2.87
                            50 2.87
  62  0.583  0.667  0.178-  34 2.64   6 2.64  26 2.64  58 2.64  54 2.64  50 2.64  55 2.84  43 2.85
                            51 2.85  53 2.87  49 2.87  57 2.87
  63  0.916  0.834  0.297-  51 2.64  27 2.64  35 2.64  55 2.64   7 2.64  59 2.64  54 2.84  42 2.84
                            50 2.84  60 2.87   4 2.87  40 2.87
  64  0.750  0.500  0.421-  52 2.64  60 2.64  24 2.64  40 2.64  28 2.64  36 2.64  59 2.89  19 2.89
                            55 2.90
  65  0.381  0.411  0.568-  66 0.75
  66  0.372  0.337  0.573-  65 0.75
 
  LATTYP: Found a hexagonal cell.
 ALAT       =    10.5600004196
 C/A-ratio  =     1.8939393187
  
  Lattice vectors:
  
 A1 = (  10.5600004196,   0.0000000000,   0.0000000000)
 A2 = (  -5.2800002098,   9.1452286274,   0.0000000000)
 A3 = (   0.0000000000,   0.0000000000,  20.0000000000)


Analysis of symmetry for initial positions (statically):
=====================================================================
 Subroutine PRICEL returns:
 Original cell was already a primitive cell.
 

 Routine SETGRP: Setting up the symmetry group for a 
 hexagonal supercell.


 Subroutine GETGRP returns: Found  1 space group operations
 (whereof  1 operations were pure point group operations)
 out of a pool of 24 trial point group operations.


The static configuration has the point symmetry C_1 .


Analysis of symmetry for dynamics (positions and initial velocities):
=====================================================================
 Subroutine PRICEL returns:
 Original cell was already a primitive cell.
 

 Routine SETGRP: Setting up the symmetry group for a 
 hexagonal supercell.


 Subroutine GETGRP returns: Found  1 space group operations
 (whereof  1 operations were pure point group operations)
 out of a pool of 24 trial point group operations.


The dynamic configuration has the point symmetry C_1 .


Analysis of constrained symmetry for selective dynamics:
=====================================================================
 Subroutine PRICEL returns:
 Original cell was already a primitive cell.
 

 Routine SETGRP: Setting up the symmetry group for a 
 hexagonal supercell.


 Subroutine GETGRP returns: Found  1 space group operations
 (whereof  1 operations were pure point group operations)
 out of a pool of 24 trial point group operations.


The constrained configuration has the point symmetry C_1 .


Analysis of structural, dynamic, and magnetic symmetry:
=====================================================================
 Subroutine PRICEL returns:
 Original cell was already a primitive cell.
 

 Routine SETGRP: Setting up the symmetry group for a 
 hexagonal supercell.


 Subroutine GETGRP returns: Found  1 space group operations
 (whereof  1 operations were pure point group operations)
 out of a pool of 24 trial point group operations.


The magnetic configuration has the point symmetry C_1 .


 Subroutine INISYM returns: Found  1 space group operations
 (whereof  1 operations are pure point group operations),
 and found     1 'primitive' translations

 
 
 KPOINTS: mesh auto                               

Automatic generation of k-mesh.
Space group operators:
 irot       det(A)        alpha          n_x          n_y          n_z        tau_x        tau_y        tau_z
    1     1.000000     0.000000     1.000000     0.000000     0.000000     0.000000     0.000000     0.000000
 
 Subroutine IBZKPT returns following result:
 ===========================================
 
 Found      4 irreducible k-points:
 
 Following reciprocal coordinates:
            Coordinates               Weight
  0.000000  0.000000  0.000000      1.000000
  0.500000 -0.000000  0.000000      1.000000
  0.000000  0.500000  0.000000      1.000000
  0.500000  0.500000  0.000000      1.000000
 
 Following cartesian coordinates:
            Coordinates               Weight
  0.000000  0.000000  0.000000      1.000000
  0.047348  0.027337  0.000000      1.000000
  0.000000  0.054673  0.000000      1.000000
  0.047348  0.082010  0.000000      1.000000
 
 TETIRR: Found     12 inequivalent tetrahedra from       24
 
 Subroutine IBZKPT_HF returns following result:
 ==============================================
 
 Found      4 k-points in 1st BZ
 the following      4 k-points will be used (e.g. in the exchange kernel)
 Following reciprocal coordinates:   # in IRBZ
  0.000000  0.000000  0.000000    0.25000000   1 t-inv F
  0.500000 -0.000000  0.000000    0.25000000   2 t-inv F
  0.000000  0.500000  0.000000    0.25000000   3 t-inv F
  0.500000  0.500000  0.000000    0.25000000   4 t-inv F


--------------------------------------------------------------------------------------------------------




 Dimension of arrays:
   k-points           NKPTS =      4   k-points in BZ     NKDIM =      4   number of bands    NBANDS=    440
   number of dos      NEDOS =    301   number of ions     NIONS =     66
   non local maximal  LDIM  =      6   non local SUM 2l+1 LMDIM =     18
   total plane-waves  NPLWV = ******
   max r-space proj   IRMAX =   8171   max aug-charges    IRDMAX=  35597
   dimension x,y,z NGX =    84 NGY =   84 NGZ =  160
   dimension x,y,z NGXF=   168 NGYF=  168 NGZF=  320
   support grid    NGXF=   168 NGYF=  168 NGZF=  320
   ions per type =              64   2
   NGX,Y,Z   is equivalent  to a cutoff of  13.22, 13.22, 13.30 a.u.
   NGXF,Y,Z  is equivalent  to a cutoff of  26.45, 26.45, 26.60 a.u.

 SYSTEM =  Pt111                                   
 POSCAR =  Pt111\(1\1\1)\(2)                       

 Startparameter for this run:
   NWRITE =      2    write-flag & timer
   PREC   = accura    normal or accurate (medium, high low for compatibility)
   ISTART =      0    job   : 0-new  1-cont  2-samecut
   ICHARG =      2    charge: 1-file 2-atom 10-const
   ISPIN  =      2    spin polarized calculation?
   LNONCOLLINEAR =      F non collinear calculations
   LSORBIT =      F    spin-orbit coupling
   INIWAV =      1    electr: 0-lowe 1-rand  2-diag
   LASPH  =      F    aspherical Exc in radial PAW
   METAGGA=      F    non-selfconsistent MetaGGA calc.

 Electronic Relaxation 1
   ENCUT  =  550.0 eV  40.42 Ry    6.36 a.u.  20.19 20.19 38.24*2*pi/ulx,y,z
   ENINI  =  550.0     initial cutoff
   ENAUG  =  400.0 eV  augmentation charge cutoff
   NELM   =    200;   NELMIN=  2; NELMDL= -5     # of ELM steps 
   EDIFF  = 0.1E-04   stopping-criterion for ELM
   LREAL  =      T    real-space projection
   NLSPLINE    = F    spline interpolate recip. space projectors
   LCOMPAT=      F    compatible to vasp.4.4
   GGA_COMPAT  = T    GGA compatible to vasp.4.4-vasp.4.6
   LMAXPAW     = -100 max onsite density
   LMAXMIX     =    2 max onsite mixed and CHGCAR
   VOSKOWN=      0    Vosko Wilk Nusair interpolation
   ROPT   =   -0.00025  -0.00025
 Ionic relaxation
   EDIFFG = -.5E-01   stopping-criterion for IOM
   NSW    =    829    number of steps for IOM
   NBLOCK =      1;   KBLOCK =    829    inner block; outer block 
   IBRION =      5    ionic relax: 0-MD 1-quasi-New 2-CG
   NFREE  =      2    steps in history (QN), initial steepest desc. (CG)
   ISIF   =      2    stress and relaxation
   IWAVPR =     11    prediction:  0-non 1-charg 2-wave 3-comb
   ISYM   =      2    0-nonsym 1-usesym 2-fastsym
   LCORR  =      T    Harris-Foulkes like correction to forces

   POTIM  = 0.5000    time-step for ionic-motion
   TEIN   =    0.0    initial temperature
   TEBEG  =    0.0;   TEEND  =   0.0 temperature during run
   SMASS  =  -3.00    Nose mass-parameter (am)
   estimated Nose-frequenzy (Omega)   =  0.10E-29 period in steps =****** mass=  -0.255E-26a.u.
   SCALEE = 1.0000    scale energy and forces
   NPACO  =    256;   APACO  = 16.0  distance and # of slots for P.C.
   PSTRESS=    0.0 pullay stress

  Mass of Ions in am
   POMASS = 195.08  1.00
  Ionic Valenz
   ZVAL   =  10.00  1.00
  Atomic Wigner-Seitz radii
   RWIGS  =  -1.00 -1.00
  virtual crystal weights 
   VCA    =   1.00  1.00
   NELECT =     642.0000    total number of electrons
   NUPDOWN=      -1.0000    fix difference up-down

 DOS related values:
   EMIN   =  10.00;   EMAX   =-10.00  energy-range for DOS
   EFERMI =   0.00
   ISMEAR =    -5;   SIGMA  =   0.10  broadening in eV -4-tet -1-fermi 0-gaus

 Electronic relaxation 2 (details)
   IALGO  =     68    algorithm
   LDIAG  =      T    sub-space diagonalisation (order eigenvalues)
   LSUBROT=      F    optimize rotation matrix (better conditioning)
   TURBO    =      0    0=normal 1=particle mesh
   IRESTART =      0    0=no restart 2=restart with 2 vectors
   NREBOOT  =      0    no. of reboots
   NMIN     =      0    reboot dimension
   EREF     =   0.00    reference energy to select bands
   IMIX   =      4    mixing-type and parameters
     AMIX     =   0.40;   BMIX     =  1.00
     AMIX_MAG =   1.60;   BMIX_MAG =  1.00
     AMIN     =   0.10
     WC   =   100.;   INIMIX=   1;  MIXPRE=   1;  MAXMIX= -45

 Intra band minimization:
   WEIMIN = 0.0010     energy-eigenvalue tresh-hold
   EBREAK =  0.57E-08  absolut break condition
   DEPER  =   0.30     relativ break condition  

   TIME   =   0.40     timestep for ELM

  volume/ion in A,a.u.               =      29.26       197.49
  Fermi-wavevector in a.u.,A,eV,Ry     =   1.134028  2.143002 17.497349  1.286019
  Thomas-Fermi vector in A             =   2.270731
 
 Write flags
   LWAVE        =      F    write WAVECAR
   LDOWNSAMPLE  =      F    k-point downsampling of WAVECAR
   LCHARG       =      F    write CHGCAR
   LVTOT        =      F    write LOCPOT, total local potential
   LVHAR        =      F    write LOCPOT, Hartree potential only
   LELF         =      F    write electronic localiz. function (ELF)
   LORBIT       =      0    0 simple, 1 ext, 2 COOP (PROOUT), +10 PAW based schemes


 Dipole corrections
   LMONO  =      F    monopole corrections only (constant potential shift)
   LDIPOL =      F    correct potential (dipole corrections)
   IDIPOL =      0    1-x, 2-y, 3-z, 4-all directions 
   EPSILON=  1.0000000 bulk dielectric constant

 Exchange correlation treatment:
   GGA     =    --    GGA type
   LEXCH   =     8    internal setting for exchange type
   VOSKOWN=      0    Vosko Wilk Nusair interpolation
   LHFCALC =     F    Hartree Fock is set to
   LHFONE  =     F    Hartree Fock one center treatment
   AEXX    =    0.0000 exact exchange contribution

 Linear response parameters
   LEPSILON=     F    determine dielectric tensor
   LRPA    =     F    only Hartree local field effects (RPA)
   LNABLA  =     F    use nabla operator in PAW spheres
   LVEL    =     F    velocity operator in full k-point grid
   LINTERFAST=   F  fast interpolation
   KINTER  =     0    interpolate to denser k-point grid
   CSHIFT  =0.1000    complex shift for real part using Kramers Kronig
   OMEGAMAX=  -1.0    maximum frequency
   DEG_THRESHOLD= 0.2000000E-02 threshold for treating states as degnerate
   RTIME   =   -0.100 relaxation time in fs
  (WPLASMAI=    0.000 imaginary part of plasma frequency in eV, 0.658/RTIME)
   DFIELD  = 0.0000000 0.0000000 0.0000000 field for delta impulse in time
 
 Orbital magnetization related:
   ORBITALMAG=     F  switch on orbital magnetization
   LCHIMAG   =     F  perturbation theory with respect to B field
   DQ        =  0.001000  dq finite difference perturbation B field
   LLRAUG    =     F  two centre corrections for induced B field



--------------------------------------------------------------------------------------------------------


 finite differences
   using selective dynamics as specified on POSCAR
   WARNING: If single coordinates had been selected the selection of coordinates
            is made according to the corresponding   d i r e c t   coordinates!
            Don't support selection of single cartesian coordinates -- sorry ...
  !
 charge density and potential will be updated during run
 spin polarized calculation
 RMM-DIIS sequential band-by-band and
  variant of blocked Davidson during initial phase
 perform sub-space diagonalisation
    before iterative eigenvector-optimisation
 modified Broyden-mixing scheme, WC =      100.0
 initial mixing is a Kerker type mixing with AMIX =  0.4000 and BMIX =      1.0000
 Hartree-type preconditioning will be used
 using additional bands          119
 real space projection scheme for non local part
 use partial core corrections
 calculate Harris-corrections to forces 
   (improved forces if not selfconsistent)
 use gradient corrections 
 use of overlap-Matrix (Vanderbilt PP)
 Fermi weights with tetrahedron method with Bloechl corrections


--------------------------------------------------------------------------------------------------------


  energy-cutoff  :      550.00
  volume of cell :     1931.47
      direct lattice vectors                 reciprocal lattice vectors
    10.560000420  0.000000000  0.000000000     0.094696966  0.054673319  0.000000000
    -5.280000210  9.145228627  0.000000000     0.000000000  0.109346638  0.000000000
     0.000000000  0.000000000 20.000000000     0.000000000  0.000000000  0.050000000

  length of vectors
    10.560000420 10.560000420 20.000000000     0.109346638  0.109346638  0.050000000


 
 k-points in units of 2pi/SCALE and weight: mesh auto                               
   0.00000000  0.00000000  0.00000000       0.250
   0.04734848  0.02733666  0.00000000       0.250
   0.00000000  0.05467332  0.00000000       0.250
   0.04734848  0.08200998  0.00000000       0.250
 
 k-points in reciprocal lattice and weights: mesh auto                               
   0.00000000  0.00000000  0.00000000       0.250
   0.50000000 -0.00000000  0.00000000       0.250
   0.00000000  0.50000000  0.00000000       0.250
   0.50000000  0.50000000  0.00000000       0.250
 
 position of ions in fractional coordinates (direct lattice) 
   0.99999844  0.00000156  0.05579229
   0.33333173  0.16666826  0.17752397
   0.16662721  0.33377828  0.29760320
   0.99984301  0.00032237  0.41878877
   0.99999844  0.25000155  0.05579229
   0.33333172  0.41666827  0.17752397
   0.16667514  0.08353727  0.29733601
   0.99983636  0.25040930  0.41917228
   0.24999844  0.25000155  0.05579229
   0.08333172  0.41666827  0.17752397
   0.41648905  0.08338698  0.29760565
   0.24983706  0.25034148  0.41836356
   0.24999844  0.00000156  0.05579229
   0.08333172  0.16666826  0.17752397
   0.41683321  0.33329116  0.29741059
   0.24977155  0.00043365  0.42068000
   0.49999844  0.00000156  0.05579229
   0.83333168  0.16666826  0.17752397
   0.66671828  0.33359337  0.29759297
   0.49983434  0.00043145  0.41887843
   0.49999843  0.25000155  0.05579229
   0.83333168  0.41666827  0.17752397
   0.66676172  0.08333491  0.29781276
   0.49990520  0.25026089  0.41960119
   0.74999841  0.25000155  0.05579229
   0.58333168  0.41666827  0.17752397
   0.91638425  0.08346213  0.29792330
   0.74970174  0.25028358  0.41887213
   0.74999842  0.00000156  0.05579229
   0.58333166  0.16666826  0.17752397
   0.91668334  0.33365994  0.29728126
   0.74977195  0.00031684  0.42135745
   0.99999844  0.50000154  0.05579229
   0.33333171  0.66666826  0.17752397
   0.16659978  0.83370324  0.29768132
   0.99970334  0.50022143  0.41888469
   0.99999843  0.75000151  0.05579229
   0.33333173  0.91666828  0.17752397
   0.16662563  0.58345020  0.29752708
   0.99983605  0.75027226  0.41916075
   0.24999843  0.75000151  0.05579229
   0.08333173  0.91666828  0.17752397
   0.41630455  0.58353933  0.29759428
   0.24988797  0.75037903  0.41888503
   0.24999844  0.50000154  0.05579229
   0.08333171  0.66666826  0.17752397
   0.41641583  0.83343056  0.29727494
   0.24972055  0.50037627  0.42068208
   0.49999844  0.50000154  0.05579229
   0.83333171  0.66666826  0.17752397
   0.66664577  0.83374098  0.29793349
   0.49976118  0.50030218  0.41835010
   0.49999843  0.75000151  0.05579229
   0.83333170  0.91666828  0.17752397
   0.66652699  0.58341277  0.29729564
   0.49966885  0.75027953  0.41924869
   0.74999841  0.75000151  0.05579229
   0.58333168  0.91666828  0.17752397
   0.91637659  0.58344451  0.29767451
   0.74977697  0.75030579  0.41876893
   0.74999839  0.50000154  0.05579229
   0.58333166  0.66666826  0.17752397
   0.91648308  0.83358199  0.29733129
   0.74964771  0.50036404  0.42062416
   0.38073423  0.41149828  0.56778846
   0.37201470  0.33703127  0.57340953
 
 position of ions in cartesian coordinates  (Angst):
  10.55997578  0.00001422  1.11584590
   2.63997474  1.52421935  3.55047947
  -0.00276598  3.05247866  5.95206399
  10.55664049  0.00294812  8.37577548
   9.23997574  2.28632132  1.11584590
   1.31997457  3.81052657  3.55047947
   1.31901270  0.76396743  5.94672017
   9.23611125  2.29005030  8.38344551
   1.31997542  2.28632132  1.11584590
  -1.32002553  3.81052657  3.55047947
   3.95784129  0.76259302  5.95211302
   1.31647640  2.28943004  8.36727124
   2.63997547  0.00001422  1.11584590
  -0.00002541  1.52421935  3.55047947
   2.64198153  3.04802382  5.94821177
   2.63529800  0.00396584  8.41360009
   5.27997557  0.00001422  1.11584590
   7.91997448  1.52421935  3.55047947
   5.27917229  3.05078764  5.95185940
   5.27597276  0.00394574  8.37756860
   3.95997540  2.28632132  1.11584590
   6.59997431  3.81052657  3.55047947
   6.60099574  0.76211680  5.95625524
   3.95762161  2.28869305  8.39202380
   6.59997527  2.28632132  1.11584590
   3.95997420  3.81052657  3.55047947
   9.23633804  0.76328023  5.95846595
   6.59535331  2.28890060  8.37744257
   7.91997543  0.00001422  1.11584590
   5.27997414  1.52421935  3.55047947
   7.91845189  3.05139641  5.94562528
   7.91591922  0.00289755  8.42714901
   7.91997567  4.57262842  1.11584590
  -0.00002559  6.09683366  3.55047947
  -2.64265959  7.62440675  5.95362630
   7.91569847  4.57463935  8.37769386
   6.59997574  6.85893527  1.11584590
  -1.32002553  8.38314100  3.55047947
  -1.32105044  5.33578547  5.95054153
   6.59683138  6.86141137  8.38321505
  -1.32002457  6.85893527  1.11584590
  -3.96002563  8.38314100  3.55047947
   1.31508842  5.33660061  5.95188561
  -1.32318435  6.86238783  8.37770054
  -0.00002464  4.57262842  1.11584590
  -2.64002570  6.09683366  3.55047947
  -0.00316217  7.62191303  5.94549878
  -0.00493771  4.57605541  8.41364153
   2.63997546  4.57262842  1.11584590
   5.27997462  6.09683366  3.55047947
   2.63762705  7.62475184  5.95866974
   2.63588271  4.57537779  8.36700194
   1.31997553  6.85893527  1.11584590
   3.95997444  8.38314100  3.55047947
   3.95810574  5.33544315  5.94591281
   1.31502716  6.86147782  8.38497384
   3.95997540  6.85893527  1.11584590
   1.31997410  8.38314100  3.55047947
   6.59635000  5.33573346  5.95349013
   3.95603040  6.86171795  8.37537869
   5.27997509  4.57262842  1.11584590
   2.63997404  6.09683366  3.55047947
   5.27674858  7.62329788  5.94662582
   5.27435787  4.57594355  8.41248311
   1.84784269  3.76324582 11.35576920
   2.14895022  3.08222804 11.46819060
 


--------------------------------------------------------------------------------------------------------


 k-point  1 :   0.0000 0.0000 0.0000  plane waves:   56579
 k-point  2 :   0.5000-0.0000 0.0000  plane waves:   56606
 k-point  3 :   0.0000 0.5000 0.0000  plane waves:   56606
 k-point  4 :   0.5000 0.5000 0.0000  plane waves:   56606

 maximum and minimum number of plane-waves per node :     56606    56579

 maximum number of plane-waves:     56606
 maximum index in each direction: 
   IXMAX=   20   IYMAX=   20   IZMAX=   38
   IXMIN=  -20   IYMIN=  -20   IZMIN=  -38


 serial   3D FFT for wavefunctions
 parallel 3D FFT for charge:
    minimum data exchange during FFTs selected (reduces bandwidth)


 total amount of memory used by VASP MPI-rank0   328553. kBytes
=======================================================================

   base      :      30000. kBytes
   nonlr-proj:      89575. kBytes
   fftplans  :      13334. kBytes
   grid      :     112154. kBytes
   one-center:       2052. kBytes
   wavefun   :      81438. kBytes
 
     INWAV:  cpu time    0.0000: real time    0.0000
 Broyden mixing: mesh for mixing (old mesh)
   NGX = 41   NGY = 41   NGZ = 77
  (NGX  =168   NGY  =168   NGZ  =320)
  gives a total of 129437 points

 initial charge density was supplied:
 charge density of overlapping atoms calculated
 number of electron     642.0000000 magnetization      66.0000000
 keeping initial charge density in first step


--------------------------------------------------------------------------------------------------------


 Maximum index for non-local projection operator         7916
 Maximum index for augmentation-charges         2179 (set IRDMAX)


--------------------------------------------------------------------------------------------------------


 First call to EWALD:  gamma=   0.142
 Maximum number of real-space cells 4x 4x 2
 Maximum number of reciprocal cells 2x 2x 4

    FEWALD:  cpu time    0.0044: real time    0.0044


--------------------------------------- Iteration      1(   1)  ---------------------------------------


    POTLOK:  cpu time    0.5549: real time    0.5735
    SETDIJ:  cpu time    0.0474: real time    0.0477
     EDDAV:  cpu time   51.6190: real time   51.7547
 BZINTS: Fermi energy: 14.478039;642.000000 electrons
         Band energy:4721.425575;  BLOECHL correction: -0.015713
       DOS:  cpu time    0.0161: real time    0.0163
    --------------------------------------------
      LOOP:  cpu time   52.2374: real time   52.3922

 eigenvalue-minimisations  :  7040
 total energy-change (2. order) : 0.4376690E+04  (-0.3125594E+05)
 number of electron     642.0000000 magnetization      66.0000000
 augmentation part      642.0000000 magnetization      66.0000000

 Free energy of the ion-electron system (eV)
  ---------------------------------------------------
  alpha Z        PSCENC =      2023.78361127
  Ewald energy   TEWEN  =    124891.99671919
  -Hartree energ DENC   =   -176005.96352617
  -exchange      EXHF   =         0.00000000
  -V(xc)+E(xc)   XCENC  =       247.23427813
  PAW double counting   =     44550.55032729   -42740.70693553
  entropy T*S    EENTRO =         0.00000000
  eigenvalues    EBANDS =      4721.42557535
  atomic energy  EATOM  =     46688.37031544
  Solvation  Ediel_sol  =         0.00000000
  ---------------------------------------------------
  free energy    TOTEN  =      4376.69036497 eV

  energy without entropy =     4376.69036497  energy(sigma->0) =     4376.69036497


--------------------------------------------------------------------------------------------------------




--------------------------------------- Iteration      1(   2)  ---------------------------------------


     EDDAV:  cpu time   54.9816: real time   55.1123
 BZINTS: Fermi energy:  4.321955;642.000000 electrons
         Band energy: 177.697109;  BLOECHL correction: -0.084223
       DOS:  cpu time    0.0197: real time    0.0198
    --------------------------------------------
      LOOP:  cpu time   55.0013: real time   55.1321

 eigenvalue-minimisations  :  7680
 total energy-change (2. order) :-0.4543728E+04  (-0.4165855E+04)
 number of electron     642.0000000 magnetization      66.0000000
 augmentation part      642.0000000 magnetization      66.0000000

 Free energy of the ion-electron system (eV)
  ---------------------------------------------------
  alpha Z        PSCENC =      2023.78361127
  Ewald energy   TEWEN  =    124891.99671919
  -Hartree energ DENC   =   -176005.96352617
  -exchange      EXHF   =         0.00000000
  -V(xc)+E(xc)   XCENC  =       247.23427813
  PAW double counting   =     44550.55032729   -42740.70693553
  entropy T*S    EENTRO =         0.00000000
  eigenvalues    EBANDS =       177.69710945
  atomic energy  EATOM  =     46688.37031544
  Solvation  Ediel_sol  =         0.00000000
  ---------------------------------------------------
  free energy    TOTEN  =      -167.03810093 eV

  energy without entropy =     -167.03810093  energy(sigma->0) =     -167.03810093


--------------------------------------------------------------------------------------------------------




--------------------------------------- Iteration      1(   3)  ---------------------------------------


     EDDAV:  cpu time   57.3517: real time   57.5227
 BZINTS: Fermi energy:  3.779277;642.000000 electrons
         Band energy: -37.143736;  BLOECHL correction: -0.103774
       DOS:  cpu time    0.0188: real time    0.0188
    --------------------------------------------
      LOOP:  cpu time   57.3705: real time   57.5415

 eigenvalue-minimisations  :  8080
 total energy-change (2. order) :-0.2148408E+03  (-0.2037247E+03)
 number of electron     642.0000000 magnetization      66.0000000
 augmentation part      642.0000000 magnetization      66.0000000

 Free energy of the ion-electron system (eV)
  ---------------------------------------------------
  alpha Z        PSCENC =      2023.78361127
  Ewald energy   TEWEN  =    124891.99671919
  -Hartree energ DENC   =   -176005.96352617
  -exchange      EXHF   =         0.00000000
  -V(xc)+E(xc)   XCENC  =       247.23427813
  PAW double counting   =     44550.55032729   -42740.70693553
  entropy T*S    EENTRO =         0.00000000
  eigenvalues    EBANDS =       -37.14373553
  atomic energy  EATOM  =     46688.37031544
  Solvation  Ediel_sol  =         0.00000000
  ---------------------------------------------------
  free energy    TOTEN  =      -381.87894592 eV

  energy without entropy =     -381.87894592  energy(sigma->0) =     -381.87894592


--------------------------------------------------------------------------------------------------------




--------------------------------------- Iteration      1(   4)  ---------------------------------------


     EDDAV:  cpu time   58.9496: real time   59.1221
 BZINTS: Fermi energy:  3.762135;642.000000 electrons
         Band energy: -41.876102;  BLOECHL correction: -0.111390
       DOS:  cpu time    0.0198: real time    0.0198
    --------------------------------------------
      LOOP:  cpu time   58.9694: real time   59.1419

 eigenvalue-minimisations  :  8360
 total energy-change (2. order) :-0.4732366E+01  (-0.4707044E+01)
 number of electron     642.0000000 magnetization      66.0000000
 augmentation part      642.0000000 magnetization      66.0000000

 Free energy of the ion-electron system (eV)
  ---------------------------------------------------
  alpha Z        PSCENC =      2023.78361127
  Ewald energy   TEWEN  =    124891.99671919
  -Hartree energ DENC   =   -176005.96352617
  -exchange      EXHF   =         0.00000000
  -V(xc)+E(xc)   XCENC  =       247.23427813
  PAW double counting   =     44550.55032729   -42740.70693553
  entropy T*S    EENTRO =         0.00000000
  eigenvalues    EBANDS =       -41.87610190
  atomic energy  EATOM  =     46688.37031544
  Solvation  Ediel_sol  =         0.00000000
  ---------------------------------------------------
  free energy    TOTEN  =      -386.61131229 eV

  energy without entropy =     -386.61131229  energy(sigma->0) =     -386.61131229


--------------------------------------------------------------------------------------------------------




--------------------------------------- Iteration      1(   5)  ---------------------------------------


     EDDAV:  cpu time   58.2607: real time   58.4336
 BZINTS: Fermi energy:  3.761543;642.000000 electrons
         Band energy: -42.012384;  BLOECHL correction: -0.111747
       DOS:  cpu time    0.0190: real time    0.0191
    CHARGE:  cpu time    2.6685: real time    2.6768
    MIXING:  cpu time    0.0120: real time    0.0131
    --------------------------------------------
      LOOP:  cpu time   60.9603: real time   61.1426

 eigenvalue-minimisations  :  8240
 total energy-change (2. order) :-0.1362823E+00  (-0.1362284E+00)
 number of electron     642.0000102 magnetization      59.5696929
 augmentation part      186.0775324 magnetization      47.8960100

 Broyden mixing:
  rms(total) = 0.10539E+02    rms(broyden)= 0.10539E+02
  rms(prec ) = 0.10638E+02
  weight for this iteration     100.00

 Free energy of the ion-electron system (eV)
  ---------------------------------------------------
  alpha Z        PSCENC =      2023.78361127
  Ewald energy   TEWEN  =    124891.99671919
  -Hartree energ DENC   =   -176005.96352617
  -exchange      EXHF   =         0.00000000
  -V(xc)+E(xc)   XCENC  =       247.23427813
  PAW double counting   =     44550.55032729   -42740.70693553
  entropy T*S    EENTRO =         0.00000000
  eigenvalues    EBANDS =       -42.01238423
  atomic energy  EATOM  =     46688.37031544
  Solvation  Ediel_sol  =         0.00000000
  ---------------------------------------------------
  free energy    TOTEN  =      -386.74759462 eV

  energy without entropy =     -386.74759462  energy(sigma->0) =     -386.74759462


--------------------------------------------------------------------------------------------------------




--------------------------------------- Iteration      1(   6)  ---------------------------------------


    POTLOK:  cpu time    0.4989: real time    0.5001
    SETDIJ:  cpu time    0.0457: real time    0.0459
    EDDIAG:  cpu time    7.7224: real time    7.7457
  RMM-DIIS:  cpu time   32.4192: real time   32.5089
    ORTHCH:  cpu time    1.0512: real time    1.0536
 BZINTS: Fermi energy:  2.815581;642.000000 electrons
         Band energy:-511.916655;  BLOECHL correction: -0.262199
       DOS:  cpu time    0.0201: real time    0.0201
    CHARGE:  cpu time    2.6484: real time    2.6547
    MIXING:  cpu time    0.0104: real time    0.0108
    --------------------------------------------
      LOOP:  cpu time   44.4162: real time   44.5400

 eigenvalue-minimisations  :  7074
 total energy-change (2. order) : 0.2494422E+02  (-0.7253431E+01)
 number of electron     642.0000107 magnetization      51.1368101
 augmentation part      195.0173222 magnetization      38.4578450

 Broyden mixing:
  rms(total) = 0.66320E+01    rms(broyden)= 0.66320E+01
  rms(prec ) = 0.68684E+01
  weight for this iteration     100.00

 eigenvalues of (default mixing * dielectric matrix)
  average eigenvalue GAMMA=   1.3137
  1.3137

 Free energy of the ion-electron system (eV)
  ---------------------------------------------------
  alpha Z        PSCENC =      2023.78361127
  Ewald energy   TEWEN  =    124891.99671919
  -Hartree energ DENC   =   -175395.72345206
  -exchange      EXHF   =         0.00000000
  -V(xc)+E(xc)   XCENC  =       238.51148263
  PAW double counting   =     50901.91915226   -49198.74455203
  entropy T*S    EENTRO =         0.00000000
  eigenvalues    EBANDS =      -511.91665475
  atomic energy  EATOM  =     46688.37031544
  Solvation  Ediel_sol  =         0.00000000
  ---------------------------------------------------
  free energy    TOTEN  =      -361.80337806 eV

  energy without entropy =     -361.80337806  energy(sigma->0) =     -361.80337806


--------------------------------------------------------------------------------------------------------




--------------------------------------- Iteration      1(   7)  ---------------------------------------


    POTLOK:  cpu time    0.4972: real time    0.4984
    SETDIJ:  cpu time    0.0455: real time    0.0457
    EDDIAG:  cpu time    7.5521: real time    7.5700
  RMM-DIIS:  cpu time   31.8050: real time   31.8804
    ORTHCH:  cpu time    1.0558: real time    1.0583
 BZINTS: Fermi energy:  4.420248;642.000000 electrons
         Band energy: -55.602594;  BLOECHL correction: -0.168471
       DOS:  cpu time    0.0197: real time    0.0198
    CHARGE:  cpu time    2.6486: real time    2.6548
    MIXING:  cpu time    0.0125: real time    0.0125
    --------------------------------------------
      LOOP:  cpu time   43.6365: real time   43.7399

 eigenvalue-minimisations  :  7055
 total energy-change (2. order) :-0.9950891E+02  (-0.1051769E+02)
 number of electron     642.0000114 magnetization      45.7521657
 augmentation part      193.1536551 magnetization      34.5443590

 Broyden mixing:
  rms(total) = 0.91878E+01    rms(broyden)= 0.91878E+01
  rms(prec ) = 0.11423E+02
  weight for this iteration     100.00

 eigenvalues of (default mixing * dielectric matrix)
  average eigenvalue GAMMA=   1.0708
  1.7943  0.3472

 Free energy of the ion-electron system (eV)
  ---------------------------------------------------
  alpha Z        PSCENC =      2023.78361127
  Ewald energy   TEWEN  =    124891.99671919
  -Hartree energ DENC   =   -175880.83750774
  -exchange      EXHF   =         0.00000000
  -V(xc)+E(xc)   XCENC  =       234.09153283
  PAW double counting   =     56802.92996297   -55166.04432608
  entropy T*S    EENTRO =         0.00000000
  eigenvalues    EBANDS =       -55.60259412
  atomic energy  EATOM  =     46688.37031544
  Solvation  Ediel_sol  =         0.00000000
  ---------------------------------------------------
  free energy    TOTEN  =      -461.31228626 eV

  energy without entropy =     -461.31228626  energy(sigma->0) =     -461.31228626


--------------------------------------------------------------------------------------------------------




--------------------------------------- Iteration      1(   8)  ---------------------------------------


    POTLOK:  cpu time    0.4973: real time    0.4985
    SETDIJ:  cpu time    0.0456: real time    0.0457
    EDDIAG:  cpu time    7.6568: real time    7.6749
  RMM-DIIS:  cpu time   32.1984: real time   32.2771
    ORTHCH:  cpu time    1.0527: real time    1.0558
 BZINTS: Fermi energy:  2.861424;642.000000 electrons
         Band energy:-439.850545;  BLOECHL correction: -0.291426
       DOS:  cpu time    0.0199: real time    0.0200
    CHARGE:  cpu time    2.6553: real time    2.6627
    MIXING:  cpu time    0.0108: real time    0.0108
    --------------------------------------------
      LOOP:  cpu time   44.1369: real time   44.2456

 eigenvalue-minimisations  :  7084
 total energy-change (2. order) : 0.1061532E+03  (-0.4682398E+01)
 number of electron     642.0000110 magnetization      43.1300031
 augmentation part      198.5453223 magnetization      31.7880799

 Broyden mixing:
  rms(total) = 0.30273E+01    rms(broyden)= 0.30273E+01
  rms(prec ) = 0.37648E+01
  weight for this iteration     100.00

 eigenvalues of (default mixing * dielectric matrix)
  average eigenvalue GAMMA=   0.9987
  2.1107  0.5760  0.3092

 Free energy of the ion-electron system (eV)
  ---------------------------------------------------
  alpha Z        PSCENC =      2023.78361127
  Ewald energy   TEWEN  =    124891.99671919
  -Hartree energ DENC   =   -175354.93897355
  -exchange      EXHF   =         0.00000000
  -V(xc)+E(xc)   XCENC  =       235.91189426
  PAW double counting   =     59857.21420625   -58257.64631544
  entropy T*S    EENTRO =         0.00000000
  eigenvalues    EBANDS =      -439.85054491
  atomic energy  EATOM  =     46688.37031544
  Solvation  Ediel_sol  =         0.00000000
  ---------------------------------------------------
  free energy    TOTEN  =      -355.15908749 eV

  energy without entropy =     -355.15908749  energy(sigma->0) =     -355.15908749


--------------------------------------------------------------------------------------------------------




--------------------------------------- Iteration      1(   9)  ---------------------------------------


    POTLOK:  cpu time    0.4946: real time    0.4963
    SETDIJ:  cpu time    0.0456: real time    0.0457
    EDDIAG:  cpu time    7.8176: real time    7.8414
  RMM-DIIS:  cpu time   33.2837: real time   33.3827
    ORTHCH:  cpu time    1.0928: real time    1.0961
 BZINTS: Fermi energy:  3.097287;642.000000 electrons
         Band energy:-499.132040;  BLOECHL correction: -0.125792
       DOS:  cpu time    0.0204: real time    0.0204
    CHARGE:  cpu time    2.7345: real time    2.7428
    MIXING:  cpu time    0.0143: real time    0.0144
    --------------------------------------------
      LOOP:  cpu time   45.5035: real time   45.6397

 eigenvalue-minimisations  :  7072
 total energy-change (2. order) :-0.2969871E+02  (-0.1929924E+01)
 number of electron     642.0000114 magnetization      40.4913590
 augmentation part      198.2055955 magnetization      33.3349494

 Broyden mixing:
  rms(total) = 0.55577E+01    rms(broyden)= 0.55577E+01
  rms(prec ) = 0.84204E+01
  weight for this iteration     100.00

 eigenvalues of (default mixing * dielectric matrix)
  average eigenvalue GAMMA=   0.8590
  2.2598  0.6985  0.3182  0.1595

 Free energy of the ion-electron system (eV)
  ---------------------------------------------------
  alpha Z        PSCENC =      2023.78361127
  Ewald energy   TEWEN  =    124891.99671919
  -Hartree energ DENC   =   -175320.93356643
  -exchange      EXHF   =         0.00000000
  -V(xc)+E(xc)   XCENC  =       234.25885507
  PAW double counting   =     60357.47168230   -58760.67337687
  entropy T*S    EENTRO =         0.00000000
  eigenvalues    EBANDS =      -499.13203994
  atomic energy  EATOM  =     46688.37031544
  Solvation  Ediel_sol  =         0.00000000
  ---------------------------------------------------
  free energy    TOTEN  =      -384.85779998 eV

  energy without entropy =     -384.85779998  energy(sigma->0) =     -384.85779998


--------------------------------------------------------------------------------------------------------




--------------------------------------- Iteration      1(  10)  ---------------------------------------


    POTLOK:  cpu time    0.5146: real time    0.5163
    SETDIJ:  cpu time    0.0482: real time    0.0483
    EDDIAG:  cpu time    8.1020: real time    8.1261
  RMM-DIIS:  cpu time   33.6347: real time   33.7344
    ORTHCH:  cpu time    1.0948: real time    1.0983
 BZINTS: Fermi energy:  2.931115;642.000000 electrons
         Band energy:-409.264970;  BLOECHL correction: -0.271965
       DOS:  cpu time    0.0211: real time    0.0211
    CHARGE:  cpu time    2.7368: real time    2.7446
    MIXING:  cpu time    0.0147: real time    0.0147
    --------------------------------------------
      LOOP:  cpu time   46.1669: real time   46.3038

 eigenvalue-minimisations  :  7082
 total energy-change (2. order) : 0.2194106E+02  (-0.8113869E+00)
 number of electron     642.0000109 magnetization      38.5182601
 augmentation part      197.6582686 magnetization      29.5047314

 Broyden mixing:
  rms(total) = 0.31205E+01    rms(broyden)= 0.31205E+01
  rms(prec ) = 0.39056E+01
  weight for this iteration     100.00

 eigenvalues of (default mixing * dielectric matrix)
  average eigenvalue GAMMA=   0.7550
  2.2918  0.7517  0.3283  0.2786  0.1249

 Free energy of the ion-electron system (eV)
  ---------------------------------------------------
  alpha Z        PSCENC =      2023.78361127
  Ewald energy   TEWEN  =    124891.99671919
  -Hartree energ DENC   =   -175385.97973155
  -exchange      EXHF   =         0.00000000
  -V(xc)+E(xc)   XCENC  =       233.53101117
  PAW double counting   =     60801.62035697   -59206.97405657
  entropy T*S    EENTRO =         0.00000000
  eigenvalues    EBANDS =      -409.26496980
  atomic energy  EATOM  =     46688.37031544
  Solvation  Ediel_sol  =         0.00000000
  ---------------------------------------------------
  free energy    TOTEN  =      -362.91674388 eV

  energy without entropy =     -362.91674388  energy(sigma->0) =     -362.91674388


--------------------------------------------------------------------------------------------------------




--------------------------------------- Iteration      1(  11)  ---------------------------------------


    POTLOK:  cpu time    0.5151: real time    0.5168
    SETDIJ:  cpu time    0.0478: real time    0.0479
    EDDIAG:  cpu time    7.9354: real time    7.9591
  RMM-DIIS:  cpu time   33.5642: real time   33.6678
    ORTHCH:  cpu time    1.1380: real time    1.1414
 BZINTS: Fermi energy:  2.910095;642.000000 electrons
         Band energy:-389.220785;  BLOECHL correction: -0.104565
       DOS:  cpu time    0.0209: real time    0.0210
    CHARGE:  cpu time    2.7429: real time    2.7508
    MIXING:  cpu time    0.0145: real time    0.0146
    --------------------------------------------
      LOOP:  cpu time   45.9789: real time   46.1193

 eigenvalue-minimisations  :  7079
 total energy-change (2. order) : 0.6746445E+01  (-0.3252164E+00)
 number of electron     642.0000108 magnetization      36.7846299
 augmentation part      197.5890604 magnetization      26.4526490

 Broyden mixing:
  rms(total) = 0.13391E+01    rms(broyden)= 0.13391E+01
  rms(prec ) = 0.14722E+01
  weight for this iteration     100.00

 eigenvalues of (default mixing * dielectric matrix)
  average eigenvalue GAMMA=   0.7260
  2.2047  0.7137  0.7137  0.3027  0.3027  0.1185

 Free energy of the ion-electron system (eV)
  ---------------------------------------------------
  alpha Z        PSCENC =      2023.78361127
  Ewald energy   TEWEN  =    124891.99671919
  -Hartree energ DENC   =   -175397.38940657
  -exchange      EXHF   =         0.00000000
  -V(xc)+E(xc)   XCENC  =       232.71124945
  PAW double counting   =     60964.68178867   -59371.10379154
  entropy T*S    EENTRO =         0.00000000
  eigenvalues    EBANDS =      -389.22078504
  atomic energy  EATOM  =     46688.37031544
  Solvation  Ediel_sol  =         0.00000000
  ---------------------------------------------------
  free energy    TOTEN  =      -356.17029913 eV

  energy without entropy =     -356.17029913  energy(sigma->0) =     -356.17029913


--------------------------------------------------------------------------------------------------------




--------------------------------------- Iteration      1(  12)  ---------------------------------------


    POTLOK:  cpu time    0.5137: real time    0.5152
    SETDIJ:  cpu time    0.0475: real time    0.0476
    EDDIAG:  cpu time    7.9673: real time    7.9910
  RMM-DIIS:  cpu time   33.5564: real time   33.6547
    ORTHCH:  cpu time    1.1022: real time    1.1048
 BZINTS: Fermi energy:  2.906892;642.000000 electrons
         Band energy:-397.517925;  BLOECHL correction: -0.107237
       DOS:  cpu time    0.0197: real time    0.0197
    CHARGE:  cpu time    2.7469: real time    2.7534
    MIXING:  cpu time    0.0150: real time    0.0150
    --------------------------------------------
      LOOP:  cpu time   45.9686: real time   46.1013

 eigenvalue-minimisations  :  7088
 total energy-change (2. order) :-0.2206807E+01  (-0.1373727E+00)
 number of electron     642.0000108 magnetization      34.0187196
 augmentation part      197.4594924 magnetization      23.8234636

 Broyden mixing:
  rms(total) = 0.10242E+01    rms(broyden)= 0.10242E+01
  rms(prec ) = 0.10981E+01
  weight for this iteration     100.00

 eigenvalues of (default mixing * dielectric matrix)
  average eigenvalue GAMMA=   0.7239
  2.2188  0.7640  0.6682  0.6682  0.3147  0.3147  0.1187

 Free energy of the ion-electron system (eV)
  ---------------------------------------------------
  alpha Z        PSCENC =      2023.78361127
  Ewald energy   TEWEN  =    124891.99671919
  -Hartree energ DENC   =   -175392.52798104
  -exchange      EXHF   =         0.00000000
  -V(xc)+E(xc)   XCENC  =       231.56768226
  PAW double counting   =     60689.47587432   -59093.52540234
  entropy T*S    EENTRO =         0.00000000
  eigenvalues    EBANDS =      -397.51792512
  atomic energy  EATOM  =     46688.37031544
  Solvation  Ediel_sol  =         0.00000000
  ---------------------------------------------------
  free energy    TOTEN  =      -358.37710604 eV

  energy without entropy =     -358.37710604  energy(sigma->0) =     -358.37710604


--------------------------------------------------------------------------------------------------------




--------------------------------------- Iteration      1(  13)  ---------------------------------------


    POTLOK:  cpu time    0.5165: real time    0.5177
    SETDIJ:  cpu time    0.0474: real time    0.0475
    EDDIAG:  cpu time    7.9254: real time    7.9441
  RMM-DIIS:  cpu time   33.5442: real time   33.6431
    ORTHCH:  cpu time    1.0962: real time    1.0994
 BZINTS: Fermi energy:  2.941171;642.000000 electrons
         Band energy:-384.757841;  BLOECHL correction: -0.092183
       DOS:  cpu time    0.0200: real time    0.0200
    CHARGE:  cpu time    2.7452: real time    2.7534
    MIXING:  cpu time    0.0152: real time    0.0153
    --------------------------------------------
      LOOP:  cpu time   45.9101: real time   46.0405

 eigenvalue-minimisations  :  7076
 total energy-change (2. order) :-0.2444659E+01  (-0.8358633E-01)
 number of electron     642.0000108 magnetization      31.1174708
 augmentation part      197.3009710 magnetization      21.3383045

 Broyden mixing:
  rms(total) = 0.97774E+00    rms(broyden)= 0.97774E+00
  rms(prec ) = 0.10857E+01
  weight for this iteration     100.00

 eigenvalues of (default mixing * dielectric matrix)
  average eigenvalue GAMMA=   0.7301
  2.2449  1.0868  0.7155  0.7155  0.3336  0.3336  0.2919  0.1188

 Free energy of the ion-electron system (eV)
  ---------------------------------------------------
  alpha Z        PSCENC =      2023.78361127
  Ewald energy   TEWEN  =    124891.99671919
  -Hartree energ DENC   =   -175405.77118184
  -exchange      EXHF   =         0.00000000
  -V(xc)+E(xc)   XCENC  =       230.21144586
  PAW double counting   =     60743.66004534   -59148.31487946
  entropy T*S    EENTRO =         0.00000000
  eigenvalues    EBANDS =      -384.75784066
  atomic energy  EATOM  =     46688.37031544
  Solvation  Ediel_sol  =         0.00000000
  ---------------------------------------------------
  free energy    TOTEN  =      -360.82176486 eV

  energy without entropy =     -360.82176486  energy(sigma->0) =     -360.82176486


--------------------------------------------------------------------------------------------------------




--------------------------------------- Iteration      1(  14)  ---------------------------------------


    POTLOK:  cpu time    0.5159: real time    0.5171
    SETDIJ:  cpu time    0.0495: real time    0.0496
    EDDIAG:  cpu time    8.0000: real time    8.0240
  RMM-DIIS:  cpu time   33.5436: real time   33.6440
    ORTHCH:  cpu time    1.0886: real time    1.0918
 BZINTS: Fermi energy:  2.959329;642.000000 electrons
         Band energy:-376.697440;  BLOECHL correction: -0.091625
       DOS:  cpu time    0.0204: real time    0.0205
    CHARGE:  cpu time    2.7518: real time    2.7600
    MIXING:  cpu time    0.0157: real time    0.0158
    --------------------------------------------
      LOOP:  cpu time   45.9857: real time   46.1228

 eigenvalue-minimisations  :  7076
 total energy-change (2. order) :-0.2040672E+01  (-0.8104294E-01)
 number of electron     642.0000108 magnetization      26.7020014
 augmentation part      197.1886998 magnetization      17.1737694

 Broyden mixing:
  rms(total) = 0.77589E+00    rms(broyden)= 0.77589E+00
  rms(prec ) = 0.82993E+00
  weight for this iteration     100.00

 eigenvalues of (default mixing * dielectric matrix)
  average eigenvalue GAMMA=   0.7673
  2.2416  1.6214  0.8037  0.8037  0.4620  0.3200  0.3200  0.1187  0.2149

 Free energy of the ion-electron system (eV)
  ---------------------------------------------------
  alpha Z        PSCENC =      2023.78361127
  Ewald energy   TEWEN  =    124891.99671919
  -Hartree energ DENC   =   -175413.98539217
  -exchange      EXHF   =         0.00000000
  -V(xc)+E(xc)   XCENC  =       228.84155113
  PAW double counting   =     60783.06470949   -59188.23651124
  entropy T*S    EENTRO =         0.00000000
  eigenvalues    EBANDS =      -376.69743954
  atomic energy  EATOM  =     46688.37031544
  Solvation  Ediel_sol  =         0.00000000
  ---------------------------------------------------
  free energy    TOTEN  =      -362.86243642 eV

  energy without entropy =     -362.86243642  energy(sigma->0) =     -362.86243642


--------------------------------------------------------------------------------------------------------




--------------------------------------- Iteration      1(  15)  ---------------------------------------


    POTLOK:  cpu time    0.5154: real time    0.5166
    SETDIJ:  cpu time    0.0476: real time    0.0477
    EDDIAG:  cpu time    7.9573: real time    7.9811
  RMM-DIIS:  cpu time   33.7087: real time   33.8095
    ORTHCH:  cpu time    1.0886: real time    1.0917
 BZINTS: Fermi energy:  2.959759;642.000000 electrons
         Band energy:-375.915530;  BLOECHL correction: -0.121194
       DOS:  cpu time    0.0206: real time    0.0207
    CHARGE:  cpu time    2.7546: real time    2.7629
    MIXING:  cpu time    0.0165: real time    0.0166
    --------------------------------------------
      LOOP:  cpu time   46.1094: real time   46.2468

 eigenvalue-minimisations  :  7075
 total energy-change (2. order) :-0.3578321E+01  (-0.1397297E+00)
 number of electron     642.0000108 magnetization      23.7742782
 augmentation part      197.1093473 magnetization      14.6543379

 Broyden mixing:
  rms(total) = 0.60262E+00    rms(broyden)= 0.60262E+00
  rms(prec ) = 0.65455E+00
  weight for this iteration     100.00

 eigenvalues of (default mixing * dielectric matrix)
  average eigenvalue GAMMA=   0.7783
  2.1643  2.1643  0.7744  0.7744  0.4766  0.4766  0.3130  0.3130  0.1187  0.2081

 Free energy of the ion-electron system (eV)
  ---------------------------------------------------
  alpha Z        PSCENC =      2023.78361127
  Ewald energy   TEWEN  =    124891.99671919
  -Hartree energ DENC   =   -175416.48112649
  -exchange      EXHF   =         0.00000000
  -V(xc)+E(xc)   XCENC  =       226.63186569
  PAW double counting   =     60707.15369390   -59111.98030653
  entropy T*S    EENTRO =         0.00000000
  eigenvalues    EBANDS =      -375.91553001
  atomic energy  EATOM  =     46688.37031544
  Solvation  Ediel_sol  =         0.00000000
  ---------------------------------------------------
  free energy    TOTEN  =      -366.44075755 eV

  energy without entropy =     -366.44075755  energy(sigma->0) =     -366.44075755


--------------------------------------------------------------------------------------------------------




--------------------------------------- Iteration      1(  16)  ---------------------------------------


    POTLOK:  cpu time    0.5217: real time    0.5232
    SETDIJ:  cpu time    0.0473: real time    0.0476
    EDDIAG:  cpu time    7.9029: real time    7.9258
  RMM-DIIS:  cpu time   33.6863: real time   33.7867
    ORTHCH:  cpu time    1.0843: real time    1.0874
 BZINTS: Fermi energy:  2.944141;642.000000 electrons
         Band energy:-384.683184;  BLOECHL correction: -0.109881
       DOS:  cpu time    0.0210: real time    0.0211
    CHARGE:  cpu time    2.7480: real time    2.7564
    MIXING:  cpu time    0.0155: real time    0.0155
    --------------------------------------------
      LOOP:  cpu time   46.0271: real time   46.1638

 eigenvalue-minimisations  :  7074
 total energy-change (2. order) :-0.2434500E+01  (-0.1034543E+00)
 number of electron     642.0000108 magnetization      20.8162144
 augmentation part      197.0788027 magnetization      12.4095173

 Broyden mixing:
  rms(total) = 0.44418E+00    rms(broyden)= 0.44418E+00
  rms(prec ) = 0.48076E+00
  weight for this iteration     100.00

 eigenvalues of (default mixing * dielectric matrix)
  average eigenvalue GAMMA=   0.8375
  2.5161  2.5161  0.8551  0.8551  0.6157  0.6157  0.1187  0.3142  0.3142  0.2840
  0.2075

 Free energy of the ion-electron system (eV)
  ---------------------------------------------------
  alpha Z        PSCENC =      2023.78361127
  Ewald energy   TEWEN  =    124891.99671919
  -Hartree energ DENC   =   -175409.49017192
  -exchange      EXHF   =         0.00000000
  -V(xc)+E(xc)   XCENC  =       225.01891272
  PAW double counting   =     60583.68624221   -58987.55770211
  entropy T*S    EENTRO =         0.00000000
  eigenvalues    EBANDS =      -384.68318386
  atomic energy  EATOM  =     46688.37031544
  Solvation  Ediel_sol  =         0.00000000
  ---------------------------------------------------
  free energy    TOTEN  =      -368.87525708 eV

  energy without entropy =     -368.87525708  energy(sigma->0) =     -368.87525708


--------------------------------------------------------------------------------------------------------




--------------------------------------- Iteration      1(  17)  ---------------------------------------


    POTLOK:  cpu time    0.5154: real time    0.5171
    SETDIJ:  cpu time    0.0472: real time    0.0473
    EDDIAG:  cpu time    7.9617: real time    7.9852
  RMM-DIIS:  cpu time   33.6595: real time   33.7612
    ORTHCH:  cpu time    1.2544: real time    1.2574
 BZINTS: Fermi energy:  2.917564;642.000000 electrons
         Band energy:-398.077308;  BLOECHL correction: -0.103860
       DOS:  cpu time    0.0303: real time    0.0305
    CHARGE:  cpu time    2.7623: real time    2.7749
    MIXING:  cpu time    0.0180: real time    0.0180
    --------------------------------------------
      LOOP:  cpu time   46.2490: real time   46.3917

 eigenvalue-minimisations  :  7069
 total energy-change (2. order) :-0.2055398E+01  (-0.9428644E-01)
 number of electron     642.0000108 magnetization      18.7581990
 augmentation part      197.0858291 magnetization      10.8676924

 Broyden mixing:
  rms(total) = 0.44081E+00    rms(broyden)= 0.44081E+00
  rms(prec ) = 0.48595E+00
  weight for this iteration     100.00

 eigenvalues of (default mixing * dielectric matrix)
  average eigenvalue GAMMA=   0.8683
  3.2222  2.4723  0.9679  0.9679  0.6297  0.6297  0.1187  0.3305  0.3305  0.3199
  0.2295  0.2003

 Free energy of the ion-electron system (eV)
  ---------------------------------------------------
  alpha Z        PSCENC =      2023.78361127
  Ewald energy   TEWEN  =    124891.99671919
  -Hartree energ DENC   =   -175397.24674272
  -exchange      EXHF   =         0.00000000
  -V(xc)+E(xc)   XCENC  =       223.54271755
  PAW double counting   =     60504.71631842   -58908.01628666
  entropy T*S    EENTRO =         0.00000000
  eigenvalues    EBANDS =      -398.07730785
  atomic energy  EATOM  =     46688.37031544
  Solvation  Ediel_sol  =         0.00000000
  ---------------------------------------------------
  free energy    TOTEN  =      -370.93065536 eV

  energy without entropy =     -370.93065536  energy(sigma->0) =     -370.93065536


--------------------------------------------------------------------------------------------------------




--------------------------------------- Iteration      1(  18)  ---------------------------------------


    POTLOK:  cpu time    0.5165: real time    0.5177
    SETDIJ:  cpu time    0.0476: real time    0.0477
    EDDIAG:  cpu time    7.9672: real time    7.9867
  RMM-DIIS:  cpu time   33.7825: real time   33.8627
    ORTHCH:  cpu time    1.0917: real time    1.0943
 BZINTS: Fermi energy:  2.895695;642.000000 electrons
         Band energy:-408.938032;  BLOECHL correction: -0.108235
       DOS:  cpu time    0.0209: real time    0.0210
    CHARGE:  cpu time    2.7489: real time    2.7554
    MIXING:  cpu time    0.0196: real time    0.0196
    --------------------------------------------
      LOOP:  cpu time   46.1948: real time   46.3051

 eigenvalue-minimisations  :  7071
 total energy-change (2. order) :-0.8762257E+00  (-0.4049403E-01)
 number of electron     642.0000108 magnetization      16.8874403
 augmentation part      197.1163325 magnetization       9.2951380

 Broyden mixing:
  rms(total) = 0.33641E+00    rms(broyden)= 0.33640E+00
  rms(prec ) = 0.36877E+00
  weight for this iteration     100.00

 eigenvalues of (default mixing * dielectric matrix)
  average eigenvalue GAMMA=   0.9158
  4.2209  2.3220  1.0833  1.0833  0.5914  0.5914  0.5502  0.1187  0.3172  0.3172
  0.3086  0.2073  0.1944

 Free energy of the ion-electron system (eV)
  ---------------------------------------------------
  alpha Z        PSCENC =      2023.78361127
  Ewald energy   TEWEN  =    124891.99671919
  -Hartree energ DENC   =   -175386.44883205
  -exchange      EXHF   =         0.00000000
  -V(xc)+E(xc)   XCENC  =       222.79545544
  PAW double counting   =     60501.06566628   -58904.43178469
  entropy T*S    EENTRO =         0.00000000
  eigenvalues    EBANDS =      -408.93803189
  atomic energy  EATOM  =     46688.37031544
  Solvation  Ediel_sol  =         0.00000000
  ---------------------------------------------------
  free energy    TOTEN  =      -371.80688102 eV

  energy without entropy =     -371.80688102  energy(sigma->0) =     -371.80688102


--------------------------------------------------------------------------------------------------------




--------------------------------------- Iteration      1(  19)  ---------------------------------------


    POTLOK:  cpu time    0.5141: real time    0.5154
    SETDIJ:  cpu time    0.0475: real time    0.0476
    EDDIAG:  cpu time    7.9664: real time    7.9853
  RMM-DIIS:  cpu time   33.9632: real time   34.0437
    ORTHCH:  cpu time    1.0965: real time    1.0991
 BZINTS: Fermi energy:  2.872694;642.000000 electrons
         Band energy:-420.276817;  BLOECHL correction: -0.111123
       DOS:  cpu time    0.0207: real time    0.0208
    CHARGE:  cpu time    2.7458: real time    2.7523
    MIXING:  cpu time    0.0187: real time    0.0187
    --------------------------------------------
      LOOP:  cpu time   46.3729: real time   46.4828

 eigenvalue-minimisations  :  7073
 total energy-change (2. order) :-0.4999596E+00  (-0.2367061E-01)
 number of electron     642.0000108 magnetization      14.9539404
 augmentation part      197.1552381 magnetization       7.6563946

 Broyden mixing:
  rms(total) = 0.27403E+00    rms(broyden)= 0.27403E+00
  rms(prec ) = 0.29456E+00
  weight for this iteration     100.00

 eigenvalues of (default mixing * dielectric matrix)
  average eigenvalue GAMMA=   0.9741
  5.1931  2.2178  1.2608  1.2608  0.7499  0.5944  0.5944  0.3462  0.3198  0.3198
  0.1187  0.2762  0.2073  0.1788

 Free energy of the ion-electron system (eV)
  ---------------------------------------------------
  alpha Z        PSCENC =      2023.78361127
  Ewald energy   TEWEN  =    124891.99671919
  -Hartree energ DENC   =   -175374.80820614
  -exchange      EXHF   =         0.00000000
  -V(xc)+E(xc)   XCENC  =       222.27503208
  PAW double counting   =     60526.58750697   -58930.23500273
  entropy T*S    EENTRO =         0.00000000
  eigenvalues    EBANDS =      -420.27681668
  atomic energy  EATOM  =     46688.37031544
  Solvation  Ediel_sol  =         0.00000000
  ---------------------------------------------------
  free energy    TOTEN  =      -372.30684061 eV

  energy without entropy =     -372.30684061  energy(sigma->0) =     -372.30684061


--------------------------------------------------------------------------------------------------------




[...]
 
   4 f  =    3.033558 THz    19.060408 2PiTHz  101.188607 cm-1    12.545793 meV
             X         Y         Z           dx          dy          dz
     10.559976  0.000014  1.115846            0           0           0  
      2.639975  1.524219  3.550479            0           0           0  
     -0.002766  3.052479  5.952064            0           0           0  
     10.556640  0.002948  8.375775            0           0           0  
      9.239976  2.286321  1.115846            0           0           0  
      1.319975  3.810527  3.550479            0           0           0  
      1.319013  0.763967  5.946720            0           0           0  
      9.236111  2.290050  8.383446            0           0           0  
      1.319975  2.286321  1.115846            0           0           0  
     -1.320026  3.810527  3.550479            0           0           0  
      3.957841  0.762593  5.952113            0           0           0  
      1.316476  2.289430  8.367271            0           0           0  
      2.639975  0.000014  1.115846            0           0           0  
     -0.000025  1.524219  3.550479            0           0           0  
      2.641982  3.048024  5.948212            0           0           0  
      2.635298  0.003966  8.413600            0           0           0  
      5.279976  0.000014  1.115846            0           0           0  
      7.919974  1.524219  3.550479            0           0           0  
      5.279172  3.050788  5.951859            0           0           0  
      5.275973  0.003946  8.377569            0           0           0  
      3.959975  2.286321  1.115846            0           0           0  
      6.599974  3.810527  3.550479            0           0           0  
      6.600996  0.762117  5.956255            0           0           0  
      3.957622  2.288693  8.392024            0           0           0  
      6.599975  2.286321  1.115846            0           0           0  
      3.959974  3.810527  3.550479            0           0           0  
      9.236338  0.763280  5.958466            0           0           0  
      6.595353  2.288901  8.377443            0           0           0  
      7.919975  0.000014  1.115846            0           0           0  
      5.279974  1.524219  3.550479            0           0           0  
      7.918452  3.051396  5.945625            0           0           0  
      7.915919  0.002898  8.427149            0           0           0  
      7.919976  4.572628  1.115846            0           0           0  
     -0.000026  6.096834  3.550479            0           0           0  
     -2.642660  7.624407  5.953626            0           0           0  
      7.915698  4.574639  8.377694            0           0           0  
      6.599976  6.858935  1.115846            0           0           0  
     -1.320026  8.383141  3.550479            0           0           0  
     -1.321050  5.335785  5.950542            0           0           0  
      6.596831  6.861411  8.383215            0           0           0  
     -1.320025  6.858935  1.115846            0           0           0  
     -3.960026  8.383141  3.550479            0           0           0  
      1.315088  5.336601  5.951886            0           0           0  
     -1.323184  6.862388  8.377701            0           0           0  
     -0.000025  4.572628  1.115846            0           0           0  
     -2.640026  6.096834  3.550479            0           0           0  
     -0.003162  7.621913  5.945499            0           0           0  
     -0.004938  4.576055  8.413642            0           0           0  
      2.639975  4.572628  1.115846            0           0           0  
      5.279975  6.096834  3.550479            0           0           0  
      2.637627  7.624752  5.958670            0           0           0  
      2.635883  4.575378  8.367002            0           0           0  
      1.319976  6.858935  1.115846            0           0           0  
      3.959974  8.383141  3.550479            0           0           0  
      3.958106  5.335443  5.945913            0           0           0  
      1.315027  6.861478  8.384974            0           0           0  
      3.959975  6.858935  1.115846            0           0           0  
      1.319974  8.383141  3.550479            0           0           0  
      6.596350  5.335733  5.953490            0           0           0  
      3.956030  6.861718  8.375379            0           0           0  
      5.279975  4.572628  1.115846            0           0           0  
      2.639974  6.096834  3.550479            0           0           0  
      5.276749  7.623298  5.946626            0           0           0  
      5.274358  4.575944  8.412483            0           0           0  
      1.847843  3.763246 11.355769    -0.104902   -0.172029    0.848237  
      2.148950  3.082228 11.468191    -0.010693   -0.192093    0.450425  
 
   5 f/i=    5.396112 THz    33.904774 2PiTHz  179.994927 cm-1    22.316535 meV
             X         Y         Z           dx          dy          dz
     10.559976  0.000014  1.115846            0           0           0  
      2.639975  1.524219  3.550479            0           0           0  
     -0.002766  3.052479  5.952064            0           0           0  
     10.556640  0.002948  8.375775            0           0           0  
      9.239976  2.286321  1.115846            0           0           0  
      1.319975  3.810527  3.550479            0           0           0  
      1.319013  0.763967  5.946720            0           0           0  
      9.236111  2.290050  8.383446            0           0           0  
      1.319975  2.286321  1.115846            0           0           0  
     -1.320026  3.810527  3.550479            0           0           0  
      3.957841  0.762593  5.952113            0           0           0  
      1.316476  2.289430  8.367271            0           0           0  
      2.639975  0.000014  1.115846            0           0           0  
     -0.000025  1.524219  3.550479            0           0           0  
      2.641982  3.048024  5.948212            0           0           0  
      2.635298  0.003966  8.413600            0           0           0  
      5.279976  0.000014  1.115846            0           0           0  
      7.919974  1.524219  3.550479            0           0           0  
      5.279172  3.050788  5.951859            0           0           0  
      5.275973  0.003946  8.377569            0           0           0  
      3.959975  2.286321  1.115846            0           0           0  
      6.599974  3.810527  3.550479            0           0           0  
      6.600996  0.762117  5.956255            0           0           0  
      3.957622  2.288693  8.392024            0           0           0  
      6.599975  2.286321  1.115846            0           0           0  
      3.959974  3.810527  3.550479            0           0           0  
      9.236338  0.763280  5.958466            0           0           0  
      6.595353  2.288901  8.377443            0           0           0  
      7.919975  0.000014  1.115846            0           0           0  
      5.279974  1.524219  3.550479            0           0           0  
      7.918452  3.051396  5.945625            0           0           0  
      7.915919  0.002898  8.427149            0           0           0  
      7.919976  4.572628  1.115846            0           0           0  
     -0.000026  6.096834  3.550479            0           0           0  
     -2.642660  7.624407  5.953626            0           0           0  
      7.915698  4.574639  8.377694            0           0           0  
      6.599976  6.858935  1.115846            0           0           0  
     -1.320026  8.383141  3.550479            0           0           0  
     -1.321050  5.335785  5.950542            0           0           0  
      6.596831  6.861411  8.383215            0           0           0  
     -1.320025  6.858935  1.115846            0           0           0  
     -3.960026  8.383141  3.550479            0           0           0  
      1.315088  5.336601  5.951886            0           0           0  
     -1.323184  6.862388  8.377701            0           0           0  
     -0.000025  4.572628  1.115846            0           0           0  
     -2.640026  6.096834  3.550479            0           0           0  
     -0.003162  7.621913  5.945499            0           0           0  
     -0.004938  4.576055  8.413642            0           0           0  
      2.639975  4.572628  1.115846            0           0           0  
      5.279975  6.096834  3.550479            0           0           0  
      2.637627  7.624752  5.958670            0           0           0  
      2.635883  4.575378  8.367002            0           0           0  
      1.319976  6.858935  1.115846            0           0           0  
      3.959974  8.383141  3.550479            0           0           0  
      3.958106  5.335443  5.945913            0           0           0  
      1.315027  6.861478  8.384974            0           0           0  
      3.959975  6.858935  1.115846            0           0           0  
      1.319974  8.383141  3.550479            0           0           0  
      6.596350  5.335733  5.953490            0           0           0  
      3.956030  6.861718  8.375379            0           0           0  
      5.279975  4.572628  1.115846            0           0           0  
      2.639974  6.096834  3.550479            0           0           0  
      5.276749  7.623298  5.946626            0           0           0  
      5.274358  4.575944  8.412483            0           0           0  
      1.847843  3.763246 11.355769     0.533407    0.452047    0.162390  
      2.148950  3.082228 11.468191     0.501110    0.443551    0.192123  
 
   6 f/i=    7.640789 THz    48.008492 2PiTHz  254.869272 cm-1    31.599774 meV
             X         Y         Z           dx          dy          dz
     10.559976  0.000014  1.115846            0           0           0  
      2.639975  1.524219  3.550479            0           0           0  
     -0.002766  3.052479  5.952064            0           0           0  
     10.556640  0.002948  8.375775            0           0           0  
      9.239976  2.286321  1.115846            0           0           0  
      1.319975  3.810527  3.550479            0           0           0  
      1.319013  0.763967  5.946720            0           0           0  
      9.236111  2.290050  8.383446            0           0           0  
      1.319975  2.286321  1.115846            0           0           0  
     -1.320026  3.810527  3.550479            0           0           0  
      3.957841  0.762593  5.952113            0           0           0  
      1.316476  2.289430  8.367271            0           0           0  
      2.639975  0.000014  1.115846            0           0           0  
     -0.000025  1.524219  3.550479            0           0           0  
      2.641982  3.048024  5.948212            0           0           0  
      2.635298  0.003966  8.413600            0           0           0  
      5.279976  0.000014  1.115846            0           0           0  
      7.919974  1.524219  3.550479            0           0           0  
      5.279172  3.050788  5.951859            0           0           0  
      5.275973  0.003946  8.377569            0           0           0  
      3.959975  2.286321  1.115846            0           0           0  
      6.599974  3.810527  3.550479            0           0           0  
      6.600996  0.762117  5.956255            0           0           0  
      3.957622  2.288693  8.392024            0           0           0  
      6.599975  2.286321  1.115846            0           0           0  
      3.959974  3.810527  3.550479            0           0           0  
      9.236338  0.763280  5.958466            0           0           0  
      6.595353  2.288901  8.377443            0           0           0  
      7.919975  0.000014  1.115846            0           0           0  
      5.279974  1.524219  3.550479            0           0           0  
      7.918452  3.051396  5.945625            0           0           0  
      7.915919  0.002898  8.427149            0           0           0  
      7.919976  4.572628  1.115846            0           0           0  
     -0.000026  6.096834  3.550479            0           0           0  
     -2.642660  7.624407  5.953626            0           0           0  
      7.915698  4.574639  8.377694            0           0           0  
      6.599976  6.858935  1.115846            0           0           0  
     -1.320026  8.383141  3.550479            0           0           0  
     -1.321050  5.335785  5.950542            0           0           0  
      6.596831  6.861411  8.383215            0           0           0  
     -1.320025  6.858935  1.115846            0           0           0  
     -3.960026  8.383141  3.550479            0           0           0  
      1.315088  5.336601  5.951886            0           0           0  
     -1.323184  6.862388  8.377701            0           0           0  
     -0.000025  4.572628  1.115846            0           0           0  
     -2.640026  6.096834  3.550479            0           0           0  
     -0.003162  7.621913  5.945499            0           0           0  
     -0.004938  4.576055  8.413642            0           0           0  
      2.639975  4.572628  1.115846            0           0           0  
      5.279975  6.096834  3.550479            0           0           0  
      2.637627  7.624752  5.958670            0           0           0  
      2.635883  4.575378  8.367002            0           0           0  
      1.319976  6.858935  1.115846            0           0           0  
      3.959974  8.383141  3.550479            0           0           0  
      3.958106  5.335443  5.945913            0           0           0  
      1.315027  6.861478  8.384974            0           0           0  
      3.959975  6.858935  1.115846            0           0           0  
      1.319974  8.383141  3.550479            0           0           0  
      6.596350  5.335733  5.953490            0           0           0  
      3.956030  6.861718  8.375379            0           0           0  
      5.279975  4.572628  1.115846            0           0           0  
      2.639974  6.096834  3.550479            0           0           0  
      5.276749  7.623298  5.946626            0           0           0  
      5.274358  4.575944  8.412483            0           0           0  
      1.847843  3.763246 11.355769    -0.442837    0.495256    0.038615  
      2.148950  3.082228 11.468191    -0.511893    0.499266    0.214066  
 
 Finite differences POTIM=  1.500000000000000E-002
  LATTYP: Found a hexagonal cell.
 ALAT       =    10.5600004196
 C/A-ratio  =     1.8939393187
  
  Lattice vectors:
  
 A1 = (  10.5600004196,   0.0000000000,   0.0000000000)
 A2 = (  -5.2800002098,   9.1452286274,   0.0000000000)
 A3 = (   0.0000000000,   0.0000000000,  20.0000000000)


Analysis of symmetry for initial positions (statically):
=====================================================================
 Subroutine PRICEL returns:
 Original cell was already a primitive cell.
 

 Routine SETGRP: Setting up the symmetry group for a 
 hexagonal supercell.


 Subroutine GETGRP returns: Found  1 space group operations
 (whereof  1 operations were pure point group operations)
 out of a pool of 24 trial point group operations.


The static configuration has the point symmetry C_1 .


Analysis of symmetry for dynamics (positions and initial velocities):
=====================================================================
 Subroutine PRICEL returns:
 Original cell was already a primitive cell.
 

 Routine SETGRP: Setting up the symmetry group for a 
 hexagonal supercell.


 Subroutine GETGRP returns: Found  1 space group operations
 (whereof  1 operations were pure point group operations)
 out of a pool of 24 trial point group operations.


The dynamic configuration has the point symmetry C_1 .


Analysis of constrained symmetry for selective dynamics:
=====================================================================
 Subroutine PRICEL returns:
 Original cell was already a primitive cell.
 

 Routine SETGRP: Setting up the symmetry group for a 
 hexagonal supercell.


 Subroutine GETGRP returns: Found  1 space group operations
 (whereof  1 operations were pure point group operations)
 out of a pool of 24 trial point group operations.


The constrained configuration has the point symmetry C_1 .


Analysis of structural, dynamic, and magnetic symmetry:
=====================================================================
 Subroutine PRICEL returns:
 Original cell was already a primitive cell.
 

 Routine SETGRP: Setting up the symmetry group for a 
 hexagonal supercell.


 Subroutine GETGRP returns: Found  1 space group operations
 (whereof  1 operations were pure point group operations)
 out of a pool of 24 trial point group operations.


The magnetic configuration has the point symmetry C_1 .


 Subroutine INISYM returns: Found  1 space group operations
 (whereof  1 operations are pure point group operations),
 and found     1 'primitive' translations

 
 KPOINTS: mesh auto                               

Automatic generation of k-mesh.
Space group operators:
 irot       det(A)        alpha          n_x          n_y          n_z        tau_x        tau_y        tau_z
    1     1.000000     0.000000     1.000000     0.000000     0.000000     0.000000     0.000000     0.000000
 
 Subroutine IBZKPT returns following result:
 ===========================================
 
 Found      4 irreducible k-points:
 
 Following reciprocal coordinates:
            Coordinates               Weight
  0.000000  0.000000  0.000000      1.000000
  0.500000 -0.000000  0.000000      1.000000
  0.000000  0.500000  0.000000      1.000000
  0.500000  0.500000  0.000000      1.000000
 
 Following cartesian coordinates:
            Coordinates               Weight
  0.000000  0.000000  0.000000      1.000000
  0.047348  0.027337  0.000000      1.000000
  0.000000  0.054673  0.000000      1.000000
  0.047348  0.082010  0.000000      1.000000
 
 TETIRR: Found     12 inequivalent tetrahedra from       24
     LOOP+:  cpu time  773.0110: real time  775.1120
    4ORBIT:  cpu time    0.0000: real time    0.0000
 BZINTS: Fermi energy:  2.737947;642.000000 electrons
         Band energy:-497.173896;  BLOECHL correction: -0.115718

 total amount of memory used by VASP MPI-rank0   328553. kBytes
=======================================================================

   base      :      30000. kBytes
   nonlr-proj:      89575. kBytes
   fftplans  :      13334. kBytes
   grid      :     112154. kBytes
   one-center:       2052. kBytes
   wavefun   :      81438. kBytes
 
  
  
 General timing and accounting informations for this job:
 ========================================================
  
                  Total CPU time used (sec):     9340.350
                            User time (sec):     9316.839
                          System time (sec):       23.511
                         Elapsed time (sec):     9367.612
  
                   Maximum memory used (kb):     1025804.
                   Average memory used (kb):           0.
  
                          Minor page faults:      3458581
                          Major page faults:            0
                 Voluntary context switches:         3635
