 vasp.5.4.4.18Apr17-6-g9f103f2a35 (build Nov 30 2020 22:55:02) complex          
  
 executed on             LinuxIFC date 2023.06.04  11:32:24
 running on   40 total cores
 distrk:  each k-point on   40 cores,    1 groups
 distr:  one band on NCORES_PER_BAND=   4 cores,   10 groups


--------------------------------------------------------------------------------------------------------


 INCAR:
 POTCAR:    PAW_PBE Pt 04Feb2005                  
 POTCAR:    PAW_PBE Fe 06Sep2000                  
 POTCAR:    PAW_PBE Co 02Aug2007                  
 POTCAR:    PAW_PBE Cu 22Jun2005                  
 POTCAR:    PAW_PBE Ni 02Aug2007                  
 POTCAR:    PAW_PBE H 15Jun2001                   
 POTCAR:    PAW_PBE Pt 04Feb2005                  
   VRHFIN =Pt: s1d9                                                             
   LEXCH  = PE                                                                  
   EATOM  =   729.1176 eV,   53.5886 Ry                                         
                                                                                
   TITEL  = PAW_PBE Pt 04Feb2005                                                
   LULTRA =        F    use ultrasoft PP ?                                      
   IUNSCR =        1    unscreen: 0-lin 1-nonlin 2-no                           
   RPACOR =    2.330    partial core radius                                     
   POMASS =  195.080; ZVAL   =   10.000    mass and valenz                      
   RCORE  =    2.600    outmost cutoff radius                                   
   RWIGS  =    2.750; RWIGS  =    1.455    wigner-seitz radius (au A)           
   ENMAX  =  230.283; ENMIN  =  172.712 eV                                      
   ICORE  =        3    local potential                                         
   LCOR   =        T    correct aug charges                                     
   LPAW   =        T    paw PP                                                  
   EAUG   =  358.966                                                            
   DEXC   =    0.000                                                            
   RMAX   =    2.658    core radius for proj-oper                               
   RAUG   =    1.300    factor for augmentation sphere                          
   RDEP   =    2.761    radius for radial grids                                 
   RDEPT  =    2.203    core radius for aug-charge                              
                                                                                
   Atomic configuration                                                         
   16 entries                                                                   
     n  l   j            E        occ.                                          
     1  0  0.50    -78401.1885   2.0000                                         
     2  0  0.50    -13770.7750   2.0000                                         
     2  1  1.50    -11931.0468   6.0000                                         
     3  0  0.50     -3234.7234   2.0000                                         
     3  1  1.50     -2699.2216   6.0000                                         
     3  2  2.50     -2119.5714  10.0000                                         
     4  0  0.50      -695.1528   2.0000                                         
     4  1  1.50      -519.6034   6.0000                                         
     4  2  2.50      -306.6786  10.0000                                         
     4  3  3.50       -70.1041  14.0000                                         
     5  0  0.50      -101.7747   2.0000                                         
     5  1  1.50       -55.9873   6.0000                                         
     5  2  2.50        -6.1423   9.0000                                         
     6  0  0.50        -5.6573   1.0000                                         
     6  1  1.50        -6.8029   0.0000                                         
     5  3  2.50        -1.3606   0.0000                                         
   Description                                                                  
     l       E           TYP  RCUT    TYP  RCUT                                 
     2     -6.1423404     23  2.500                                             
     2     -7.5029230     23  2.500                                             
     0     -5.6573207     23  2.500                                             
     0      0.7416693     23  2.500                                             
     1     -2.7211652     23  2.600                                             
     1     20.4087390     23  2.600                                             
     3     -1.3605826     23  2.500                                             
  local pseudopotential read in
  partial core-charges read in
  partial kinetic energy density read in
  atomic valenz-charges read in
  non local Contribution for L=           2  read in
    real space projection operators read in
  non local Contribution for L=           2  read in
    real space projection operators read in
  non local Contribution for L=           0  read in
    real space projection operators read in
  non local Contribution for L=           0  read in
    real space projection operators read in
  non local Contribution for L=           1  read in
    real space projection operators read in
  non local Contribution for L=           1  read in
    real space projection operators read in
    PAW grid and wavefunctions read in
 
   number of l-projection  operators is LMAX  =           6
   number of lm-projection operators is LMMAX =          18
 
 POTCAR:    PAW_PBE Fe 06Sep2000                  
   VRHFIN =Fe:  d7 s1                                                           
   LEXCH  = PE                                                                  
   EATOM  =   594.3153 eV,   43.6809 Ry                                         
                                                                                
   TITEL  = PAW_PBE Fe 06Sep2000                                                
   LULTRA =        F    use ultrasoft PP ?                                      
   IUNSCR =        1    unscreen: 0-lin 1-nonlin 2-no                           
   RPACOR =    2.000    partial core radius                                     
   POMASS =   55.847; ZVAL   =    8.000    mass and valenz                      
   RCORE  =    2.300    outmost cutoff radius                                   
   RWIGS  =    2.460; RWIGS  =    1.302    wigner-seitz radius (au A)           
   ENMAX  =  267.882; ENMIN  =  200.911 eV                                      
   RCLOC  =    1.701    cutoff for local pot                                    
   LCOR   =        T    correct aug charges                                     
   LPAW   =        T    paw PP                                                  
   EAUG   =  511.368                                                            
   DEXC   =    0.000                                                            
   RMAX   =    2.356    core radius for proj-oper                               
   RAUG   =    1.300    factor for augmentation sphere                          
   RDEP   =    2.442    radius for radial grids                                 
   RDEPT  =    1.890    core radius for aug-charge                              
                                                                                
   Atomic configuration                                                         
    9 entries                                                                   
     n  l   j            E        occ.                                          
     1  0  0.50     -6993.8440   2.0000                                         
     2  0  0.50      -814.6047   2.0000                                         
     2  1  1.50      -693.3689   6.0000                                         
     3  0  0.50       -89.4732   2.0000                                         
     3  1  1.50       -55.6373   6.0000                                         
     3  2  2.50        -3.8151   7.0000                                         
     4  0  0.50        -4.2551   1.0000                                         
     4  1  1.50        -3.4015   0.0000                                         
     4  3  2.50        -1.3606   0.0000                                         
   Description                                                                  
     l       E           TYP  RCUT    TYP  RCUT                                 
     2     -3.8151135     23  2.300                                             
     2     -5.1756961     23  2.300                                             
     0     -4.2550963     23  2.300                                             
     0      7.2035603     23  2.300                                             
     1     -2.7211652     23  2.300                                             
     1     18.4316424     23  2.300                                             
  local pseudopotential read in
  partial core-charges read in
  partial kinetic energy density read in
  atomic valenz-charges read in
  non local Contribution for L=           2  read in
    real space projection operators read in
  non local Contribution for L=           2  read in
    real space projection operators read in
  non local Contribution for L=           0  read in
    real space projection operators read in
  non local Contribution for L=           0  read in
    real space projection operators read in
  non local Contribution for L=           1  read in
    real space projection operators read in
  non local Contribution for L=           1  read in
    real space projection operators read in
    PAW grid and wavefunctions read in
 
   number of l-projection  operators is LMAX  =           6
   number of lm-projection operators is LMMAX =          18
 
 POTCAR:    PAW_PBE Co 02Aug2007                  
   VRHFIN =Co: d8 s1                                                            
   LEXCH  = PE                                                                  
   EATOM  =   813.3670 eV,   59.7808 Ry                                         
                                                                                
   TITEL  = PAW_PBE Co 02Aug2007                                                
   LULTRA =        F    use ultrasoft PP ?                                      
   IUNSCR =        1    unscreen: 0-lin 1-nonlin 2-no                           
   RPACOR =    2.000    partial core radius                                     
   POMASS =   58.933; ZVAL   =    9.000    mass and valenz                      
   RCORE  =    2.300    outmost cutoff radius                                   
   RWIGS  =    2.460; RWIGS  =    1.302    wigner-seitz radius (au A)           
   ENMAX  =  267.968; ENMIN  =  200.976 eV                                      
   RCLOC  =    1.203    cutoff for local pot                                    
   LCOR   =        T    correct aug charges                                     
   LPAW   =        T    paw PP                                                  
   EAUG   =  477.818                                                            
   DEXC   =    0.000                                                            
   RMAX   =    2.360    core radius for proj-oper                               
   RAUG   =    1.300    factor for augmentation sphere                          
   RDEP   =    2.393    radius for radial grids                                 
   RDEPT  =    1.864    core radius for aug-charge                              
                                                                                
   Atomic configuration                                                         
    9 entries                                                                   
     n  l   j            E        occ.                                          
     1  0  0.50     -7587.6674   2.0000                                         
     2  0  0.50      -893.6084   2.0000                                         
     2  1  1.50      -764.5805   6.0000                                         
     3  0  0.50       -97.5973   2.0000                                         
     3  1  1.50       -60.9648   6.0000                                         
     3  2  2.50        -4.2382   8.0000                                         
     4  0  0.50        -4.3746   1.0000                                         
     4  1  1.50        -4.0817   0.0000                                         
     4  3  2.50        -1.3606   0.0000                                         
   Description                                                                  
     l       E           TYP  RCUT    TYP  RCUT                                 
     2     -4.2382362     23  2.300                                             
     2     -5.5988188     23  2.300                                             
     0     -4.3745797     23  2.300                                             
     0      5.7660125     23  2.300                                             
     1     -2.7211652     23  2.300                                             
     1     16.9860234     23  2.300                                             
  local pseudopotential read in
  partial core-charges read in
  partial kinetic energy density read in
  atomic valenz-charges read in
  non local Contribution for L=           2  read in
    real space projection operators read in
  non local Contribution for L=           2  read in
    real space projection operators read in
  non local Contribution for L=           0  read in
    real space projection operators read in
  non local Contribution for L=           0  read in
    real space projection operators read in
  non local Contribution for L=           1  read in
    real space projection operators read in
  non local Contribution for L=           1  read in
    real space projection operators read in
    PAW grid and wavefunctions read in
 
   number of l-projection  operators is LMAX  =           6
   number of lm-projection operators is LMMAX =          18
 
 POTCAR:    PAW_PBE Cu 22Jun2005                  
   VRHFIN =Cu: d10 p1                                                           
   LEXCH  = PE                                                                  
   EATOM  =  1390.9808 eV,  102.2342 Ry                                         
                                                                                
   TITEL  = PAW_PBE Cu 22Jun2005                                                
   LULTRA =        F    use ultrasoft PP ?                                      
   IUNSCR =        1    unscreen: 0-lin 1-nonlin 2-no                           
   RPACOR =    2.000    partial core radius                                     
   POMASS =   63.546; ZVAL   =   11.000    mass and valenz                      
   RCORE  =    2.300    outmost cutoff radius                                   
   RWIGS  =    2.200; RWIGS  =    1.164    wigner-seitz radius (au A)           
   ENMAX  =  295.446; ENMIN  =  221.585 eV                                      
   ICORE  =        3    local potential                                         
   LCOR   =        T    correct aug charges                                     
   LPAW   =        T    paw PP                                                  
   EAUG   =  586.980                                                            
   DEXC   =    0.000                                                            
   RMAX   =    2.344    core radius for proj-oper                               
   RAUG   =    1.300    factor for augmentation sphere                          
   RDEP   =    2.302    radius for radial grids                                 
   RDEPT  =    1.771    core radius for aug-charge                              
                                                                                
   Atomic configuration                                                         
    9 entries                                                                   
     n  l   j            E        occ.                                          
     1  0  0.50     -8850.2468   2.0000                                         
     2  0  0.50     -1062.3498   2.0000                                         
     2  1  1.50      -916.8226   6.0000                                         
     3  0  0.50      -114.6929   2.0000                                         
     3  1  1.50       -72.1325   6.0000                                         
     3  2  2.50        -5.0394  10.0000                                         
     4  0  0.50        -4.6097   1.0000                                         
     4  1  0.50        -4.0817   0.0000                                         
     4  3  2.50        -1.3606   0.0000                                         
   Description                                                                  
     l       E           TYP  RCUT    TYP  RCUT                                 
     2     -5.0393973     23  2.200                                             
     2     10.8846608     23  2.200                                             
     0     -4.6097109     23  2.200                                             
     0      8.2520465     23  2.200                                             
     1     -2.7211652     23  2.200                                             
     1     21.7055443     23  2.200                                             
     3      2.7211652     23  2.300                                             
  local pseudopotential read in
  partial core-charges read in
  partial kinetic energy density read in
  atomic valenz-charges read in
  non local Contribution for L=           2  read in
    real space projection operators read in
  non local Contribution for L=           2  read in
    real space projection operators read in
  non local Contribution for L=           0  read in
    real space projection operators read in
  non local Contribution for L=           0  read in
    real space projection operators read in
  non local Contribution for L=           1  read in
    real space projection operators read in
  non local Contribution for L=           1  read in
    real space projection operators read in
    PAW grid and wavefunctions read in
 
   number of l-projection  operators is LMAX  =           6
   number of lm-projection operators is LMMAX =          18
 
 POTCAR:    PAW_PBE Ni 02Aug2007                  
   VRHFIN =Ni:                                                                  
   LEXCH  = PE                                                                  
   EATOM  =  1077.6739 eV,   79.2068 Ry                                         
                                                                                
   TITEL  = PAW_PBE Ni 02Aug2007                                                
   LULTRA =        F    use ultrasoft PP ?                                      
   IUNSCR =        1    unscreen: 0-lin 1-nonlin 2-no                           
   RPACOR =    2.000    partial core radius                                     
   POMASS =   58.690; ZVAL   =   10.000    mass and valenz                      
   RCORE  =    2.300    outmost cutoff radius                                   
   RWIGS  =    2.430; RWIGS  =    1.286    wigner-seitz radius (au A)           
   ENMAX  =  269.532; ENMIN  =  202.149 eV                                      
   RCLOC  =    1.201    cutoff for local pot                                    
   LCOR   =        T    correct aug charges                                     
   LPAW   =        T    paw PP                                                  
   EAUG   =  544.565                                                            
   DEXC   =    0.000                                                            
   RMAX   =    2.357    core radius for proj-oper                               
   RAUG   =    1.300    factor for augmentation sphere                          
   RDEP   =    2.390    radius for radial grids                                 
   RDEPT  =    1.838    core radius for aug-charge                              
                                                                                
   Atomic configuration                                                         
    9 entries                                                                   
     n  l   j            E        occ.                                          
     1  0  0.50     -8206.4253   2.0000                                         
     2  0  0.50      -976.1748   2.0000                                         
     2  1  1.50      -839.0571   6.0000                                         
     3  0  0.50      -105.9991   2.0000                                         
     3  1  1.50       -66.4603   6.0000                                         
     3  2  2.50        -4.6458   9.0000                                         
     4  0  0.50        -4.4926   1.0000                                         
     4  1  1.50        -4.0817   0.0000                                         
     4  3  2.50        -1.3606   0.0000                                         
   Description                                                                  
     l       E           TYP  RCUT    TYP  RCUT                                 
     2     -4.6457903     23  2.300                                             
     2     -6.0063729     23  2.300                                             
     0     -4.4925590     23  2.300                                             
     0      5.0102601     23  2.300                                             
     1     -2.7211652     23  2.300                                             
     1     16.5183231     23  2.300                                             
  local pseudopotential read in
  partial core-charges read in
  partial kinetic energy density read in
  atomic valenz-charges read in
  non local Contribution for L=           2  read in
    real space projection operators read in
  non local Contribution for L=           2  read in
    real space projection operators read in
  non local Contribution for L=           0  read in
    real space projection operators read in
  non local Contribution for L=           0  read in
    real space projection operators read in
  non local Contribution for L=           1  read in
    real space projection operators read in
  non local Contribution for L=           1  read in
    real space projection operators read in
    PAW grid and wavefunctions read in
 
   number of l-projection  operators is LMAX  =           6
   number of lm-projection operators is LMMAX =          18
 
 POTCAR:    PAW_PBE H 15Jun2001                   
   VRHFIN =H: ultrasoft test                                                    
   LEXCH  = PE                                                                  
   EATOM  =    12.4884 eV,    0.9179 Ry                                         
                                                                                
   TITEL  = PAW_PBE H 15Jun2001                                                 
   LULTRA =        F    use ultrasoft PP ?                                      
   IUNSCR =        0    unscreen: 0-lin 1-nonlin 2-no                           
   RPACOR =    0.000    partial core radius                                     
   POMASS =    1.000; ZVAL   =    1.000    mass and valenz                      
   RCORE  =    1.100    outmost cutoff radius                                   
   RWIGS  =    0.700; RWIGS  =    0.370    wigner-seitz radius (au A)           
   ENMAX  =  250.000; ENMIN  =  200.000 eV                                      
   RCLOC  =    0.701    cutoff for local pot                                    
   LCOR   =        T    correct aug charges                                     
   LPAW   =        T    paw PP                                                  
   EAUG   =  400.000                                                            
   RMAX   =    1.123    core radius for proj-oper                               
   RAUG   =    1.200    factor for augmentation sphere                          
   RDEP   =    1.112    radius for radial grids                                 
   RDEPT  =    0.926    core radius for aug-charge                              
                                                                                
   Atomic configuration                                                         
    2 entries                                                                   
     n  l   j            E        occ.                                          
     1  0  0.50        -6.4927   1.0000                                         
     2  1  0.50        -3.4015   0.0000                                         
   Description                                                                  
     l       E           TYP  RCUT    TYP  RCUT                                 
     0     -6.4927494     23  1.100                                             
     0      6.8029130     23  1.100                                             
     1     -4.0817478     23  1.100                                             
  local pseudopotential read in
  atomic valenz-charges read in
  non local Contribution for L=           0  read in
    real space projection operators read in
  non local Contribution for L=           0  read in
    real space projection operators read in
  non local Contribution for L=           1  read in
    real space projection operators read in
    PAW grid and wavefunctions read in
 
   number of l-projection  operators is LMAX  =           3
   number of lm-projection operators is LMMAX =           5
 
 Optimization of the real space projectors (new method)

 maximal supplied QI-value         = 14.36
 optimisation between [QCUT,QGAM] = [ 11.92, 23.98] = [ 39.79,161.09] Ry 
 Optimized for a Real-space Cutoff    1.49 Angstroem

   l    n(q)    QCUT    max X(q) W(low)/X(q) W(high)/X(q)  e(spline) 
   2     10    11.920    66.195    0.79E-04    0.18E-03    0.24E-06
   2     10    11.920    64.643    0.81E-04    0.19E-03    0.24E-06
   0     11    11.920    95.520    0.28E-04    0.54E-04    0.18E-06
   0     11    11.920    63.403    0.27E-04    0.52E-04    0.17E-06
   1     10    11.920    19.961    0.18E-04    0.11E-03    0.23E-06
   1     10    11.920    13.289    0.25E-04    0.87E-04    0.19E-06
 Optimization of the real space projectors (new method)

 maximal supplied QI-value         = 16.25
 optimisation between [QCUT,QGAM] = [ 11.86, 23.89] = [ 39.41,159.82] Ry 
 Optimized for a Real-space Cutoff    1.49 Angstroem

   l    n(q)    QCUT    max X(q) W(low)/X(q) W(high)/X(q)  e(spline) 
   2     10    11.864    80.901    0.13E-03    0.23E-03    0.37E-06
   2     10    11.864    75.754    0.13E-03    0.23E-03    0.38E-06
   0     11    11.864    58.752    0.44E-04    0.11E-04    0.20E-06
   0     11    11.864    30.679    0.36E-04    0.10E-04    0.18E-06
   1     10    11.864    17.977    0.31E-04    0.45E-04    0.10E-06
   1     10    11.864    13.559    0.25E-04    0.37E-04    0.89E-07
 Optimization of the real space projectors (new method)

 maximal supplied QI-value         = 16.25
 optimisation between [QCUT,QGAM] = [ 11.86, 23.89] = [ 39.41,159.82] Ry 
 Optimized for a Real-space Cutoff    1.33 Angstroem

   l    n(q)    QCUT    max X(q) W(low)/X(q) W(high)/X(q)  e(spline) 
   2      9    11.864    65.824    0.22E-03    0.53E-03    0.26E-06
   2      9    11.864    61.429    0.22E-03    0.53E-03    0.26E-06
   0      9    11.864    56.174    0.21E-03    0.32E-04    0.15E-06
   0      9    11.864    31.263    0.19E-03    0.30E-04    0.14E-06
   1      9    11.864    19.828    0.63E-04    0.30E-03    0.16E-06
   1      9    11.864    15.139    0.49E-04    0.25E-03    0.13E-06
 Optimization of the real space projectors (new method)

 maximal supplied QI-value         = 16.25
 optimisation between [QCUT,QGAM] = [ 11.86, 23.89] = [ 39.41,159.82] Ry 
 Optimized for a Real-space Cutoff    1.49 Angstroem

   l    n(q)    QCUT    max X(q) W(low)/X(q) W(high)/X(q)  e(spline) 
   2     10    11.864     4.610    0.10E-03    0.20E-03    0.29E-06
   2     10    11.864     8.522    0.17E-03    0.33E-03    0.50E-06
   0     11    11.864    51.609    0.52E-04    0.55E-04    0.33E-06
   0     11    11.864    27.747    0.46E-04    0.52E-04    0.31E-06
   1     10    11.864    20.408    0.54E-04    0.25E-04    0.21E-06
   1     10    11.864    13.425    0.48E-04    0.22E-04    0.18E-06
 Optimization of the real space projectors (new method)

 maximal supplied QI-value         = 16.25
 optimisation between [QCUT,QGAM] = [ 11.86, 23.89] = [ 39.41,159.82] Ry 
 Optimized for a Real-space Cutoff    1.33 Angstroem

   l    n(q)    QCUT    max X(q) W(low)/X(q) W(high)/X(q)  e(spline) 
   2      9    11.864    60.317    0.21E-03    0.51E-03    0.25E-06
   2      9    11.864    55.921    0.21E-03    0.51E-03    0.26E-06
   0      9    11.864    51.690    0.22E-03    0.30E-04    0.17E-06
   0      9    11.864    30.015    0.20E-03    0.28E-04    0.15E-06
   1      9    11.864    18.849    0.76E-04    0.33E-03    0.17E-06
   1      9    11.864    14.624    0.60E-04    0.28E-03    0.15E-06
 Optimization of the real space projectors (new method)

 maximal supplied QI-value         = 34.20
 optimisation between [QCUT,QGAM] = [ 11.97, 23.94] = [ 40.13,160.53] Ry 
 Optimized for a Real-space Cutoff    1.18 Angstroem

   l    n(q)    QCUT    max X(q) W(low)/X(q) W(high)/X(q)  e(spline) 
   0      8    11.971    19.460    0.15E-03    0.31E-03    0.25E-06
   0      8    11.971    12.209    0.13E-03    0.29E-03    0.25E-06
   1      8    11.971     4.655    0.22E-03    0.24E-03    0.21E-06
  PAW_PBE Pt 04Feb2005                  :
 energy of atom  1       EATOM= -729.1176
 kinetic energy error for atom=    0.0021 (will be added to EATOM!!)
  PAW_PBE Fe 06Sep2000                  :
 energy of atom  2       EATOM= -594.3153
 kinetic energy error for atom=    0.0024 (will be added to EATOM!!)
  PAW_PBE Co 02Aug2007                  :
 energy of atom  3       EATOM= -813.3670
 kinetic energy error for atom=    0.0026 (will be added to EATOM!!)
  PAW_PBE Cu 22Jun2005                  :
 energy of atom  4       EATOM=-1390.9808
 kinetic energy error for atom=    0.0036 (will be added to EATOM!!)
  PAW_PBE Ni 02Aug2007                  :
 energy of atom  5       EATOM=-1077.6739
 kinetic energy error for atom=    0.0027 (will be added to EATOM!!)
  PAW_PBE H 15Jun2001                   :
 energy of atom  6       EATOM=  -12.4884
 kinetic energy error for atom=    0.0008 (will be added to EATOM!!)
 
 
 POSCAR: 10.56                                   
  positions in direct lattice
  velocities in cartesian coordinates
 exchange correlation table for  LEXCH =        8
   RHO(1)=    0.500       N(1)  =     2000
   RHO(2)=  100.500       N(2)  =     4000
 


--------------------------------------------------------------------------------------------------------


 ion  position               nearest neighbor table
   1  0.787  0.879  0.318-  49 2.63  28 2.63  19 2.63  59 2.66  33 2.66  61 2.66  29 2.67  60 2.69
                             2 2.72  11 2.76   4 2.81  12 2.85
   2  0.043  0.882  0.316-  79 2.54  77 2.60  60 2.63  30 2.64  28 2.65  52 2.66  33 2.68  22 2.69
                             1 2.72   6 2.75   4 2.83  16 2.89
   3  0.280  0.380  0.320-  39 2.56  64 2.58  33 2.59  31 2.64  19 2.70  43 2.70  30 2.72  68 2.72
                             5 2.78  13 2.80  18 2.81  25 2.85
   4  0.875  0.961  0.424-  17 2.63   9 2.64  16 2.64   6 2.65  11 2.65  12 2.65  60 2.81   1 2.81
                             2 2.83
   5  0.123  0.461  0.428-  12 2.62   7 2.63  10 2.64  16 2.64  25 2.66  13 2.66  39 2.72  33 2.74
                             3 2.78
   6  0.126  0.961  0.422-   8 2.63  10 2.64  14 2.64   9 2.64   4 2.65  16 2.65   2 2.75  52 2.77
                            22 2.86
   7  0.875  0.459  0.427-  15 2.62   5 2.63   9 2.63  10 2.64  12 2.65  27 2.65  39 2.68  75 2.76
                            29 2.80
   8  0.376  0.959  0.420-  43 2.60  14 2.62  27 2.62   6 2.63  13 2.63  11 2.64  10 2.64  52 2.69
                            61 2.72
   9  0.875  0.211  0.421-   7 2.63  15 2.63  17 2.63   4 2.64   6 2.64  10 2.65  75 2.69  60 2.72
                            22 2.81
  10  0.126  0.210  0.423-  13 2.62   6 2.64   5 2.64   7 2.64   8 2.64   9 2.65  39 2.66  43 2.71
                            22 2.79
  11  0.625  0.960  0.424-  13 2.63   8 2.64  17 2.64  12 2.64  27 2.64   4 2.65   1 2.76  19 2.83
                            61 2.83
  12  0.875  0.710  0.426-   5 2.62  16 2.64  11 2.64   7 2.65  27 2.65   4 2.65  33 2.68  29 2.82
                             1 2.85
  13  0.375  0.208  0.425-  10 2.62  11 2.63   8 2.63  17 2.66  25 2.66   5 2.66  43 2.76   3 2.80
                            19 2.83
  14  0.377  0.711  0.424-  27 2.61   8 2.62   6 2.64  15 2.64  25 2.65  16 2.66  44 2.69  30 2.77
                            52 2.78
  15  0.626  0.460  0.423-   7 2.62  27 2.63   9 2.63  14 2.64  17 2.65  25 2.65  44 2.69  75 2.72
                            18 2.76
  16  0.125  0.710  0.426-  25 2.64  12 2.64   5 2.64   4 2.64   6 2.65  14 2.66  33 2.68  30 2.82
                             2 2.89
  17  0.626  0.210  0.422-   4 2.63   9 2.63  11 2.64  15 2.65  25 2.65  13 2.66  18 2.76  60 2.77
                            19 2.86
  18  0.548  0.376  0.318-  67 2.57  60 2.59  75 2.61  44 2.64  68 2.66  26 2.67  30 2.70  19 2.73
                            15 2.76  17 2.76   3 2.81  25 2.88
  19  0.535  0.124  0.315-  80 2.55  43 2.57  68 2.57  59 2.60   1 2.63  61 2.64   3 2.70  18 2.73
                            60 2.76  11 2.83  13 2.83  17 2.86
  20  0.547  0.124  0.040-  37 2.55  57 2.56  48 2.58  62 2.64  63 2.68  47 2.68  45 2.68  56 2.70
                            34 2.71
  21  0.121  0.460  0.128-  40 2.52  36 2.53  47 2.53  42 2.60  69 2.61  64 2.62  70 2.64  50 2.64
                            58 2.67  31 2.70  57 2.71  74 2.72
  22  0.043  0.137  0.314-  65 2.51  55 2.53  77 2.57  43 2.58  39 2.58  75 2.60  60 2.67   2 2.69
                            52 2.73  10 2.79   9 2.81   6 2.86  31 3.39
  23  0.042  0.130  0.033-  70 2.58  40 2.60  41 2.61  45 2.62  62 2.64  76 2.64  24 2.69  35 2.73
                            53 2.78
  24  0.130  0.958  0.132-  79 2.51  77 2.54  35 2.57  53 2.57  55 2.58  70 2.62  38 2.64  58 2.64
                            73 2.65  23 2.69  66 2.70  41 2.72
  25  0.375  0.460  0.427-  16 2.64  17 2.65  14 2.65  15 2.65   5 2.66  13 2.66   3 2.85  30 2.85
                            18 2.88
  26  0.455  0.546  0.219-  73 2.50  74 2.54  51 2.56  79 2.61  64 2.63  30 2.65  68 2.67  18 2.67
                            78 2.67  32 2.68  67 2.72  44 2.76
  27  0.624  0.710  0.424-  14 2.61   8 2.62  15 2.63  11 2.64  12 2.65   7 2.65  44 2.69  61 2.78
                            29 2.79
  28  0.956  0.790  0.221-  58 2.57  66 2.57  50 2.58  42 2.59  49 2.61   1 2.63  64 2.63   2 2.65
                            59 2.70  33 2.73  79 2.76  77 2.77
  29  0.795  0.622  0.319-  39 2.54  42 2.55  75 2.57  32 2.62  44 2.64  33 2.65   1 2.67  61 2.68
                            49 2.69  27 2.79   7 2.80  12 2.82
  30  0.292  0.631  0.318-  79 2.57  64 2.61  52 2.62  44 2.63   2 2.64  26 2.65  33 2.66  18 2.70
                             3 2.72  14 2.77  16 2.82  25 2.85
  31  0.203  0.281  0.225-  70 2.52  55 2.56  65 2.57  43 2.60  57 2.60   3 2.64  39 2.68  80 2.70
                            21 2.70  42 2.71  68 2.75  64 2.79  22 3.39
  32  0.706  0.549  0.221-  54 2.53  69 2.56  51 2.58  49 2.59  42 2.60  29 2.62  78 2.62  65 2.63
                            26 2.68  75 2.70  67 2.70  44 2.70
  33  0.041  0.630  0.326-   3 2.59  39 2.64  29 2.65  30 2.66   1 2.66  16 2.68   2 2.68  12 2.68
                            64 2.70  28 2.73  42 2.74   5 2.74
  34  0.797  0.862  0.042-  50 2.38  66 2.51  48 2.53  36 2.55  71 2.56  63 2.61  20 2.71  35 2.76
                            62 2.76
  35  0.056  0.866  0.038-  58 2.54  72 2.55  36 2.56  24 2.57  66 2.62  53 2.65  23 2.73  62 2.73
                            34 2.76
  36  0.046  0.628  0.037-  21 2.53  34 2.55  35 2.56  58 2.58  50 2.61  47 2.63  72 2.64  40 2.69
                            71 2.72
  37  0.627  0.222  0.129-  51 2.51  74 2.51  67 2.52  56 2.53  41 2.55  20 2.55  68 2.56  59 2.56
                            62 2.59  66 2.66  57 2.73  48 2.89
  38  0.382  0.955  0.130-  53 2.47  80 2.48  45 2.49  78 2.53  48 2.54  73 2.55  63 2.55  54 2.56
                            55 2.59  57 2.62  24 2.64  70 2.67
  39  0.036  0.383  0.325-  29 2.54   3 2.56  22 2.58  75 2.59  33 2.64  10 2.66   7 2.68  42 2.68
                            31 2.68   5 2.72  65 2.77  43 2.78
  40  0.031  0.382  0.038-  69 2.44  21 2.52  71 2.53  76 2.56  70 2.57  23 2.60  36 2.69  45 2.78
                            47 2.78
  41  0.872  0.215  0.128-  76 2.45  65 2.52  77 2.53  67 2.54  37 2.55  69 2.57  62 2.57  51 2.59
                            23 2.61  70 2.65  66 2.66  24 2.72
  42  0.955  0.545  0.224-  29 2.55  50 2.56  28 2.59  21 2.60  32 2.60  69 2.61  49 2.63  65 2.64
                            64 2.65  39 2.68  31 2.71  33 2.74
  43  0.296  0.116  0.322-  52 2.53  55 2.54  61 2.57  19 2.57  22 2.58  31 2.60   8 2.60  80 2.67
                             3 2.70  10 2.71  13 2.76  39 2.78
  44  0.541  0.629  0.323-  61 2.56  52 2.59  30 2.63  18 2.64  29 2.64  75 2.65  78 2.65  27 2.69
                            14 2.69  15 2.69  32 2.70  26 2.76
  45  0.295  0.119  0.039-  70 2.49  38 2.49  57 2.57  53 2.60  23 2.62  63 2.64  20 2.68  47 2.75
                            40 2.78
  46  0.548  0.625  0.044-  51 2.38  73 2.39  54 2.41  71 2.56  53 2.56  63 2.58  76 2.59  56 2.62
                            72 2.64
  47  0.296  0.379  0.039-  74 2.41  21 2.53  57 2.61  72 2.61  56 2.62  36 2.63  20 2.68  45 2.75
                            40 2.78
  48  0.625  0.950  0.132-  49 2.40  80 2.48  54 2.48  34 2.53  38 2.54  59 2.55  50 2.56  63 2.57
                            20 2.58  57 2.65  66 2.68  37 2.89
  49  0.706  0.794  0.220-  48 2.40  50 2.48  54 2.49  80 2.53  32 2.59  28 2.61  78 2.61   1 2.63
                            61 2.63  42 2.63  29 2.69  59 2.69
  50  0.866  0.706  0.129-  34 2.38  71 2.42  54 2.48  49 2.48  42 2.56  48 2.56  69 2.58  28 2.58
                            36 2.61  21 2.64  66 2.76  58 2.85
  51  0.626  0.460  0.127-  46 2.38  76 2.45  37 2.51  56 2.52  26 2.56  32 2.58  41 2.59  73 2.60
                            69 2.62  74 2.62  67 2.63  54 2.69
  52  0.298  0.876  0.318-  55 2.44  61 2.52  78 2.52  43 2.53  79 2.54  44 2.59  30 2.62   2 2.66
                             8 2.69  22 2.73   6 2.77  14 2.78
  53  0.306  0.868  0.040-  73 2.42  38 2.47  63 2.55  46 2.56  24 2.57  45 2.60  72 2.61  35 2.65
                            23 2.78
  54  0.627  0.715  0.128-  46 2.41  71 2.46  50 2.48  48 2.48  63 2.48  49 2.49  32 2.53  38 2.56
                            73 2.56  78 2.62  69 2.68  51 2.69
  55  0.224  0.028  0.227-  52 2.44  78 2.45  79 2.49  80 2.53  22 2.53  43 2.54  31 2.56  24 2.58
                            38 2.59  77 2.72  70 2.72  65 2.86
  56  0.543  0.381  0.035-  74 2.50  51 2.52  37 2.53  72 2.59  76 2.60  46 2.62  47 2.62  20 2.70
                            62 2.70
  57  0.378  0.205  0.133-  68 2.46  80 2.54  20 2.56  45 2.57  31 2.60  47 2.61  38 2.62  74 2.62
                            70 2.64  48 2.65  21 2.71  37 2.73
  58  0.136  0.705  0.132-  72 2.47  64 2.52  35 2.54  79 2.57  28 2.57  36 2.58  74 2.64  24 2.64
                            73 2.67  21 2.67  66 2.76  50 2.85
  59  0.705  0.050  0.220-  66 2.52  48 2.55  37 2.56  68 2.58  67 2.58  19 2.60  60 2.63   1 2.66
                            77 2.66  80 2.67  49 2.69  28 2.70
  60  0.793  0.130  0.317-  67 2.54  77 2.58  18 2.59   2 2.63  59 2.63  75 2.64  22 2.67   1 2.69
                             9 2.72  19 2.76  17 2.77   4 2.81
  61  0.539  0.873  0.317-  78 2.49  52 2.52  80 2.54  44 2.56  43 2.57  49 2.63  19 2.64   1 2.66
                            29 2.68   8 2.72  27 2.78  11 2.83
  62  0.797  0.123  0.035-  66 2.54  41 2.57  37 2.59  23 2.64  20 2.64  76 2.66  56 2.70  35 2.73
                            34 2.76
  63  0.546  0.870  0.036-  54 2.48  53 2.55  38 2.55  48 2.57  46 2.58  34 2.61  71 2.61  45 2.64
                            20 2.68
  64  0.207  0.543  0.224-  58 2.52   3 2.58  30 2.61  21 2.62  26 2.63  28 2.63  68 2.65  42 2.65
                            74 2.68  33 2.70  79 2.72  31 2.79
  65  0.952  0.297  0.221-  22 2.51  41 2.52  69 2.52  67 2.54  77 2.55  31 2.57  70 2.60  75 2.63
                            32 2.63  42 2.64  39 2.77  55 2.86
  66  0.872  0.964  0.129-  34 2.51  59 2.52  62 2.54  28 2.57  77 2.58  35 2.62  37 2.66  41 2.66
                            48 2.68  24 2.70  50 2.76  58 2.76
  67  0.714  0.290  0.223-  37 2.52  77 2.53  60 2.54  65 2.54  41 2.54  18 2.57  59 2.58  51 2.63
                            75 2.64  32 2.70  68 2.70  26 2.72
  68  0.458  0.291  0.221-  57 2.46  74 2.54  37 2.56  19 2.57  59 2.58  64 2.65  18 2.66  26 2.67
                            67 2.70   3 2.72  80 2.73  31 2.75
  69  0.876  0.457  0.128-  40 2.44  71 2.45  76 2.46  65 2.52  32 2.56  41 2.57  50 2.58  21 2.61
                            42 2.61  51 2.62  70 2.65  54 2.68
  70  0.128  0.207  0.129-  45 2.49  31 2.52  40 2.57  23 2.58  65 2.60  24 2.62  57 2.64  21 2.64
                            69 2.65  41 2.65  38 2.67  55 2.72
  71  0.792  0.622  0.040-  50 2.42  69 2.45  54 2.46  40 2.53  46 2.56  34 2.56  76 2.59  63 2.61
                            36 2.72
  72  0.298  0.625  0.042-  74 2.44  58 2.47  73 2.49  35 2.55  56 2.59  53 2.61  47 2.61  36 2.64
                            46 2.64
  73  0.386  0.711  0.129-  46 2.39  53 2.42  72 2.49  26 2.50  78 2.55  38 2.55  54 2.56  51 2.60
                            79 2.63  24 2.65  58 2.67  74 2.76
  74  0.382  0.452  0.126-  47 2.41  72 2.44  56 2.50  37 2.51  68 2.54  26 2.54  51 2.62  57 2.62
                            58 2.64  64 2.68  21 2.72  73 2.76
  75  0.793  0.379  0.321-  29 2.57  39 2.59  22 2.60  18 2.61  65 2.63  60 2.64  67 2.64  44 2.65
                             9 2.69  32 2.70  15 2.72   7 2.76
  76  0.791  0.377  0.039-  51 2.45  41 2.45  69 2.46  40 2.56  71 2.59  46 2.59  56 2.60  23 2.64
                            62 2.66
  77  0.956  0.053  0.221-  67 2.53  41 2.53  24 2.54  65 2.55  22 2.57  66 2.58  60 2.58   2 2.60
                            59 2.66  79 2.71  55 2.72  28 2.77
  78  0.458  0.797  0.224-  55 2.45  80 2.49  61 2.49  52 2.52  38 2.53  73 2.55  79 2.58  49 2.61
                            54 2.62  32 2.62  44 2.65  26 2.67
  79  0.213  0.798  0.225-  55 2.49  24 2.51   2 2.54  52 2.54  30 2.57  58 2.57  78 2.58  26 2.61
                            73 2.63  77 2.71  64 2.72  28 2.76
  80  0.462  0.030  0.222-  38 2.48  48 2.48  78 2.49  55 2.53  49 2.53  57 2.54  61 2.54  19 2.55
                            43 2.67  59 2.67  31 2.70  68 2.73
  81  0.078  0.088  0.564-  82 0.75
  82  0.160  0.047  0.561-  81 0.75
 
  LATTYP: Found a hexagonal cell.
 ALAT       =    10.5600004196
 C/A-ratio  =     2.0833332505
  
  Lattice vectors:
  
 A1 = (   5.2800002098,  -9.1452286274,   0.0000000000)
 A2 = ( -10.5600004196,   0.0000000000,   0.0000000000)
 A3 = (   0.0000000000,   0.0000000000, -22.0000000000)


Analysis of symmetry for initial positions (statically):
=====================================================================
 Subroutine PRICEL returns:
 Original cell was already a primitive cell.
 

 Routine SETGRP: Setting up the symmetry group for a 
 hexagonal supercell.


 Subroutine GETGRP returns: Found  1 space group operations
 (whereof  1 operations were pure point group operations)
 out of a pool of 24 trial point group operations.


The static configuration has the point symmetry C_1 .


Analysis of symmetry for dynamics (positions and initial velocities):
=====================================================================
 Subroutine PRICEL returns:
 Original cell was already a primitive cell.
 

 Routine SETGRP: Setting up the symmetry group for a 
 hexagonal supercell.


 Subroutine GETGRP returns: Found  1 space group operations
 (whereof  1 operations were pure point group operations)
 out of a pool of 24 trial point group operations.


The dynamic configuration has the point symmetry C_1 .


Analysis of constrained symmetry for selective dynamics:
=====================================================================
 Subroutine PRICEL returns:
 Original cell was already a primitive cell.
 

 Routine SETGRP: Setting up the symmetry group for a 
 hexagonal supercell.


 Subroutine GETGRP returns: Found  1 space group operations
 (whereof  1 operations were pure point group operations)
 out of a pool of 24 trial point group operations.


The constrained configuration has the point symmetry C_1 .


Analysis of structural, dynamic, and magnetic symmetry:
=====================================================================
 Subroutine PRICEL returns:
 Original cell was already a primitive cell.
 

 Routine SETGRP: Setting up the symmetry group for a 
 hexagonal supercell.


 Subroutine GETGRP returns: Found  1 space group operations
 (whereof  1 operations were pure point group operations)
 out of a pool of 24 trial point group operations.


The magnetic configuration has the point symmetry C_1 .


 Subroutine INISYM returns: Found  1 space group operations
 (whereof  1 operations are pure point group operations),
 and found     1 'primitive' translations

 
 
 KPOINTS: mesh auto                               

Automatic generation of k-mesh.
Space group operators:
 irot       det(A)        alpha          n_x          n_y          n_z        tau_x        tau_y        tau_z
    1     1.000000     0.000001     1.000000     0.000000     0.000000     0.000000     0.000000     0.000000
 
 Subroutine IBZKPT returns following result:
 ===========================================
 
 Found     10 irreducible k-points:
 
 Following reciprocal coordinates:
            Coordinates               Weight
  0.000000  0.000000  0.000000      1.000000
  0.250000  0.000000  0.000000      2.000000
  0.500000  0.000000  0.000000      1.000000
  0.000000  0.250000  0.000000      2.000000
  0.250000  0.250000  0.000000      2.000000
  0.500000  0.250000  0.000000      2.000000
 -0.250000  0.250000  0.000000      2.000000
  0.000000  0.500000  0.000000      1.000000
  0.250000  0.500000  0.000000      2.000000
  0.500000  0.500000  0.000000      1.000000
 
 Following cartesian coordinates:
            Coordinates               Weight
  0.000000  0.000000  0.000000      1.000000
  0.023674 -0.013668  0.000000      2.000000
  0.047348 -0.027337  0.000000      1.000000
  0.000000  0.027337  0.000000      2.000000
  0.023674  0.013668  0.000000      2.000000
  0.047348  0.000000  0.000000      2.000000
 -0.023674  0.041005  0.000000      2.000000
  0.000000  0.054673  0.000000      1.000000
  0.023674  0.041005  0.000000      2.000000
  0.047348  0.027337  0.000000      1.000000
 


--------------------------------------------------------------------------------------------------------




 Dimension of arrays:
   k-points           NKPTS =     10   k-points in BZ     NKDIM =     10   number of bands    NBANDS=    590
   number of dos      NEDOS =    301   number of ions     NIONS =     82
   non local maximal  LDIM  =      6   non local SUM 2l+1 LMDIM =     18
   total plane-waves  NPLWV = ******
   max r-space proj   IRMAX =   7802   max aug-charges    IRDMAX=  33988
   dimension x,y,z NGX =    84 NGY =   84 NGZ =  168
   dimension x,y,z NGXF=   168 NGYF=  168 NGZF=  336
   support grid    NGXF=   168 NGYF=  168 NGZF=  336
   ions per type =              32  13  10  13  12   2
   NGX,Y,Z   is equivalent  to a cutoff of  13.22, 13.22, 12.70 a.u.
   NGXF,Y,Z  is equivalent  to a cutoff of  26.45, 26.45, 25.39 a.u.

 SYSTEM =  Pt111                                   
 POSCAR =  10.56                                   

 Startparameter for this run:
   NWRITE =      2    write-flag & timer
   PREC   = accura    normal or accurate (medium, high low for compatibility)
   ISTART =      0    job   : 0-new  1-cont  2-samecut
   ICHARG =      2    charge: 1-file 2-atom 10-const
   ISPIN  =      2    spin polarized calculation?
   LNONCOLLINEAR =      F non collinear calculations
   LSORBIT =      F    spin-orbit coupling
   INIWAV =      1    electr: 0-lowe 1-rand  2-diag
   LASPH  =      F    aspherical Exc in radial PAW
   METAGGA=      F    non-selfconsistent MetaGGA calc.

 Electronic Relaxation 1
   ENCUT  =  550.0 eV  40.42 Ry    6.36 a.u.  20.19 20.19 42.07*2*pi/ulx,y,z
   ENINI  =  550.0     initial cutoff
   ENAUG  =  587.0 eV  augmentation charge cutoff
   NELM   =    200;   NELMIN=  2; NELMDL= -5     # of ELM steps 
   EDIFF  = 0.1E-07   stopping-criterion for ELM
   LREAL  =      T    real-space projection
   NLSPLINE    = F    spline interpolate recip. space projectors
   LCOMPAT=      F    compatible to vasp.4.4
   GGA_COMPAT  = T    GGA compatible to vasp.4.4-vasp.4.6
   LMAXPAW     = -100 max onsite density
   LMAXMIX     =    2 max onsite mixed and CHGCAR
   VOSKOWN=      0    Vosko Wilk Nusair interpolation
   ROPT   =   -0.00025  -0.00025  -0.00025  -0.00025
   ROPT   =   -0.00025  -0.00025
 Ionic relaxation
   EDIFFG = -.1E-01   stopping-criterion for IOM
   NSW    =    300    number of steps for IOM
   NBLOCK =      1;   KBLOCK =    300    inner block; outer block 
   IBRION =      2    ionic relax: 0-MD 1-quasi-New 2-CG
   NFREE  =      1    steps in history (QN), initial steepest desc. (CG)
   ISIF   =      2    stress and relaxation
   IWAVPR =     11    prediction:  0-non 1-charg 2-wave 3-comb
   ISYM   =      2    0-nonsym 1-usesym 2-fastsym
   LCORR  =      T    Harris-Foulkes like correction to forces

   POTIM  = 0.5000    time-step for ionic-motion
   TEIN   =    0.0    initial temperature
   TEBEG  =    0.0;   TEEND  =   0.0 temperature during run
   SMASS  =  -3.00    Nose mass-parameter (am)
   estimated Nose-frequenzy (Omega)   =  0.10E-29 period in steps =****** mass=  -0.255E-26a.u.
   SCALEE = 1.0000    scale energy and forces
   NPACO  =    256;   APACO  = 16.0  distance and # of slots for P.C.
   PSTRESS=    0.0 pullay stress

  Mass of Ions in am
   POMASS = 195.08 55.85 58.93 63.55 58.69  1.00
  Ionic Valenz
   ZVAL   =  10.00  8.00  9.00 11.00 10.00  1.00
  Atomic Wigner-Seitz radii
   RWIGS  =  -1.00 -1.00 -1.00 -1.00 -1.00 -1.00
  virtual crystal weights 
   VCA    =   1.00  1.00  1.00  1.00  1.00  1.00
   NELECT =     779.0000    total number of electrons
   NUPDOWN=      -1.0000    fix difference up-down

 DOS related values:
   EMIN   =  10.00;   EMAX   =-10.00  energy-range for DOS
   EFERMI =   0.00
   ISMEAR =     1;   SIGMA  =   0.10  broadening in eV -4-tet -1-fermi 0-gaus

 Electronic relaxation 2 (details)
   IALGO  =     68    algorithm
   LDIAG  =      T    sub-space diagonalisation (order eigenvalues)
   LSUBROT=      F    optimize rotation matrix (better conditioning)
   TURBO    =      0    0=normal 1=particle mesh
   IRESTART =      0    0=no restart 2=restart with 2 vectors
   NREBOOT  =      0    no. of reboots
   NMIN     =      0    reboot dimension
   EREF     =   0.00    reference energy to select bands
   IMIX   =      4    mixing-type and parameters
     AMIX     =   0.40;   BMIX     =  1.00
     AMIX_MAG =   1.60;   BMIX_MAG =  1.00
     AMIN     =   0.10
     WC   =   100.;   INIMIX=   1;  MIXPRE=   1;  MAXMIX= -45

 Intra band minimization:
   WEIMIN = 0.0010     energy-eigenvalue tresh-hold
   EBREAK =  0.42E-11  absolut break condition
   DEPER  =   0.30     relativ break condition  

   TIME   =   0.40     timestep for ELM

  volume/ion in A,a.u.               =      25.91       174.85
  Fermi-wavevector in a.u.,A,eV,Ry     =   1.171728  2.214245 18.680081  1.372947
  Thomas-Fermi vector in A             =   2.308168
 
 Write flags
   LWAVE        =      F    write WAVECAR
   LDOWNSAMPLE  =      F    k-point downsampling of WAVECAR
   LCHARG       =      F    write CHGCAR
   LVTOT        =      F    write LOCPOT, total local potential
   LVHAR        =      F    write LOCPOT, Hartree potential only
   LELF         =      F    write electronic localiz. function (ELF)
   LORBIT       =      0    0 simple, 1 ext, 2 COOP (PROOUT), +10 PAW based schemes


 Dipole corrections
   LMONO  =      F    monopole corrections only (constant potential shift)
   LDIPOL =      F    correct potential (dipole corrections)
   IDIPOL =      0    1-x, 2-y, 3-z, 4-all directions 
   EPSILON=  1.0000000 bulk dielectric constant

 Exchange correlation treatment:
   GGA     =    --    GGA type
   LEXCH   =     8    internal setting for exchange type
   VOSKOWN=      0    Vosko Wilk Nusair interpolation
   LHFCALC =     F    Hartree Fock is set to
   LHFONE  =     F    Hartree Fock one center treatment
   AEXX    =    0.0000 exact exchange contribution

 Linear response parameters
   LEPSILON=     F    determine dielectric tensor
   LRPA    =     F    only Hartree local field effects (RPA)
   LNABLA  =     F    use nabla operator in PAW spheres
   LVEL    =     F    velocity operator in full k-point grid
   LINTERFAST=   F  fast interpolation
   KINTER  =     0    interpolate to denser k-point grid
   CSHIFT  =0.1000    complex shift for real part using Kramers Kronig
   OMEGAMAX=  -1.0    maximum frequency
   DEG_THRESHOLD= 0.2000000E-02 threshold for treating states as degnerate
   RTIME   =   -0.100 relaxation time in fs
  (WPLASMAI=    0.000 imaginary part of plasma frequency in eV, 0.658/RTIME)
   DFIELD  = 0.0000000 0.0000000 0.0000000 field for delta impulse in time
 
 Orbital magnetization related:
   ORBITALMAG=     F  switch on orbital magnetization
   LCHIMAG   =     F  perturbation theory with respect to B field
   DQ        =  0.001000  dq finite difference perturbation B field
   LLRAUG    =     F  two centre corrections for induced B field



--------------------------------------------------------------------------------------------------------


 conjugate gradient relaxation of ions
   using selective dynamics as specified on POSCAR
 charge density and potential will be updated during run
 spin polarized calculation
 RMM-DIIS sequential band-by-band and
  variant of blocked Davidson during initial phase
 perform sub-space diagonalisation
    before iterative eigenvector-optimisation
 modified Broyden-mixing scheme, WC =      100.0
 initial mixing is a Kerker type mixing with AMIX =  0.4000 and BMIX =      1.0000
 Hartree-type preconditioning will be used
 using additional bands          200
 real space projection scheme for non local part
 use partial core corrections
 calculate Harris-corrections to forces 
   (improved forces if not selfconsistent)
 use gradient corrections 
 use of overlap-Matrix (Vanderbilt PP)
 Methfessel and Paxton  Order N= 1 SIGMA  =   0.10


--------------------------------------------------------------------------------------------------------


  energy-cutoff  :      550.00
  volume of cell :     2124.62
      direct lattice vectors                 reciprocal lattice vectors
    10.560000420  0.000000000  0.000000000     0.094696966 -0.054673319  0.000000000
     5.280000210  9.145228627  0.000000000     0.000000000  0.109346638  0.000000000
     0.000000000  0.000000000 22.000000000     0.000000000  0.000000000  0.045454545

  length of vectors
    10.560000420 10.560000420 22.000000000     0.109346638  0.109346638  0.045454545


 
 k-points in units of 2pi/SCALE and weight: mesh auto                               
   0.00000000  0.00000000  0.00000000       0.062
   0.02367424 -0.01366833  0.00000000       0.125
   0.04734848 -0.02733666  0.00000000       0.062
   0.00000000  0.02733666  0.00000000       0.125
   0.02367424  0.01366833  0.00000000       0.125
   0.04734848  0.00000000  0.00000000       0.125
  -0.02367424  0.04100499  0.00000000       0.125
   0.00000000  0.05467332  0.00000000       0.062
   0.02367424  0.04100499  0.00000000       0.125
   0.04734848  0.02733666  0.00000000       0.062
 
 k-points in reciprocal lattice and weights: mesh auto                               
   0.00000000  0.00000000  0.00000000       0.062
   0.25000000  0.00000000  0.00000000       0.125
   0.50000000  0.00000000  0.00000000       0.062
   0.00000000  0.25000000  0.00000000       0.125
   0.25000000  0.25000000  0.00000000       0.125
   0.50000000  0.25000000  0.00000000       0.125
  -0.25000000  0.25000000  0.00000000       0.125
   0.00000000  0.50000000  0.00000000       0.062
   0.25000000  0.50000000  0.00000000       0.125
   0.50000000  0.50000000  0.00000000       0.062
 
 position of ions in fractional coordinates (direct lattice) 
   0.78734136  0.87853021  0.31771166
   0.04294681  0.88216013  0.31595439
   0.27998018  0.37997393  0.31993672
   0.87529786  0.96087638  0.42396967
   0.12321986  0.46103677  0.42838572
   0.12595421  0.96057729  0.42156156
   0.87522009  0.45914297  0.42703711
   0.37570795  0.95899130  0.42044226
   0.87504707  0.21051136  0.42105257
   0.12628268  0.21001703  0.42274670
   0.62516328  0.96002167  0.42357393
   0.87524857  0.70968799  0.42644964
   0.37522563  0.20849664  0.42508706
   0.37650641  0.71096268  0.42401008
   0.62636436  0.46040438  0.42305315
   0.12522774  0.71027018  0.42643106
   0.62598109  0.20978741  0.42219312
   0.54819414  0.37596241  0.31751769
   0.53492307  0.12433711  0.31484844
   0.54700026  0.12353325  0.03994180
   0.12080895  0.46017830  0.12803950
   0.04288620  0.13685293  0.31410329
   0.04244149  0.13021000  0.03298030
   0.13048322  0.95798537  0.13183245
   0.37522186  0.46043075  0.42665488
   0.45454095  0.54571928  0.21885182
   0.62379047  0.71031204  0.42395313
   0.95571501  0.79013093  0.22104486
   0.79515429  0.62174314  0.31919089
   0.29172936  0.63103489  0.31833819
   0.20263023  0.28057175  0.22546492
   0.70645161  0.54939058  0.22075077
   0.04104040  0.63034311  0.32577640
   0.79731809  0.86162656  0.04207609
   0.05609859  0.86571859  0.03774080
   0.04641287  0.62819901  0.03699114
   0.62737558  0.22224168  0.12875060
   0.38211413  0.95500403  0.12988305
   0.03627788  0.38293317  0.32535706
   0.03114053  0.38167600  0.03750461
   0.87224044  0.21539432  0.12829500
   0.95471211  0.54518808  0.22389055
   0.29585796  0.11637539  0.32183665
   0.54149864  0.62898917  0.32260791
   0.29525378  0.11938697  0.03940923
   0.54825113  0.62531765  0.04365578
   0.29553136  0.37948250  0.03889216
   0.62548736  0.94995762  0.13208615
   0.70634189  0.79434825  0.22010408
   0.86572308  0.70559157  0.12880862
   0.62619676  0.46010837  0.12710353
   0.29829453  0.87592232  0.31812998
   0.30581838  0.86812735  0.04029659
   0.62671135  0.71465279  0.12827184
   0.22389857  0.02823957  0.22731031
   0.54269301  0.38102257  0.03461701
   0.37824999  0.20530955  0.13259126
   0.13618402  0.70497383  0.13178299
   0.70486941  0.05028396  0.22036332
   0.79320578  0.12992506  0.31741373
   0.53864845  0.87277431  0.31706663
   0.79655062  0.12311547  0.03453465
   0.54614634  0.87048754  0.03589640
   0.20722235  0.54282065  0.22417055
   0.95151324  0.29672189  0.22129229
   0.87185770  0.96385702  0.12897658
   0.71421099  0.29004436  0.22334568
   0.45764413  0.29147175  0.22083053
   0.87581008  0.45650690  0.12794668
   0.12769165  0.20692390  0.12876336
   0.79229095  0.62176839  0.04024823
   0.29784859  0.62540744  0.04208964
   0.38567508  0.71146547  0.12891873
   0.38207648  0.45160905  0.12649526
   0.79328566  0.37945328  0.32086138
   0.79092480  0.37725959  0.03945628
   0.95559961  0.05293444  0.22143250
   0.45755740  0.79715593  0.22440887
   0.21315004  0.79768722  0.22457904
   0.46239859  0.03021630  0.22200270
   0.07784795  0.08831946  0.56362889
   0.15981165  0.04709065  0.56083437
 
 position of ions in cartesian coordinates  (Angst):
  12.95296479  8.03435961  6.98965646
   5.11132395  8.06755604  6.95099653
   4.96285327  3.47494844  7.03860780
  14.31657326  8.78743416  9.32733280
   3.73547599  4.21628666  9.42448587
   6.40192478  8.78469891  9.27435428
  11.66659951  4.19896744  9.39481649
   9.03095040  8.77019467  9.24972973
  10.35199740  1.92517449  9.26315645
   2.44243515  1.92065374  9.30042739
  11.67063917  8.77961767  9.31862651
  12.98977802  6.49025890  9.38189209
   5.06324508  1.90674947  9.35191522
   7.72979098  6.50191623  9.32822182
   9.04534316  4.21050335  9.30716921
   5.07263171  6.49558321  9.38148337
   7.71803813  1.91855385  9.28824870
   7.77401194  3.43826220  6.98538912
   6.30528782  1.13709133  6.92666564
   6.42857854  1.12973983  0.87871960
   3.70548407  4.20843578  2.81686897
   1.17546176  1.25155133  6.91027244
   1.13569097  1.19080020  0.72556650
   6.43606578  8.76099519  2.90031393
   6.39341750  4.21074446  9.38640737
   7.68135056  4.99072754  4.81474005
  10.33767531  6.49596602  9.32696897
  14.26424239  7.22592798  4.86298700
  11.67963354  5.68598319  7.02219952
   6.41252658  5.77095838  7.00344026
   3.62119418  2.56589278  4.96022829
  10.36091172  5.02430245  4.85651690
   3.76159842  5.76463183  7.16708075
  12.96906778  7.87977186  0.92567400
   5.16339550  7.91719447  0.83029765
   3.80701088  5.74502359  0.81380505
   7.79852245  2.03245096  2.83251312
   9.07754686  8.73373018  2.85742705
   2.40498160  3.50201139  7.15785523
   2.34409331  3.49051425  0.82510140
  10.34814148  1.96983035  2.82248993
  12.96035349  4.98586960  4.92559202
   3.73872231  1.06427958  7.08040632
   9.03928885  5.75224978  7.09737410
   3.74824325  1.09182115  0.86700304
   9.09120953  5.71867289  0.96042722
   5.12447898  3.47045423  0.85562744
  11.62092318  8.68757958  2.90589533
  11.65312961  7.26449633  4.84228978
  12.86755974  6.45279623  2.83378953
   9.04201027  4.20779619  2.79627770
   7.77486039  8.01050985  6.99885960
   7.81315482  7.93922313  0.88652503
  10.39143898  6.53566319  2.82198042
   2.51347389  0.25825733  5.00082675
   7.74263770  3.48453850  0.76157429
   5.07835445  1.87760273  2.91700770
   5.16036530  6.44714688  2.89922570
   7.70892058  0.45985829  4.84799308
   9.06225770  1.18819436  6.98310206
  10.29637643  7.98172060  6.97546592
   9.06162455  1.12591908  0.75976228
  10.36347996  7.96080760  0.78972076
   5.05436124  4.96421897  4.93175206
  11.61467189  2.71358951  4.86843040
  14.29598293  8.81469279  2.83748465
   9.07350258  2.65252196  4.91360499
   6.37169315  2.66557579  4.85827162
  11.65891135  4.17485993  2.81482702
   2.44098212  1.89236634  2.83279397
  11.64953004  5.68621407  0.88546096
   6.44743266  5.71949403  0.92597203
   7.82926683  6.50651440  2.83621200
   6.41922371  4.13006800  2.78289578
  10.38061028  3.47018703  7.05895045
  10.34409694  3.45012521  0.86803825
  10.37062613  0.48409754  4.87151493
   9.04078979  7.29017323  4.93699507
   6.46265315  7.29503196  4.94073890
   5.04247138  0.27633499  4.88405930
   1.28840121  0.80770167 12.39983550
   1.93624968  0.43065475 12.33835615
 


--------------------------------------------------------------------------------------------------------


 k-point  1 :   0.0000 0.0000 0.0000  plane waves:   62167
 k-point  2 :   0.2500 0.0000 0.0000  plane waves:   62237
 k-point  3 :   0.5000 0.0000 0.0000  plane waves:   62242
 k-point  4 :   0.0000 0.2500 0.0000  plane waves:   62237
 k-point  5 :   0.2500 0.2500 0.0000  plane waves:   62237
 k-point  6 :   0.5000 0.2500 0.0000  plane waves:   62180
 k-point  7 :  -0.2500 0.2500 0.0000  plane waves:   62180
 k-point  8 :   0.0000 0.5000 0.0000  plane waves:   62242
 k-point  9 :   0.2500 0.5000 0.0000  plane waves:   62180
 k-point 10 :   0.5000 0.5000 0.0000  plane waves:   62242

 maximum and minimum number of plane-waves per node :     15586    15521

 maximum number of plane-waves:     62242
 maximum index in each direction: 
   IXMAX=   20   IYMAX=   20   IZMAX=   42
   IXMIN=  -20   IYMIN=  -20   IZMIN=  -42


 real space projection operators:
  total allocation   :      77946.81 KBytes
  max/ min on nodes  :      19507.72      19467.32


 parallel 3D FFT for wavefunctions:
    minimum data exchange during FFTs selected (reduces bandwidth)
 parallel 3D FFT for charge:
    minimum data exchange during FFTs selected (reduces bandwidth)


 total amount of memory used by VASP MPI-rank0   439780. kBytes
=======================================================================

   base      :      30000. kBytes
   nonlr-proj:      34871. kBytes
   fftplans  :      17962. kBytes
   grid      :      55536. kBytes
   one-center:        653. kBytes
   wavefun   :     300758. kBytes
 
     INWAV:  cpu time    0.0000: real time    0.0000
 Broyden mixing: mesh for mixing (old mesh)
   NGX = 41   NGY = 41   NGZ = 85
  (NGX  =168   NGY  =168   NGZ  =336)
  gives a total of 142885 points

 initial charge density was supplied:
 charge density of overlapping atoms calculated
 number of electron     779.0000000 magnetization     231.0000000
 keeping initial charge density in first step


--------------------------------------------------------------------------------------------------------


 Maximum index for non-local projection operator         1902
 Maximum index for augmentation-charges         2095 (set IRDMAX)


--------------------------------------------------------------------------------------------------------


 First call to EWALD:  gamma=   0.138
 Maximum number of real-space cells 4x 4x 2
 Maximum number of reciprocal cells 2x 2x 4

    FEWALD:  cpu time    0.0044: real time    0.0044


--------------------------------------- Iteration      1(   1)  ---------------------------------------


    POTLOK:  cpu time    0.4217: real time    0.4548
    SETDIJ:  cpu time    0.0340: real time    0.0343
     EDDAV:  cpu time  168.9055: real time  169.3924
       DOS:  cpu time    0.0040: real time    0.0042
    --------------------------------------------
      LOOP:  cpu time  169.3652: real time  169.8857

 eigenvalue-minimisations  : 23600
 total energy-change (2. order) : 0.7899887E+04  (-0.3293124E+05)
 number of electron     779.0000000 magnetization     231.0000000
 augmentation part      779.0000000 magnetization     231.0000000

 Free energy of the ion-electron system (eV)
  ---------------------------------------------------
  alpha Z        PSCENC =      2242.73605240
  Ewald energy   TEWEN  =    222858.31427236
  -Hartree energ DENC   =   -295148.92179500
  -exchange      EXHF   =         0.00000000
  -V(xc)+E(xc)   XCENC  =      1389.39171222
  PAW double counting   =     64138.93409606   -66040.85166731
  entropy T*S    EENTRO =        -0.00444546
  eigenvalues    EBANDS =      8229.14704731
  atomic energy  EATOM  =     70231.14214495
  Solvation  Ediel_sol  =         0.00000000
  ---------------------------------------------------
  free energy    TOTEN  =      7899.88741753 eV

  energy without entropy =     7899.89186299  energy(sigma->0) =     7899.88889935


--------------------------------------------------------------------------------------------------------




--------------------------------------- Iteration      1(   2)  ---------------------------------------


     EDDAV:  cpu time  168.4797: real time  168.9479
       DOS:  cpu time    0.0044: real time    0.0043
    --------------------------------------------
      LOOP:  cpu time  168.4841: real time  168.9523

 eigenvalue-minimisations  : 23600
 total energy-change (2. order) :-0.7044271E+04  (-0.6295512E+04)
 number of electron     779.0000000 magnetization     231.0000000
 augmentation part      779.0000000 magnetization     231.0000000

 Free energy of the ion-electron system (eV)
  ---------------------------------------------------
  alpha Z        PSCENC =      2242.73605240
  Ewald energy   TEWEN  =    222858.31427236
  -Hartree energ DENC   =   -295148.92179500
  -exchange      EXHF   =         0.00000000
  -V(xc)+E(xc)   XCENC  =      1389.39171222
  PAW double counting   =     64138.93409606   -66040.85166731
  entropy T*S    EENTRO =         0.00127051
  eigenvalues    EBANDS =      1184.87036245
  atomic energy  EATOM  =     70231.14214495
  Solvation  Ediel_sol  =         0.00000000
  ---------------------------------------------------
  free energy    TOTEN  =       855.61644864 eV

  energy without entropy =      855.61517813  energy(sigma->0) =      855.61602514


--------------------------------------------------------------------------------------------------------




--------------------------------------- Iteration      1(   3)  ---------------------------------------


     EDDAV:  cpu time  168.6918: real time  169.1632
       DOS:  cpu time    0.0046: real time    0.0046
    --------------------------------------------
      LOOP:  cpu time  168.6965: real time  169.1678

 eigenvalue-minimisations  : 23600
 total energy-change (2. order) :-0.1232093E+04  (-0.9978416E+03)
 number of electron     779.0000000 magnetization     231.0000000
 augmentation part      779.0000000 magnetization     231.0000000

 Free energy of the ion-electron system (eV)
  ---------------------------------------------------
  alpha Z        PSCENC =      2242.73605240
  Ewald energy   TEWEN  =    222858.31427236
  -Hartree energ DENC   =   -295148.92179500
  -exchange      EXHF   =         0.00000000
  -V(xc)+E(xc)   XCENC  =      1389.39171222
  PAW double counting   =     64138.93409606   -66040.85166731
  entropy T*S    EENTRO =        -0.00196974
  eigenvalues    EBANDS =       -47.21976635
  atomic energy  EATOM  =     70231.14214495
  Solvation  Ediel_sol  =         0.00000000
  ---------------------------------------------------
  free energy    TOTEN  =      -376.47692041 eV

  energy without entropy =     -376.47495067  energy(sigma->0) =     -376.47626383


--------------------------------------------------------------------------------------------------------




--------------------------------------- Iteration      1(   4)  ---------------------------------------


     EDDAV:  cpu time  199.9968: real time  200.5362
       DOS:  cpu time    0.0048: real time    0.0048
    --------------------------------------------
      LOOP:  cpu time  200.0016: real time  200.5410

 eigenvalue-minimisations  : 29370
 total energy-change (2. order) :-0.1198762E+03  (-0.1099771E+03)
 number of electron     779.0000000 magnetization     231.0000000
 augmentation part      779.0000000 magnetization     231.0000000

 Free energy of the ion-electron system (eV)
  ---------------------------------------------------
  alpha Z        PSCENC =      2242.73605240
  Ewald energy   TEWEN  =    222858.31427236
  -Hartree energ DENC   =   -295148.92179500
  -exchange      EXHF   =         0.00000000
  -V(xc)+E(xc)   XCENC  =      1389.39171222
  PAW double counting   =     64138.93409606   -66040.85166731
  entropy T*S    EENTRO =         0.00551451
  eigenvalues    EBANDS =      -167.10343358
  atomic energy  EATOM  =     70231.14214495
  Solvation  Ediel_sol  =         0.00000000
  ---------------------------------------------------
  free energy    TOTEN  =      -496.35310339 eV

  energy without entropy =     -496.35861790  energy(sigma->0) =     -496.35494156


--------------------------------------------------------------------------------------------------------




--------------------------------------- Iteration      1(   5)  ---------------------------------------


     EDDAV:  cpu time  190.1278: real time  190.5823
       DOS:  cpu time    0.0048: real time    0.0048
    CHARGE:  cpu time   10.5880: real time   10.6134
    MIXING:  cpu time    0.0099: real time    0.0107
    --------------------------------------------
      LOOP:  cpu time  200.7305: real time  201.2112

 eigenvalue-minimisations  : 27560
 total energy-change (2. order) :-0.4529774E+01  (-0.4494851E+01)
 number of electron     779.0000022 magnetization     216.3359490
 augmentation part      334.8804769 magnetization     184.7436575

 Broyden mixing:
  rms(total) = 0.11883E+02    rms(broyden)= 0.11883E+02
  rms(prec ) = 0.12199E+02
  weight for this iteration     100.00

 Free energy of the ion-electron system (eV)
  ---------------------------------------------------
  alpha Z        PSCENC =      2242.73605240
  Ewald energy   TEWEN  =    222858.31427236
  -Hartree energ DENC   =   -295148.92179500
  -exchange      EXHF   =         0.00000000
  -V(xc)+E(xc)   XCENC  =      1389.39171222
  PAW double counting   =     64138.93409606   -66040.85166731
  entropy T*S    EENTRO =         0.00714934
  eigenvalues    EBANDS =      -171.63484231
  atomic energy  EATOM  =     70231.14214495
  Solvation  Ediel_sol  =         0.00000000
  ---------------------------------------------------
  free energy    TOTEN  =      -500.88287729 eV

  energy without entropy =     -500.89002663  energy(sigma->0) =     -500.88526040


--------------------------------------------------------------------------------------------------------




--------------------------------------- Iteration      1(   6)  ---------------------------------------


    POTLOK:  cpu time    0.4098: real time    0.4108
    SETDIJ:  cpu time    0.0335: real time    0.0336
    EDDIAG:  cpu time   29.4456: real time   29.5258
  RMM-DIIS:  cpu time  102.6570: real time  102.9415
    ORTHCH:  cpu time    3.4099: real time    3.4192
       DOS:  cpu time    0.0044: real time    0.0044
    CHARGE:  cpu time   10.3469: real time   10.3754
    MIXING:  cpu time    0.0100: real time    0.0103
    --------------------------------------------
      LOOP:  cpu time  146.3171: real time  146.7209

 eigenvalue-minimisations  : 23957
 total energy-change (2. order) :-0.1699176E+03  (-0.9201416E+02)
 number of electron     779.0000024 magnetization     212.3482696
 augmentation part      406.4180487 magnetization     178.1479056

 Broyden mixing:
  rms(total) = 0.19640E+02    rms(broyden)= 0.19640E+02
  rms(prec ) = 0.25952E+02
  weight for this iteration     100.00

 eigenvalues of (default mixing * dielectric matrix)
  average eigenvalue GAMMA=   0.2281
  0.2281

 Free energy of the ion-electron system (eV)
  ---------------------------------------------------
  alpha Z        PSCENC =      2242.73605240
  Ewald energy   TEWEN  =    222858.31427236
  -Hartree energ DENC   =   -293493.73157972
  -exchange      EXHF   =         0.00000000
  -V(xc)+E(xc)   XCENC  =      1344.81864861
  PAW double counting   =     69315.32072740   -71007.70902882
  entropy T*S    EENTRO =        -0.00145569
  eigenvalues    EBANDS =     -2161.69025546
  atomic energy  EATOM  =     70231.14214495
  Solvation  Ediel_sol  =         0.00000000
  ---------------------------------------------------
  free energy    TOTEN  =      -670.80047397 eV

  energy without entropy =     -670.79901829  energy(sigma->0) =     -670.79998874


--------------------------------------------------------------------------------------------------------




--------------------------------------- Iteration      1(   7)  ---------------------------------------


    POTLOK:  cpu time    0.4092: real time    0.4102
    SETDIJ:  cpu time    0.0336: real time    0.0337
    EDDIAG:  cpu time   29.5583: real time   29.6413
  RMM-DIIS:  cpu time  101.2444: real time  101.5266
    ORTHCH:  cpu time    3.7474: real time    3.7578
       DOS:  cpu time    0.0047: real time    0.0048
    CHARGE:  cpu time   10.4055: real time   10.4343
    MIXING:  cpu time    0.0103: real time    0.0103
    --------------------------------------------
      LOOP:  cpu time  145.4134: real time  145.8189

 eigenvalue-minimisations  : 23657
 total energy-change (2. order) : 0.1191419E+03  (-0.1655524E+02)
 number of electron     779.0000019 magnetization     207.5741215
 augmentation part      365.7444455 magnetization     164.6449025

 Broyden mixing:
  rms(total) = 0.15845E+02    rms(broyden)= 0.15845E+02
  rms(prec ) = 0.21500E+02
  weight for this iteration     100.00

 eigenvalues of (default mixing * dielectric matrix)
  average eigenvalue GAMMA=   0.2722
  0.3877  0.1566

 Free energy of the ion-electron system (eV)
  ---------------------------------------------------
  alpha Z        PSCENC =      2242.73605240
  Ewald energy   TEWEN  =    222858.31427236
  -Hartree energ DENC   =   -294208.68984152
  -exchange      EXHF   =         0.00000000
  -V(xc)+E(xc)   XCENC  =      1363.57351508
  PAW double counting   =     70376.71850667   -72229.14083300
  entropy T*S    EENTRO =         0.00143596
  eigenvalues    EBANDS =     -1186.31381745
  atomic energy  EATOM  =     70231.14214495
  Solvation  Ediel_sol  =         0.00000000
  ---------------------------------------------------
  free energy    TOTEN  =      -551.65856456 eV

  energy without entropy =     -551.66000052  energy(sigma->0) =     -551.65904321


--------------------------------------------------------------------------------------------------------




--------------------------------------- Iteration      1(   8)  ---------------------------------------


    POTLOK:  cpu time    0.4099: real time    0.4112
    SETDIJ:  cpu time    0.0335: real time    0.0336
    EDDIAG:  cpu time   29.6070: real time   29.7004
  RMM-DIIS:  cpu time  101.6502: real time  101.8920
    ORTHCH:  cpu time    3.3935: real time    3.4016
       DOS:  cpu time    0.0048: real time    0.0048
    CHARGE:  cpu time   10.2023: real time   10.2311
    MIXING:  cpu time    0.0104: real time    0.0104
    --------------------------------------------
      LOOP:  cpu time  145.3117: real time  145.6851

 eigenvalue-minimisations  : 23670
 total energy-change (2. order) : 0.6293846E+02  (-0.1055149E+02)
 number of electron     779.0000030 magnetization     200.4901737
 augmentation part      370.7960603 magnetization     162.0903815

 Broyden mixing:
  rms(total) = 0.16451E+02    rms(broyden)= 0.16451E+02
  rms(prec ) = 0.19283E+02
  weight for this iteration     100.00

 eigenvalues of (default mixing * dielectric matrix)
  average eigenvalue GAMMA=   0.3064
  0.5881  0.2505  0.0805

 Free energy of the ion-electron system (eV)
  ---------------------------------------------------
  alpha Z        PSCENC =      2242.73605240
  Ewald energy   TEWEN  =    222858.31427236
  -Hartree energ DENC   =   -294518.70442505
  -exchange      EXHF   =         0.00000000
  -V(xc)+E(xc)   XCENC  =      1368.49826790
  PAW double counting   =     71652.51186956   -73579.61243692
  entropy T*S    EENTRO =         0.00224466
  eigenvalues    EBANDS =      -743.60809084
  atomic energy  EATOM  =     70231.14214495
  Solvation  Ediel_sol  =         0.00000000
  ---------------------------------------------------
  free energy    TOTEN  =      -488.72010099 eV

  energy without entropy =     -488.72234565  energy(sigma->0) =     -488.72084921


--------------------------------------------------------------------------------------------------------




--------------------------------------- Iteration      1(   9)  ---------------------------------------


    POTLOK:  cpu time    0.4104: real time    0.4114
    SETDIJ:  cpu time    0.0334: real time    0.0337
    EDDIAG:  cpu time   29.4835: real time   29.5657
[...]
   0.360E+02 -.132E+02 -.154E+04   -.376E+02 0.134E+02 0.154E+04   0.166E+01 -.139E+00 0.204E+01   0.557E-03 0.555E-03 -.122E-03
   0.168E+01 0.257E+02 -.293E+04   -.159E+01 -.255E+02 0.293E+04   -.895E-01 -.117E+00 0.713E+00   0.435E-03 -.290E-03 -.278E-03
   -.132E+02 0.151E+00 -.292E+04   0.128E+02 0.169E+00 0.292E+04   0.459E+00 -.300E+00 0.148E+01   0.305E-04 -.312E-05 0.809E-03
   0.454E+01 0.102E+02 -.289E+04   -.455E+01 -.105E+02 0.289E+04   0.307E-01 0.296E+00 0.104E+01   -.224E-03 -.337E-03 -.121E-03
   -.166E+02 -.119E+02 -.295E+04   0.167E+02 0.115E+02 0.295E+04   -.136E+00 0.332E+00 0.135E+01   0.398E-03 -.458E-03 0.118E-02
   0.386E+01 -.134E+02 -.292E+04   -.413E+01 0.136E+02 0.291E+04   0.297E+00 -.145E+00 0.182E+01   -.456E-03 -.506E-03 -.514E-03
   -.129E+02 0.944E+01 -.293E+04   0.128E+02 -.921E+01 0.293E+04   0.123E+00 -.238E+00 0.101E+01   -.142E-03 -.310E-03 0.347E-03
   -.142E+02 -.711E+01 -.289E+04   0.146E+02 0.741E+01 0.289E+04   -.329E+00 -.270E+00 0.165E+01   -.328E-03 -.215E-03 0.270E-03
   -.858E+01 -.338E+01 -.294E+04   0.879E+01 0.321E+01 0.294E+04   -.256E+00 0.121E+00 0.681E+00   0.116E-03 -.465E-03 0.433E-03
   -.857E+01 -.904E+00 -.292E+04   0.888E+01 0.565E+00 0.292E+04   -.297E+00 0.340E+00 0.106E+01   0.446E-03 -.116E-03 0.142E-03
   -.456E+01 -.191E+02 -.292E+04   0.427E+01 0.189E+02 0.292E+04   0.305E+00 0.224E+00 0.780E+00   -.185E-03 0.261E-03 0.139E-02
   0.203E+02 0.132E+02 -.292E+04   -.199E+02 -.131E+02 0.292E+04   -.431E+00 -.796E-01 0.132E+01   -.655E-03 0.615E-03 0.169E-03
   0.224E+02 -.127E+02 -.293E+04   -.222E+02 0.129E+02 0.293E+04   -.278E+00 -.228E+00 0.120E+01   -.554E-03 -.471E-03 0.960E-03
   0.119E+01 0.442E+01 -.291E+04   -.148E+01 -.480E+01 0.291E+04   0.271E+00 0.362E+00 0.103E+01   0.197E-03 0.678E-03 -.160E-04
   0.308E+02 -.710E+01 -.293E+04   -.306E+02 0.728E+01 0.293E+04   -.175E+00 -.200E+00 0.936E+00   0.360E-04 0.361E-03 0.359E-04
   0.691E+02 -.709E+02 -.153E+04   -.678E+02 0.711E+02 0.153E+04   -.121E+01 -.231E+00 0.176E+01   0.838E-03 0.546E-03 -.824E-05
   0.302E+02 -.431E+02 -.152E+04   -.313E+02 0.427E+02 0.152E+04   0.108E+01 0.437E+00 0.242E+01   0.640E-03 0.668E-04 -.720E-03
   0.334E+02 0.317E+02 0.304E+04   -.335E+02 -.318E+02 -.303E+04   0.138E+00 0.140E+00 -.235E+01   -.401E-04 0.717E-03 -.741E-03
   0.356E+02 -.829E+01 0.160E+04   -.364E+02 0.900E+01 -.160E+04   0.937E+00 -.623E+00 0.918E+00   0.344E-03 0.714E-03 -.381E-03
   -.691E+02 0.927E+01 -.148E+04   0.700E+02 -.857E+01 0.148E+04   -.891E+00 -.680E+00 0.262E+01   -.305E-03 -.627E-03 -.980E-03
   -.542E+02 0.511E+02 0.309E+04   0.548E+02 -.503E+02 -.308E+04   -.707E+00 -.883E+00 -.209E+01   -.230E-03 -.187E-03 -.183E-03
   -.340E+00 -.528E+02 0.159E+04   0.623E+00 0.523E+02 -.159E+04   -.340E+00 0.416E+00 -.749E+00   -.110E-03 -.589E-04 -.101E-05
   0.838E+01 0.210E+01 -.292E+04   -.856E+01 -.208E+01 0.292E+04   0.176E+00 -.350E-01 0.649E+00   0.333E-04 0.178E-03 -.142E-03
   -.243E+02 -.874E+01 0.951E+01   0.242E+02 0.902E+01 -.108E+02   0.178E-01 -.332E+00 0.127E+01   0.131E-03 -.325E-03 -.118E-02
   -.137E+02 0.796E+01 -.293E+04   0.132E+02 -.812E+01 0.293E+04   0.508E+00 0.192E+00 0.125E+01   0.168E-03 0.249E-03 0.579E-03
   0.198E+02 0.656E+02 0.639E+01   -.207E+02 -.668E+02 -.679E+01   0.109E+01 0.111E+01 0.309E+00   0.484E-03 -.228E-03 -.103E-02
   -.646E+02 0.629E+01 -.149E+04   0.650E+02 -.755E+01 0.148E+04   -.357E+00 0.134E+01 0.282E+01   -.346E-03 -.426E-03 -.281E-03
   0.255E+02 0.279E+02 -.154E+04   -.253E+02 -.272E+02 0.154E+04   -.257E+00 -.682E+00 0.226E+01   0.474E-03 0.275E-03 -.279E-03
   0.205E+02 -.641E+02 -.762E+02   -.215E+02 0.635E+02 0.765E+02   0.102E+01 0.514E+00 -.205E+00   -.316E-03 -.175E-03 -.103E-02
   -.222E+02 -.226E+02 0.561E+01   0.230E+02 0.233E+02 -.634E+01   -.825E+00 -.738E+00 0.732E+00   -.377E-03 -.691E-03 -.102E-02
   0.190E+02 0.150E+02 -.125E+04   -.191E+02 -.154E+02 0.125E+04   0.163E+00 0.454E+00 0.325E+00   0.153E-03 0.201E-03 -.370E-03
   -.598E+02 -.261E+01 0.244E+04   0.601E+02 0.138E+01 -.244E+04   -.392E+00 0.126E+01 -.274E+01   0.506E-03 -.667E-03 -.352E-03
   0.306E+02 -.140E+02 0.247E+04   -.304E+02 0.126E+02 -.247E+04   -.803E-01 0.146E+01 -.236E+01   0.360E-03 -.548E-03 -.776E-04
   0.229E+02 -.398E+01 0.247E+04   -.231E+02 0.455E+01 -.247E+04   0.110E+00 -.595E+00 -.288E+01   0.474E-03 -.169E-05 0.927E-04
   0.686E+01 0.518E+02 0.129E+04   -.603E+01 -.511E+02 -.129E+04   -.903E+00 -.698E+00 -.148E+00   0.493E-03 0.124E-02 -.331E-03
   0.335E+02 -.542E+02 0.128E+04   -.334E+02 0.539E+02 -.128E+04   -.127E+00 0.203E+00 -.455E+00   -.728E-03 0.321E-04 -.937E-04
   -.548E+02 -.258E+02 -.124E+04   0.550E+02 0.260E+02 0.124E+04   -.131E+00 -.210E+00 0.642E+00   -.372E-03 -.215E-04 -.421E-03
   -.934E+02 0.204E+02 0.248E+04   0.930E+02 -.202E+02 -.248E+04   0.293E+00 -.191E+00 -.269E+01   -.843E-04 0.307E-03 -.196E-03
   -.335E+02 0.459E+02 0.130E+04   0.327E+02 -.455E+02 -.130E+04   0.837E+00 -.528E+00 -.473E+00   -.148E-03 0.392E-03 -.164E-03
   -.433E+02 0.330E+01 -.437E+02   0.431E+02 -.292E+01 0.436E+02   0.193E+00 -.444E+00 0.394E-02   0.519E-04 -.862E-04 -.916E-03
   0.114E+02 -.796E+02 -.124E+04   -.115E+02 0.794E+02 0.124E+04   0.172E+00 0.223E+00 0.104E+01   -.676E-03 -.801E-03 -.644E-03
   0.135E+02 0.269E+02 -.123E+04   -.136E+02 -.269E+02 0.123E+04   0.527E-01 -.410E-01 0.287E+00   -.352E-03 0.240E-03 -.646E-03
   0.146E+02 -.465E+02 0.245E+04   -.152E+02 0.458E+02 -.245E+04   0.658E+00 0.690E+00 -.274E+01   -.208E-03 -.120E-03 -.297E-03
   0.437E+01 -.197E+02 0.275E+04   -.443E+01 0.198E+02 -.275E+04   0.759E-01 -.197E+00 -.235E+01   -.418E-03 -.754E-03 -.110E-03
   0.119E+03 0.291E+02 0.279E+04   -.120E+03 -.284E+02 -.279E+04   0.422E+00 -.668E+00 -.238E+01   0.413E-03 0.850E-03 0.760E-04
   -.362E+02 -.275E+02 0.142E+04   0.357E+02 0.264E+02 -.142E+04   0.454E+00 0.112E+01 -.432E+00   -.119E-03 -.211E-03 -.245E-03
   -.590E+02 0.675E+02 0.238E+02   0.590E+02 -.674E+02 -.247E+02   0.121E-01 -.211E+00 0.916E+00   0.291E-04 -.511E-03 -.255E-03
   -.883E+02 0.191E+02 0.141E+04   0.879E+02 -.187E+02 -.141E+04   0.515E+00 -.502E+00 -.156E+00   0.626E-03 -.902E-03 -.423E-03
   -.209E+02 0.939E+01 0.139E+04   0.211E+02 -.960E+01 -.139E+04   -.141E+00 0.271E+00 -.137E+00   -.209E-03 0.291E-03 -.997E-03
   0.442E+02 0.107E+02 -.139E+04   -.440E+02 -.109E+02 0.139E+04   -.315E+00 0.192E+00 0.144E+01   -.229E-03 0.125E-03 -.499E-03
   0.528E+02 -.806E+02 0.276E+04   -.525E+02 0.804E+02 -.276E+04   -.332E+00 0.212E+00 -.245E+01   -.165E-03 -.786E-03 -.435E-03
   -.136E+02 0.200E+01 0.138E+04   0.138E+02 -.177E+01 -.138E+04   -.118E+00 -.269E+00 -.475E+00   -.599E-03 -.130E-02 -.100E-02
   0.160E+02 -.674E+02 -.142E+02   -.153E+02 0.669E+02 0.144E+02   -.762E+00 0.612E+00 -.323E+00   -.488E-03 -.357E-03 -.260E-03
   0.308E+02 0.339E+02 0.344E+04   -.309E+02 -.331E+02 -.344E+04   0.901E-01 -.846E+00 -.358E+01   0.591E-03 0.156E-02 0.421E-03
   0.631E+02 0.861E+01 0.174E+04   -.633E+02 -.929E+01 -.174E+04   0.146E+00 0.701E+00 -.217E+00   -.301E-03 0.881E-03 -.211E-03
   0.102E+03 -.314E+02 0.172E+04   -.102E+03 0.314E+02 -.172E+04   -.184E+00 0.144E-01 0.444E-01   0.969E-04 -.475E-03 -.103E-02
   0.138E+02 0.705E+02 0.860E+02   -.145E+02 -.703E+02 -.869E+02   0.606E+00 -.229E+00 0.826E+00   0.730E-03 0.431E-03 0.485E-04
   0.146E+02 0.524E+02 -.170E+04   -.142E+02 -.519E+02 0.170E+04   -.436E+00 -.487E+00 0.139E+01   0.116E-02 0.287E-03 -.634E-03
   -.386E+02 0.332E+02 -.167E+04   0.377E+02 -.329E+02 0.167E+04   0.104E+01 -.261E+00 0.231E+01   -.696E-03 -.106E-03 -.561E-03
   -.718E+01 0.995E+02 0.339E+04   0.727E+01 -.999E+02 -.339E+04   -.142E+00 0.455E+00 -.283E+01   0.555E-03 0.542E-03 -.329E-03
   -.164E+02 -.779E+02 0.342E+04   0.156E+02 0.776E+02 -.341E+04   0.931E+00 0.334E+00 -.265E+01   -.106E-02 -.102E-02 -.831E-03
   0.108E+03 0.805E+01 -.692E+02   -.108E+03 -.782E+01 0.692E+02   0.279E-01 -.336E+00 -.135E+00   0.222E-03 0.140E-03 -.136E-02
   -.115E+03 -.442E+02 0.425E+02   0.114E+03 0.440E+02 -.427E+02   0.347E+00 0.210E+00 0.218E+00   -.390E-03 -.383E-03 -.488E-03
   -.132E+02 0.533E+02 0.181E+04   0.128E+02 -.527E+02 -.181E+04   0.422E+00 -.582E+00 -.662E+00   0.120E-02 -.312E-03 -.220E-03
   0.709E+01 -.767E+02 0.494E+02   -.666E+01 0.755E+02 -.502E+02   -.416E+00 0.126E+01 0.757E+00   0.457E-03 0.457E-03 -.841E-03
   0.555E+02 -.376E+02 0.554E+01   -.550E+02 0.372E+02 -.597E+01   -.599E+00 0.424E+00 0.486E+00   0.144E-03 0.603E-03 -.968E-03
   -.733E+02 0.103E+01 0.155E+04   0.729E+02 -.923E+00 -.155E+04   0.399E+00 -.391E-01 -.156E+00   -.664E-03 0.293E-03 -.388E-03
   -.126E+02 0.194E+02 0.162E+04   0.130E+02 -.196E+02 -.162E+04   -.405E+00 0.211E+00 -.522E+00   -.194E-03 -.265E-03 0.471E-04
   -.101E+03 -.426E+01 0.308E+04   0.101E+03 0.436E+01 -.308E+04   -.488E+00 -.553E-01 -.137E+01   -.595E-03 -.376E-03 -.876E-04
   0.701E+02 -.524E+02 0.308E+04   -.704E+02 0.530E+02 -.308E+04   0.366E+00 -.599E+00 -.825E+00   0.395E-03 -.226E-03 -.931E-04
   0.145E+02 -.403E+02 0.155E+04   -.141E+02 0.401E+02 -.155E+04   -.422E+00 0.227E+00 -.250E-01   -.589E-04 -.105E-02 -.131E-02
   0.510E+02 0.211E+01 0.159E+04   -.506E+02 -.214E+01 -.159E+04   -.503E+00 0.691E-01 -.102E+00   0.530E-03 0.701E-03 -.809E-03
   -.369E+02 -.711E+02 -.155E+04   0.368E+02 0.713E+02 0.155E+04   0.140E+00 -.950E-01 0.742E+00   -.162E-03 -.355E-03 -.906E-03
   -.540E+02 0.295E+02 0.307E+04   0.544E+02 -.289E+02 -.307E+04   -.399E+00 -.596E+00 -.193E+01   -.968E-03 0.802E-03 0.192E-03
   -.450E+02 0.728E+02 0.775E+02   0.454E+02 -.725E+02 -.777E+02   -.382E+00 -.358E+00 0.179E+00   0.633E-03 0.883E-04 -.379E-03
   -.689E+00 0.625E+02 -.199E+01   0.640E+00 -.618E+02 0.183E+01   0.771E-01 -.837E+00 0.687E-01   -.779E-03 0.470E-03 0.177E-04
   0.446E+02 0.576E+01 -.296E+02   -.442E+02 -.512E+01 0.294E+02   -.393E+00 -.654E+00 0.144E+00   0.282E-03 0.622E-03 -.305E-03
   0.257E+02 -.487E+02 0.351E+02   -.261E+02 0.483E+02 -.354E+02   0.320E+00 0.467E+00 0.237E+00   -.935E-03 0.148E-03 -.125E-03
   0.175E+02 -.100E+02 -.242E+03   -.219E+02 0.125E+02 0.242E+03   0.434E+01 -.252E+01 -.409E+00   -.190E-04 0.801E-05 0.301E-04
   -.176E+02 0.104E+02 -.242E+03   0.219E+02 -.129E+02 0.242E+03   -.434E+01 0.252E+01 0.423E+00   -.913E-05 -.196E-06 0.317E-04
 -----------------------------------------------------------------------------------------------
   -.220E+01 -.888E+00 -.818E+01   0.231E-12 -.183E-12 0.199E-12   0.221E+01 0.886E+00 0.818E+01   -.531E-04 0.352E-03 -.223E-01
 
 
 POSITION                                       TOTAL-FORCE (eV/Angst)
 -----------------------------------------------------------------------------------
     12.95432      8.03462      6.98949        -0.001846     -0.001621      0.001756
      5.11180      8.06774      6.95054        -0.001679      0.001234      0.002228
      4.96311      3.47496      7.03815        -0.002050      0.000510     -0.000668
     14.31738      8.78690      9.32779         0.003700     -0.001460      0.001518
      3.73513      4.21649      9.42362        -0.003120     -0.001113     -0.001002
      6.40201      8.78422      9.27359        -0.001029     -0.002235     -0.000943
     11.66679      4.20021      9.39285         0.004833     -0.002508     -0.002606
      9.03027      8.77080      9.25067         0.001345     -0.000702      0.000467
     10.35330      1.92497      9.26212        -0.002366      0.000942     -0.001265
      2.44264      1.92087      9.30031         0.001815      0.003818      0.000343
     11.67080      8.78030      9.31790        -0.000645     -0.003951      0.000425
     12.98973      6.49096      9.38226         0.000583      0.000355      0.001619
      5.06322      1.90742      9.34992        -0.001325      0.001015      0.000296
      7.72957      6.50183      9.32732        -0.001332      0.002127     -0.000906
      9.04571      4.20986      9.30542        -0.005785     -0.002266     -0.004785
      5.07256      6.49527      9.38139         0.000008      0.004883      0.002222
      7.71939      1.91860      9.28843        -0.000019      0.005181      0.000631
      7.77153      3.43719      6.98363         0.001189      0.001731      0.003859
      6.30461      1.13589      6.92746         0.000844     -0.002007     -0.004051
      6.42858      1.12974      0.87872        -0.015575      0.007766     -0.000944
      3.70548      4.20844      2.81687         0.034506      0.038465     -0.011981
      1.17608      1.25129      6.91154        -0.005000     -0.000059     -0.004300
      1.13569      1.19080      0.72557        -0.019813      0.014157     -0.022196
      6.43607      8.76100      2.90031        -0.009117     -0.027542      0.027453
      6.39338      4.21080      9.38668         0.004155     -0.003037     -0.000635
      7.68135      4.99073      4.81474         0.036135      0.000659     -0.037387
     10.33707      6.49663      9.32617         0.004976      0.005383     -0.001561
     14.26424      7.22593      4.86299         0.047999     -0.033117     -0.031253
     11.68044      5.68686      7.02132        -0.001899     -0.001081     -0.000752
      6.41234      5.77062      7.00401         0.000927     -0.002473     -0.002226
      3.62119      2.56589      4.96023        -0.004282     -0.034502      0.033578
     10.36091      5.02430      4.85652         0.007596     -0.015534     -0.007110
      3.76224      5.76365      7.16906        -0.000703      0.000491      0.000559
     12.96907      7.87977      0.92567        -0.039164     -0.001282      0.001454
      5.16340      7.91719      0.83030         0.014785      0.010295      0.013819
      3.80701      5.74502      0.81381         0.018134     -0.000845     -0.024490
      7.79852      2.03245      2.83251        -0.047013     -0.010347      0.030657
      9.07755      8.73373      2.85743         0.009538     -0.016414     -0.011924
      2.40410      3.50138      7.15735        -0.000918      0.001274     -0.002128
      2.34409      3.49051      0.82510        -0.002834      0.007550     -0.000596
     10.34814      1.96983      2.82249        -0.001426     -0.019873      0.026636
     12.96035      4.98587      4.92559        -0.011000     -0.035731     -0.054727
      3.73944      1.06443      7.08010        -0.003963     -0.001913      0.000430
      9.03895      5.75137      7.09815         0.000406     -0.001249     -0.004575
      3.74824      1.09182      0.86700        -0.001658      0.018938      0.010361
      9.09121      5.71867      0.96043        -0.004038      0.013326      0.011920
      5.12448      3.47045      0.85563         0.029279      0.005197      0.003337
     11.62092      8.68758      2.90590         0.002688     -0.005312      0.044582
     11.65313      7.26450      4.84229        -0.007800      0.012138     -0.015904
     12.86756      6.45280      2.83379         0.023268      0.002164      0.008423
      9.04201      4.20780      2.79628         0.004174      0.028326     -0.022515
      7.77396      8.01059      6.99788         0.002040      0.000391     -0.000011
      7.81315      7.93922      0.88653        -0.005936      0.004764      0.025172
     10.39144      6.53566      2.82198         0.013067     -0.024248     -0.005652
      2.51347      0.25826      5.00083         0.015819      0.050947     -0.014648
      7.74264      3.48454      0.76157        -0.012096     -0.010616     -0.000055
      5.07835      1.87760      2.91701        -0.000560     -0.008573      0.001492
      5.16037      6.44715      2.89923        -0.015791     -0.003163     -0.013248
      7.70892      0.45986      4.84799         0.025301      0.001449     -0.004433
      9.05868      1.18710      6.98357         0.001907     -0.001689     -0.000575
     10.29667      7.98239      6.97609        -0.002400     -0.003030      0.000291
      9.06162      1.12592      0.75976        -0.022836     -0.009595     -0.008393
     10.36348      7.96081      0.78972        -0.013112      0.003390      0.021526
      5.05436      4.96422      4.93175        -0.000001     -0.029446     -0.002974
     11.61467      2.71359      4.86843         0.004987      0.009406      0.015479
     14.29598      8.81469      2.83748        -0.013202      0.011314      0.000608
      9.07350      2.65252      4.91360         0.014049     -0.030394      0.017625
      6.37169      2.66558      4.85827        -0.015627      0.012025     -0.002410
     11.65891      4.17486      2.81483        -0.010104      0.010073     -0.025083
      2.44098      1.89237      2.83279        -0.005145      0.034158      0.010540
     11.64953      5.68621      0.88546         0.000522      0.035947      0.007828
      6.44743      5.71949      0.92597        -0.002109      0.012565      0.028566
      7.82927      6.50651      2.83621        -0.030630      0.007397     -0.023064
      6.41922      4.13007      2.78290        -0.019902     -0.002453      0.000617
     10.37953      3.46986      7.05917        -0.000377      0.000425     -0.003395
     10.34410      3.45013      0.86804         0.010103     -0.005455     -0.008129
     10.37063      0.48410      4.87151        -0.025864     -0.007760      0.000176
      9.04079      7.29017      4.93700         0.005139     -0.041538      0.021957
      6.46265      7.29503      4.94074         0.053285      0.016104     -0.007958
      5.04247      0.27633      4.88406        -0.001874      0.008904      0.000657
      1.28785      0.80750     12.40184        -0.004090      0.000136      0.008433
      1.93583      0.43061     12.33938        -0.000048     -0.001190      0.003920
 -----------------------------------------------------------------------------------
    total drift:                                0.006166     -0.002136     -0.019439


--------------------------------------------------------------------------------------------------------



  FREE ENERGIE OF THE ION-ELECTRON SYSTEM (eV)
  ---------------------------------------------------
  free  energy   TOTEN  =      -514.66396463 eV

  energy  without entropy=     -514.67702963  energy(sigma->0) =     -514.66831963
 
 d Force = 0.2058310E-05[ 0.219E-06, 0.390E-05]  d Energy = 0.2526692E-05-0.468E-06
 d Force =-0.2014385E+01[-0.201E+01,-0.201E+01]  d Ewald  =-0.2014385E+01 0.175E-09


--------------------------------------------------------------------------------------------------------


    POTLOK:  cpu time    0.4496: real time    0.4507


--------------------------------------------------------------------------------------------------------




--------------------------------------------------------------------------------------------------------


  
 reached required accuracy - stopping structural energy minimisation
     LOOP+:  cpu time 2084.7940: real time 2090.4740
    4ORBIT:  cpu time    0.0000: real time    0.0000

 total amount of memory used by VASP MPI-rank0   439780. kBytes
=======================================================================

   base      :      30000. kBytes
   nonlr-proj:      34871. kBytes
   fftplans  :      17962. kBytes
   grid      :      55536. kBytes
   one-center:        653. kBytes
   wavefun   :     300758. kBytes
 
  
  
 General timing and accounting informations for this job:
 ========================================================
  
                  Total CPU time used (sec):    31801.521
                            User time (sec):    31760.855
                          System time (sec):       40.667
                         Elapsed time (sec):    31888.649
  
                   Maximum memory used (kb):     1490536.
                   Average memory used (kb):           0.
  
                          Minor page faults:      5002991
                          Major page faults:            0
                 Voluntary context switches:         3783
