 vasp.5.4.4.18Apr17-6-g9f103f2a35 (build Nov 30 2020 22:55:02) complex          
  
 executed on             LinuxIFC date 2023.06.01  22:10:44
 running on   40 total cores
 distrk:  each k-point on   40 cores,    1 groups
 distr:  one band on NCORES_PER_BAND=   4 cores,   10 groups


--------------------------------------------------------------------------------------------------------


 INCAR:
 POTCAR:    PAW_PBE Pt 04Feb2005                  
 POTCAR:    PAW_PBE Fe 06Sep2000                  
 POTCAR:    PAW_PBE Co 02Aug2007                  
 POTCAR:    PAW_PBE Cu 22Jun2005                  
 POTCAR:    PAW_PBE Ni 02Aug2007                  
 POTCAR:    PAW_PBE Pt 04Feb2005                  
   VRHFIN =Pt: s1d9                                                             
   LEXCH  = PE                                                                  
   EATOM  =   729.1176 eV,   53.5886 Ry                                         
                                                                                
   TITEL  = PAW_PBE Pt 04Feb2005                                                
   LULTRA =        F    use ultrasoft PP ?                                      
   IUNSCR =        1    unscreen: 0-lin 1-nonlin 2-no                           
   RPACOR =    2.330    partial core radius                                     
   POMASS =  195.080; ZVAL   =   10.000    mass and valenz                      
   RCORE  =    2.600    outmost cutoff radius                                   
   RWIGS  =    2.750; RWIGS  =    1.455    wigner-seitz radius (au A)           
   ENMAX  =  230.283; ENMIN  =  172.712 eV                                      
   ICORE  =        3    local potential                                         
   LCOR   =        T    correct aug charges                                     
   LPAW   =        T    paw PP                                                  
   EAUG   =  358.966                                                            
   DEXC   =    0.000                                                            
   RMAX   =    2.658    core radius for proj-oper                               
   RAUG   =    1.300    factor for augmentation sphere                          
   RDEP   =    2.761    radius for radial grids                                 
   RDEPT  =    2.203    core radius for aug-charge                              
                                                                                
   Atomic configuration                                                         
   16 entries                                                                   
     n  l   j            E        occ.                                          
     1  0  0.50    -78401.1885   2.0000                                         
     2  0  0.50    -13770.7750   2.0000                                         
     2  1  1.50    -11931.0468   6.0000                                         
     3  0  0.50     -3234.7234   2.0000                                         
     3  1  1.50     -2699.2216   6.0000                                         
     3  2  2.50     -2119.5714  10.0000                                         
     4  0  0.50      -695.1528   2.0000                                         
     4  1  1.50      -519.6034   6.0000                                         
     4  2  2.50      -306.6786  10.0000                                         
     4  3  3.50       -70.1041  14.0000                                         
     5  0  0.50      -101.7747   2.0000                                         
     5  1  1.50       -55.9873   6.0000                                         
     5  2  2.50        -6.1423   9.0000                                         
     6  0  0.50        -5.6573   1.0000                                         
     6  1  1.50        -6.8029   0.0000                                         
     5  3  2.50        -1.3606   0.0000                                         
   Description                                                                  
     l       E           TYP  RCUT    TYP  RCUT                                 
     2     -6.1423404     23  2.500                                             
     2     -7.5029230     23  2.500                                             
     0     -5.6573207     23  2.500                                             
     0      0.7416693     23  2.500                                             
     1     -2.7211652     23  2.600                                             
     1     20.4087390     23  2.600                                             
     3     -1.3605826     23  2.500                                             
  local pseudopotential read in
  partial core-charges read in
  partial kinetic energy density read in
  atomic valenz-charges read in
  non local Contribution for L=           2  read in
    real space projection operators read in
  non local Contribution for L=           2  read in
    real space projection operators read in
  non local Contribution for L=           0  read in
    real space projection operators read in
  non local Contribution for L=           0  read in
    real space projection operators read in
  non local Contribution for L=           1  read in
    real space projection operators read in
  non local Contribution for L=           1  read in
    real space projection operators read in
    PAW grid and wavefunctions read in
 
   number of l-projection  operators is LMAX  =           6
   number of lm-projection operators is LMMAX =          18
 
 POTCAR:    PAW_PBE Fe 06Sep2000                  
   VRHFIN =Fe:  d7 s1                                                           
   LEXCH  = PE                                                                  
   EATOM  =   594.3153 eV,   43.6809 Ry                                         
                                                                                
   TITEL  = PAW_PBE Fe 06Sep2000                                                
   LULTRA =        F    use ultrasoft PP ?                                      
   IUNSCR =        1    unscreen: 0-lin 1-nonlin 2-no                           
   RPACOR =    2.000    partial core radius                                     
   POMASS =   55.847; ZVAL   =    8.000    mass and valenz                      
   RCORE  =    2.300    outmost cutoff radius                                   
   RWIGS  =    2.460; RWIGS  =    1.302    wigner-seitz radius (au A)           
   ENMAX  =  267.882; ENMIN  =  200.911 eV                                      
   RCLOC  =    1.701    cutoff for local pot                                    
   LCOR   =        T    correct aug charges                                     
   LPAW   =        T    paw PP                                                  
   EAUG   =  511.368                                                            
   DEXC   =    0.000                                                            
   RMAX   =    2.356    core radius for proj-oper                               
   RAUG   =    1.300    factor for augmentation sphere                          
   RDEP   =    2.442    radius for radial grids                                 
   RDEPT  =    1.890    core radius for aug-charge                              
                                                                                
   Atomic configuration                                                         
    9 entries                                                                   
     n  l   j            E        occ.                                          
     1  0  0.50     -6993.8440   2.0000                                         
     2  0  0.50      -814.6047   2.0000                                         
     2  1  1.50      -693.3689   6.0000                                         
     3  0  0.50       -89.4732   2.0000                                         
     3  1  1.50       -55.6373   6.0000                                         
     3  2  2.50        -3.8151   7.0000                                         
     4  0  0.50        -4.2551   1.0000                                         
     4  1  1.50        -3.4015   0.0000                                         
     4  3  2.50        -1.3606   0.0000                                         
   Description                                                                  
     l       E           TYP  RCUT    TYP  RCUT                                 
     2     -3.8151135     23  2.300                                             
     2     -5.1756961     23  2.300                                             
     0     -4.2550963     23  2.300                                             
     0      7.2035603     23  2.300                                             
     1     -2.7211652     23  2.300                                             
     1     18.4316424     23  2.300                                             
  local pseudopotential read in
  partial core-charges read in
  partial kinetic energy density read in
  atomic valenz-charges read in
  non local Contribution for L=           2  read in
    real space projection operators read in
  non local Contribution for L=           2  read in
    real space projection operators read in
  non local Contribution for L=           0  read in
    real space projection operators read in
  non local Contribution for L=           0  read in
    real space projection operators read in
  non local Contribution for L=           1  read in
    real space projection operators read in
  non local Contribution for L=           1  read in
    real space projection operators read in
    PAW grid and wavefunctions read in
 
   number of l-projection  operators is LMAX  =           6
   number of lm-projection operators is LMMAX =          18
 
 POTCAR:    PAW_PBE Co 02Aug2007                  
   VRHFIN =Co: d8 s1                                                            
   LEXCH  = PE                                                                  
   EATOM  =   813.3670 eV,   59.7808 Ry                                         
                                                                                
   TITEL  = PAW_PBE Co 02Aug2007                                                
   LULTRA =        F    use ultrasoft PP ?                                      
   IUNSCR =        1    unscreen: 0-lin 1-nonlin 2-no                           
   RPACOR =    2.000    partial core radius                                     
   POMASS =   58.933; ZVAL   =    9.000    mass and valenz                      
   RCORE  =    2.300    outmost cutoff radius                                   
   RWIGS  =    2.460; RWIGS  =    1.302    wigner-seitz radius (au A)           
   ENMAX  =  267.968; ENMIN  =  200.976 eV                                      
   RCLOC  =    1.203    cutoff for local pot                                    
   LCOR   =        T    correct aug charges                                     
   LPAW   =        T    paw PP                                                  
   EAUG   =  477.818                                                            
   DEXC   =    0.000                                                            
   RMAX   =    2.360    core radius for proj-oper                               
   RAUG   =    1.300    factor for augmentation sphere                          
   RDEP   =    2.393    radius for radial grids                                 
   RDEPT  =    1.864    core radius for aug-charge                              
                                                                                
   Atomic configuration                                                         
    9 entries                                                                   
     n  l   j            E        occ.                                          
     1  0  0.50     -7587.6674   2.0000                                         
     2  0  0.50      -893.6084   2.0000                                         
     2  1  1.50      -764.5805   6.0000                                         
     3  0  0.50       -97.5973   2.0000                                         
     3  1  1.50       -60.9648   6.0000                                         
     3  2  2.50        -4.2382   8.0000                                         
     4  0  0.50        -4.3746   1.0000                                         
     4  1  1.50        -4.0817   0.0000                                         
     4  3  2.50        -1.3606   0.0000                                         
   Description                                                                  
     l       E           TYP  RCUT    TYP  RCUT                                 
     2     -4.2382362     23  2.300                                             
     2     -5.5988188     23  2.300                                             
     0     -4.3745797     23  2.300                                             
     0      5.7660125     23  2.300                                             
     1     -2.7211652     23  2.300                                             
     1     16.9860234     23  2.300                                             
  local pseudopotential read in
  partial core-charges read in
  partial kinetic energy density read in
  atomic valenz-charges read in
  non local Contribution for L=           2  read in
    real space projection operators read in
  non local Contribution for L=           2  read in
    real space projection operators read in
  non local Contribution for L=           0  read in
    real space projection operators read in
  non local Contribution for L=           0  read in
    real space projection operators read in
  non local Contribution for L=           1  read in
    real space projection operators read in
  non local Contribution for L=           1  read in
    real space projection operators read in
    PAW grid and wavefunctions read in
 
   number of l-projection  operators is LMAX  =           6
   number of lm-projection operators is LMMAX =          18
 
 POTCAR:    PAW_PBE Cu 22Jun2005                  
   VRHFIN =Cu: d10 p1                                                           
   LEXCH  = PE                                                                  
   EATOM  =  1390.9808 eV,  102.2342 Ry                                         
                                                                                
   TITEL  = PAW_PBE Cu 22Jun2005                                                
   LULTRA =        F    use ultrasoft PP ?                                      
   IUNSCR =        1    unscreen: 0-lin 1-nonlin 2-no                           
   RPACOR =    2.000    partial core radius                                     
   POMASS =   63.546; ZVAL   =   11.000    mass and valenz                      
   RCORE  =    2.300    outmost cutoff radius                                   
   RWIGS  =    2.200; RWIGS  =    1.164    wigner-seitz radius (au A)           
   ENMAX  =  295.446; ENMIN  =  221.585 eV                                      
   ICORE  =        3    local potential                                         
   LCOR   =        T    correct aug charges                                     
   LPAW   =        T    paw PP                                                  
   EAUG   =  586.980                                                            
   DEXC   =    0.000                                                            
   RMAX   =    2.344    core radius for proj-oper                               
   RAUG   =    1.300    factor for augmentation sphere                          
   RDEP   =    2.302    radius for radial grids                                 
   RDEPT  =    1.771    core radius for aug-charge                              
                                                                                
   Atomic configuration                                                         
    9 entries                                                                   
     n  l   j            E        occ.                                          
     1  0  0.50     -8850.2468   2.0000                                         
     2  0  0.50     -1062.3498   2.0000                                         
     2  1  1.50      -916.8226   6.0000                                         
     3  0  0.50      -114.6929   2.0000                                         
     3  1  1.50       -72.1325   6.0000                                         
     3  2  2.50        -5.0394  10.0000                                         
     4  0  0.50        -4.6097   1.0000                                         
     4  1  0.50        -4.0817   0.0000                                         
     4  3  2.50        -1.3606   0.0000                                         
   Description                                                                  
     l       E           TYP  RCUT    TYP  RCUT                                 
     2     -5.0393973     23  2.200                                             
     2     10.8846608     23  2.200                                             
     0     -4.6097109     23  2.200                                             
     0      8.2520465     23  2.200                                             
     1     -2.7211652     23  2.200                                             
     1     21.7055443     23  2.200                                             
     3      2.7211652     23  2.300                                             
  local pseudopotential read in
  partial core-charges read in
  partial kinetic energy density read in
  atomic valenz-charges read in
  non local Contribution for L=           2  read in
    real space projection operators read in
  non local Contribution for L=           2  read in
    real space projection operators read in
  non local Contribution for L=           0  read in
    real space projection operators read in
  non local Contribution for L=           0  read in
    real space projection operators read in
  non local Contribution for L=           1  read in
    real space projection operators read in
  non local Contribution for L=           1  read in
    real space projection operators read in
    PAW grid and wavefunctions read in
 
   number of l-projection  operators is LMAX  =           6
   number of lm-projection operators is LMMAX =          18
 
 POTCAR:    PAW_PBE Ni 02Aug2007                  
   VRHFIN =Ni:                                                                  
   LEXCH  = PE                                                                  
   EATOM  =  1077.6739 eV,   79.2068 Ry                                         
                                                                                
   TITEL  = PAW_PBE Ni 02Aug2007                                                
   LULTRA =        F    use ultrasoft PP ?                                      
   IUNSCR =        1    unscreen: 0-lin 1-nonlin 2-no                           
   RPACOR =    2.000    partial core radius                                     
   POMASS =   58.690; ZVAL   =   10.000    mass and valenz                      
   RCORE  =    2.300    outmost cutoff radius                                   
   RWIGS  =    2.430; RWIGS  =    1.286    wigner-seitz radius (au A)           
   ENMAX  =  269.532; ENMIN  =  202.149 eV                                      
   RCLOC  =    1.201    cutoff for local pot                                    
   LCOR   =        T    correct aug charges                                     
   LPAW   =        T    paw PP                                                  
   EAUG   =  544.565                                                            
   DEXC   =    0.000                                                            
   RMAX   =    2.357    core radius for proj-oper                               
   RAUG   =    1.300    factor for augmentation sphere                          
   RDEP   =    2.390    radius for radial grids                                 
   RDEPT  =    1.838    core radius for aug-charge                              
                                                                                
   Atomic configuration                                                         
    9 entries                                                                   
     n  l   j            E        occ.                                          
     1  0  0.50     -8206.4253   2.0000                                         
     2  0  0.50      -976.1748   2.0000                                         
     2  1  1.50      -839.0571   6.0000                                         
     3  0  0.50      -105.9991   2.0000                                         
     3  1  1.50       -66.4603   6.0000                                         
     3  2  2.50        -4.6458   9.0000                                         
     4  0  0.50        -4.4926   1.0000                                         
     4  1  1.50        -4.0817   0.0000                                         
     4  3  2.50        -1.3606   0.0000                                         
   Description                                                                  
     l       E           TYP  RCUT    TYP  RCUT                                 
     2     -4.6457903     23  2.300                                             
     2     -6.0063729     23  2.300                                             
     0     -4.4925590     23  2.300                                             
     0      5.0102601     23  2.300                                             
     1     -2.7211652     23  2.300                                             
     1     16.5183231     23  2.300                                             
  local pseudopotential read in
  partial core-charges read in
  partial kinetic energy density read in
  atomic valenz-charges read in
  non local Contribution for L=           2  read in
    real space projection operators read in
  non local Contribution for L=           2  read in
    real space projection operators read in
  non local Contribution for L=           0  read in
    real space projection operators read in
  non local Contribution for L=           0  read in
    real space projection operators read in
  non local Contribution for L=           1  read in
    real space projection operators read in
  non local Contribution for L=           1  read in
    real space projection operators read in
    PAW grid and wavefunctions read in
 
   number of l-projection  operators is LMAX  =           6
   number of lm-projection operators is LMMAX =          18
 
 Optimization of the real space projectors (new method)

 maximal supplied QI-value         = 14.36
 optimisation between [QCUT,QGAM] = [ 11.92, 23.98] = [ 39.79,161.09] Ry 
 Optimized for a Real-space Cutoff    1.49 Angstroem

   l    n(q)    QCUT    max X(q) W(low)/X(q) W(high)/X(q)  e(spline) 
   2     10    11.920    66.195    0.79E-04    0.18E-03    0.24E-06
   2     10    11.920    64.643    0.81E-04    0.19E-03    0.24E-06
   0     11    11.920    95.520    0.28E-04    0.54E-04    0.18E-06
   0     11    11.920    63.403    0.27E-04    0.52E-04    0.17E-06
   1     10    11.920    19.961    0.18E-04    0.11E-03    0.23E-06
   1     10    11.920    13.289    0.25E-04    0.87E-04    0.19E-06
 Optimization of the real space projectors (new method)

 maximal supplied QI-value         = 16.25
 optimisation between [QCUT,QGAM] = [ 11.86, 23.89] = [ 39.41,159.82] Ry 
 Optimized for a Real-space Cutoff    1.49 Angstroem

   l    n(q)    QCUT    max X(q) W(low)/X(q) W(high)/X(q)  e(spline) 
   2     10    11.864    80.901    0.13E-03    0.23E-03    0.37E-06
   2     10    11.864    75.754    0.13E-03    0.23E-03    0.38E-06
   0     11    11.864    58.752    0.44E-04    0.11E-04    0.20E-06
   0     11    11.864    30.679    0.36E-04    0.10E-04    0.18E-06
   1     10    11.864    17.977    0.31E-04    0.45E-04    0.10E-06
   1     10    11.864    13.559    0.25E-04    0.37E-04    0.89E-07
 Optimization of the real space projectors (new method)

 maximal supplied QI-value         = 16.25
 optimisation between [QCUT,QGAM] = [ 11.86, 23.89] = [ 39.41,159.82] Ry 
 Optimized for a Real-space Cutoff    1.33 Angstroem

   l    n(q)    QCUT    max X(q) W(low)/X(q) W(high)/X(q)  e(spline) 
   2      9    11.864    65.824    0.22E-03    0.53E-03    0.26E-06
   2      9    11.864    61.429    0.22E-03    0.53E-03    0.26E-06
   0      9    11.864    56.174    0.21E-03    0.32E-04    0.15E-06
   0      9    11.864    31.263    0.19E-03    0.30E-04    0.14E-06
   1      9    11.864    19.828    0.63E-04    0.30E-03    0.16E-06
   1      9    11.864    15.139    0.49E-04    0.25E-03    0.13E-06
 Optimization of the real space projectors (new method)

 maximal supplied QI-value         = 16.25
 optimisation between [QCUT,QGAM] = [ 11.86, 23.89] = [ 39.41,159.82] Ry 
 Optimized for a Real-space Cutoff    1.49 Angstroem

   l    n(q)    QCUT    max X(q) W(low)/X(q) W(high)/X(q)  e(spline) 
   2     10    11.864     4.610    0.10E-03    0.20E-03    0.29E-06
   2     10    11.864     8.522    0.17E-03    0.33E-03    0.50E-06
   0     11    11.864    51.609    0.52E-04    0.55E-04    0.33E-06
   0     11    11.864    27.747    0.46E-04    0.52E-04    0.31E-06
   1     10    11.864    20.408    0.54E-04    0.25E-04    0.21E-06
   1     10    11.864    13.425    0.48E-04    0.22E-04    0.18E-06
 Optimization of the real space projectors (new method)

 maximal supplied QI-value         = 16.25
 optimisation between [QCUT,QGAM] = [ 11.86, 23.89] = [ 39.41,159.82] Ry 
 Optimized for a Real-space Cutoff    1.33 Angstroem

   l    n(q)    QCUT    max X(q) W(low)/X(q) W(high)/X(q)  e(spline) 
   2      9    11.864    60.317    0.21E-03    0.51E-03    0.25E-06
   2      9    11.864    55.921    0.21E-03    0.51E-03    0.26E-06
   0      9    11.864    51.690    0.22E-03    0.30E-04    0.17E-06
   0      9    11.864    30.015    0.20E-03    0.28E-04    0.15E-06
   1      9    11.864    18.849    0.76E-04    0.33E-03    0.17E-06
   1      9    11.864    14.624    0.60E-04    0.28E-03    0.15E-06
  PAW_PBE Pt 04Feb2005                  :
 energy of atom  1       EATOM= -729.1176
 kinetic energy error for atom=    0.0021 (will be added to EATOM!!)
  PAW_PBE Fe 06Sep2000                  :
 energy of atom  2       EATOM= -594.3153
 kinetic energy error for atom=    0.0024 (will be added to EATOM!!)
  PAW_PBE Co 02Aug2007                  :
 energy of atom  3       EATOM= -813.3670
 kinetic energy error for atom=    0.0026 (will be added to EATOM!!)
  PAW_PBE Cu 22Jun2005                  :
 energy of atom  4       EATOM=-1390.9808
 kinetic energy error for atom=    0.0036 (will be added to EATOM!!)
  PAW_PBE Ni 02Aug2007                  :
 energy of atom  5       EATOM=-1077.6739
 kinetic energy error for atom=    0.0027 (will be added to EATOM!!)
 
 
 POSCAR: 10.56                                   
  positions in direct lattice
  velocities in cartesian coordinates
 exchange correlation table for  LEXCH =        8
   RHO(1)=    0.500       N(1)  =     2000
   RHO(2)=  100.500       N(2)  =     4000
 


--------------------------------------------------------------------------------------------------------


 ion  position               nearest neighbor table
   1  0.788  0.879  0.317-  49 2.62  28 2.63  19 2.63  59 2.65  33 2.66  61 2.66  29 2.67  60 2.68
                             2 2.72  11 2.77   4 2.81  12 2.85
   2  0.043  0.882  0.316-  79 2.55  77 2.60  60 2.63  30 2.64  28 2.66  52 2.66  33 2.68  22 2.69
                             1 2.72   6 2.76   4 2.83  16 2.89
   3  0.280  0.380  0.320-  39 2.56  64 2.58  33 2.59  31 2.63  19 2.70  43 2.70  68 2.71  30 2.72
                             5 2.78  13 2.79  18 2.81  25 2.84
   4  0.875  0.961  0.424-  17 2.63   9 2.64  16 2.64   6 2.65  11 2.65  12 2.65  60 2.80   1 2.81
                             2 2.83
   5  0.123  0.462  0.428-  12 2.62   7 2.63  10 2.64  16 2.64  25 2.66  13 2.66  39 2.72  33 2.74
                             3 2.78
   6  0.125  0.961  0.422-   8 2.63  10 2.64  14 2.64   9 2.64   4 2.65  16 2.65   2 2.76  52 2.77
                            22 2.86
   7  0.875  0.460  0.427-  15 2.62   5 2.63   9 2.63  10 2.64  12 2.65  27 2.65  39 2.68  75 2.76
                            29 2.80
   8  0.375  0.960  0.421-  43 2.60  14 2.62  27 2.62   6 2.63  13 2.63  10 2.64  11 2.64  52 2.69
                            61 2.73
   9  0.875  0.211  0.421-   7 2.63  15 2.63  17 2.63   4 2.64   6 2.64  10 2.65  75 2.69  60 2.72
                            22 2.81
  10  0.126  0.210  0.423-  13 2.62   6 2.64   5 2.64   8 2.64   7 2.64   9 2.65  39 2.67  43 2.71
                            22 2.79
  11  0.625  0.960  0.423-  13 2.63  12 2.64  17 2.64   8 2.64  27 2.64   4 2.65   1 2.77  19 2.82
                            61 2.83
  12  0.875  0.710  0.426-   5 2.62  11 2.64  16 2.64   7 2.65   4 2.65  27 2.65  33 2.69  29 2.82
                             1 2.85
  13  0.375  0.209  0.425-  10 2.62  11 2.63   8 2.63  17 2.66  25 2.66   5 2.66  43 2.76   3 2.79
                            19 2.83
  14  0.376  0.711  0.424-  27 2.61   8 2.62   6 2.64  15 2.64  25 2.65  16 2.66  44 2.69  30 2.77
                            52 2.77
  15  0.626  0.461  0.423-   7 2.62  27 2.63   9 2.63  14 2.64  17 2.65  25 2.65  44 2.69  75 2.71
                            18 2.76
  16  0.125  0.711  0.426-  25 2.64   5 2.64   4 2.64  12 2.64   6 2.65  14 2.66  33 2.67  30 2.83
                             2 2.89
  17  0.625  0.210  0.422-   4 2.63   9 2.63  11 2.64  15 2.65  25 2.65  13 2.66  18 2.76  60 2.76
                            19 2.86
  18  0.548  0.376  0.317-  67 2.57  60 2.59  75 2.61  44 2.64  68 2.66  26 2.67  30 2.70  19 2.73
                            15 2.76  17 2.76   3 2.81  25 2.88
  19  0.535  0.124  0.315-  80 2.55  43 2.57  68 2.57  59 2.60   1 2.63  61 2.63   3 2.70  18 2.73
                            60 2.75  11 2.82  13 2.83  17 2.86
  20  0.545  0.124  0.040-  37 2.55  57 2.55  48 2.58  62 2.63  47 2.67  63 2.67  45 2.68  56 2.70
                            34 2.71
  21  0.121  0.461  0.128-  40 2.52  36 2.53  47 2.53  42 2.59  69 2.61  64 2.62  70 2.64  50 2.64
                            58 2.67  57 2.71  74 2.71  31 2.71
  22  0.043  0.137  0.314-  65 2.52  55 2.54  77 2.58  39 2.58  43 2.58  75 2.60  60 2.68   2 2.69
                            52 2.73  10 2.79   9 2.81   6 2.86  31 3.39
  23  0.040  0.131  0.033-  70 2.58  40 2.61  41 2.61  45 2.62  76 2.63  62 2.64  24 2.69  35 2.72
                            53 2.78
  24  0.130  0.959  0.132-  79 2.51  77 2.54  35 2.57  53 2.57  55 2.58  70 2.62  38 2.64  58 2.64
                            73 2.65  23 2.69  66 2.71  41 2.72
  25  0.375  0.461  0.427-  16 2.64  17 2.65  14 2.65  15 2.65   5 2.66  13 2.66   3 2.84  30 2.85
                            18 2.88
  26  0.455  0.545  0.219-  73 2.50  74 2.54  51 2.55  79 2.61  64 2.63  30 2.65  68 2.67  18 2.67
                            78 2.67  32 2.68  67 2.72  44 2.76
  27  0.623  0.711  0.424-  14 2.61   8 2.62  15 2.63  11 2.64  12 2.65   7 2.65  44 2.68  61 2.77
                            29 2.79
  28  0.957  0.789  0.221-  58 2.56  66 2.58  50 2.58  42 2.60  49 2.62   1 2.63  64 2.63   2 2.66
                            59 2.71  33 2.73  79 2.77  77 2.77
  29  0.795  0.622  0.319-  39 2.54  42 2.56  75 2.57  32 2.62  44 2.64  33 2.65   1 2.67  61 2.68
                            49 2.69  27 2.79   7 2.80  12 2.82
  30  0.292  0.631  0.318-  79 2.56  64 2.61  52 2.62  44 2.63   2 2.64  26 2.65  33 2.66  18 2.70
                             3 2.72  14 2.77  16 2.83  25 2.85
  31  0.202  0.281  0.226-  70 2.53  55 2.55  65 2.57  57 2.60  43 2.60   3 2.63  39 2.68  80 2.70
                            42 2.70  21 2.71  68 2.75  64 2.79  22 3.39
  32  0.707  0.549  0.221-  54 2.53  69 2.56  51 2.58  49 2.59  42 2.60  29 2.62  65 2.62  78 2.62
                            26 2.68  75 2.70  67 2.70  44 2.71
  33  0.041  0.630  0.326-   3 2.59  39 2.64  29 2.65   1 2.66  30 2.66  16 2.67   2 2.68  12 2.69
                            64 2.71  28 2.73   5 2.74  42 2.75
  34  0.796  0.862  0.042-  50 2.38  66 2.51  48 2.53  71 2.55  36 2.56  63 2.61  20 2.71  62 2.76
                            35 2.77
  35  0.056  0.867  0.038-  58 2.54  72 2.55  36 2.56  24 2.57  66 2.62  53 2.64  23 2.72  62 2.73
                            34 2.77
  36  0.046  0.629  0.037-  21 2.53  35 2.56  34 2.56  58 2.59  50 2.62  47 2.63  72 2.64  40 2.69
                            71 2.73
  37  0.626  0.222  0.129-  74 2.51  51 2.52  67 2.52  56 2.53  68 2.55  20 2.55  59 2.55  41 2.56
                            62 2.60  66 2.66  57 2.72  48 2.87
  38  0.382  0.955  0.130-  53 2.47  80 2.48  45 2.50  78 2.53  48 2.54  63 2.55  73 2.55  54 2.57
                            55 2.58  57 2.62  24 2.64  70 2.69
  39  0.036  0.383  0.325-  29 2.54   3 2.56  22 2.58  75 2.59  33 2.64  10 2.67   7 2.68  31 2.68
                            42 2.69   5 2.72  65 2.77  43 2.78
  40  0.030  0.383  0.037-  69 2.44  21 2.52  71 2.53  76 2.56  70 2.57  23 2.61  36 2.69  45 2.78
                            47 2.79
  41  0.871  0.216  0.128-  76 2.46  65 2.52  77 2.53  67 2.54  37 2.56  69 2.57  62 2.58  51 2.59
                            23 2.61  70 2.65  66 2.66  24 2.72
  42  0.955  0.545  0.223-  50 2.55  29 2.56  21 2.59  28 2.60  32 2.60  69 2.60  49 2.63  65 2.64
                            64 2.66  39 2.69  31 2.70  33 2.75
  43  0.296  0.117  0.322-  52 2.53  55 2.54  19 2.57  61 2.57  22 2.58  31 2.60   8 2.60  80 2.67
                             3 2.70  10 2.71  13 2.76  39 2.78
  44  0.541  0.629  0.322-  61 2.57  52 2.59  30 2.63  18 2.64  78 2.64  29 2.64  75 2.65  27 2.68
                            15 2.69  14 2.69  32 2.71  26 2.76
  45  0.293  0.121  0.040-  70 2.49  38 2.50  57 2.56  53 2.60  23 2.62  63 2.64  20 2.68  47 2.75
                            40 2.78
  46  0.547  0.626  0.044-  51 2.37  73 2.39  54 2.41  71 2.56  53 2.57  63 2.58  76 2.59  56 2.63
                            72 2.64
  47  0.296  0.380  0.039-  74 2.41  21 2.53  72 2.61  56 2.61  57 2.61  36 2.63  20 2.67  45 2.75
                            40 2.79
  48  0.625  0.950  0.132-  49 2.40  80 2.47  54 2.48  34 2.53  38 2.54  59 2.55  50 2.57  63 2.57
                            20 2.58  57 2.65  66 2.68  37 2.87
  49  0.707  0.794  0.220-  48 2.40  50 2.48  54 2.49  80 2.54  32 2.59  78 2.61  28 2.62   1 2.62
                            42 2.63  61 2.63  29 2.69  59 2.70
  50  0.866  0.706  0.129-  34 2.38  71 2.42  54 2.48  49 2.48  42 2.55  48 2.57  28 2.58  69 2.58
                            36 2.62  21 2.64  66 2.75  58 2.85
  51  0.626  0.461  0.127-  46 2.37  76 2.44  56 2.52  37 2.52  26 2.55  32 2.58  41 2.59  73 2.60
                            69 2.61  74 2.63  67 2.64  54 2.68
  52  0.298  0.876  0.318-  55 2.44  61 2.52  78 2.52  43 2.53  79 2.54  44 2.59  30 2.62   2 2.66
                             8 2.69  22 2.73  14 2.77   6 2.77
  53  0.304  0.869  0.041-  73 2.42  38 2.47  63 2.55  46 2.57  24 2.57  45 2.60  72 2.61  35 2.64
                            23 2.78
  54  0.627  0.714  0.128-  46 2.41  71 2.46  50 2.48  63 2.48  48 2.48  49 2.49  32 2.53  38 2.57
                            73 2.57  78 2.62  69 2.67  51 2.68
  55  0.224  0.029  0.227-  52 2.44  78 2.47  79 2.49  80 2.53  22 2.54  43 2.54  31 2.55  38 2.58
                            24 2.58  70 2.72  77 2.73  65 2.86
  56  0.542  0.381  0.035-  74 2.50  51 2.52  37 2.53  72 2.59  76 2.60  47 2.61  46 2.63  62 2.69
                            20 2.70
  57  0.377  0.206  0.133-  68 2.46  80 2.54  20 2.55  45 2.56  31 2.60  47 2.61  38 2.62  74 2.63
                            70 2.64  48 2.65  21 2.71  37 2.72
  58  0.136  0.705  0.132-  72 2.46  64 2.52  35 2.54  28 2.56  79 2.57  36 2.59  74 2.64  24 2.64
                            73 2.66  21 2.67  66 2.77  50 2.85
  59  0.705  0.050  0.221-  66 2.52  48 2.55  37 2.55  67 2.58  68 2.59  19 2.60  60 2.63   1 2.65
                            77 2.65  80 2.68  49 2.70  28 2.71
  60  0.793  0.130  0.318-  67 2.54  77 2.58  18 2.59  59 2.63   2 2.63  75 2.64  22 2.68   1 2.68
                             9 2.72  19 2.75  17 2.76   4 2.80
  61  0.539  0.873  0.317-  78 2.49  52 2.52  80 2.54  44 2.57  43 2.57  49 2.63  19 2.63   1 2.66
                            29 2.68   8 2.73  27 2.77  11 2.83
  62  0.795  0.123  0.035-  66 2.54  41 2.58  37 2.60  20 2.63  23 2.64  76 2.67  56 2.69  35 2.73
                            34 2.76
  63  0.544  0.872  0.036-  54 2.48  38 2.55  53 2.55  48 2.57  46 2.58  34 2.61  71 2.61  45 2.64
                            20 2.67
  64  0.208  0.542  0.224-  58 2.52   3 2.58  30 2.61  21 2.62  26 2.63  28 2.63  68 2.64  42 2.66
                            74 2.67  33 2.71  79 2.74  31 2.79
  65  0.951  0.297  0.221-  22 2.52  41 2.52  69 2.53  67 2.54  77 2.56  31 2.57  70 2.59  32 2.62
                            75 2.63  42 2.64  39 2.77  55 2.86
  66  0.871  0.964  0.129-  34 2.51  59 2.52  62 2.54  28 2.58  77 2.58  35 2.62  41 2.66  37 2.66
                            48 2.68  24 2.71  50 2.75  58 2.77
  67  0.714  0.290  0.223-  77 2.52  37 2.52  60 2.54  41 2.54  65 2.54  18 2.57  59 2.58  51 2.64
                            75 2.64  32 2.70  68 2.71  26 2.72
  68  0.457  0.292  0.221-  57 2.46  74 2.54  37 2.55  19 2.57  59 2.59  64 2.64  18 2.66  26 2.67
                            67 2.71   3 2.71  80 2.73  31 2.75
  69  0.875  0.457  0.127-  40 2.44  71 2.45  76 2.46  65 2.53  32 2.56  41 2.57  50 2.58  42 2.60
                            21 2.61  51 2.61  70 2.64  54 2.67
  70  0.126  0.209  0.129-  45 2.49  31 2.53  40 2.57  23 2.58  65 2.59  24 2.62  69 2.64  21 2.64
                            57 2.64  41 2.65  38 2.69  55 2.72
  71  0.791  0.623  0.040-  50 2.42  69 2.45  54 2.46  40 2.53  34 2.55  46 2.56  76 2.60  63 2.61
                            36 2.73
  72  0.298  0.626  0.042-  74 2.44  58 2.46  73 2.48  35 2.55  56 2.59  53 2.61  47 2.61  46 2.64
                            36 2.64
  73  0.385  0.712  0.129-  46 2.39  53 2.42  72 2.48  26 2.50  38 2.55  78 2.55  54 2.57  51 2.60
                            79 2.62  24 2.65  58 2.66  74 2.77
  74  0.381  0.452  0.126-  47 2.41  72 2.44  56 2.50  37 2.51  26 2.54  68 2.54  57 2.63  51 2.63
                            58 2.64  64 2.67  21 2.71  73 2.77
  75  0.793  0.379  0.321-  29 2.57  39 2.59  22 2.60  18 2.61  65 2.63  60 2.64  67 2.64  44 2.65
                             9 2.69  32 2.70  15 2.71   7 2.76
  76  0.790  0.378  0.039-  51 2.44  69 2.46  41 2.46  40 2.56  46 2.59  71 2.60  56 2.60  23 2.63
                            62 2.67
  77  0.955  0.053  0.222-  67 2.52  41 2.53  24 2.54  65 2.56  22 2.58  66 2.58  60 2.58   2 2.60
                            59 2.65  79 2.72  55 2.73  28 2.77
  78  0.458  0.797  0.225-  55 2.47  61 2.49  80 2.49  52 2.52  38 2.53  73 2.55  79 2.57  49 2.61
                            54 2.62  32 2.62  44 2.64  26 2.67
  79  0.214  0.798  0.225-  55 2.49  24 2.51  52 2.54   2 2.55  30 2.56  78 2.57  58 2.57  26 2.61
                            73 2.62  77 2.72  64 2.74  28 2.77
  80  0.462  0.031  0.222-  48 2.47  38 2.48  78 2.49  55 2.53  61 2.54  57 2.54  49 2.54  19 2.55
                            43 2.67  59 2.68  31 2.70  68 2.73
 
  LATTYP: Found a hexagonal cell.
 ALAT       =    10.5600004196
 C/A-ratio  =     2.0833332505
  
  Lattice vectors:
  
 A1 = (   5.2800002098,  -9.1452286274,   0.0000000000)
 A2 = ( -10.5600004196,   0.0000000000,   0.0000000000)
 A3 = (   0.0000000000,   0.0000000000, -22.0000000000)


Analysis of symmetry for initial positions (statically):
=====================================================================
 Subroutine PRICEL returns:
 Original cell was already a primitive cell.
 

 Routine SETGRP: Setting up the symmetry group for a 
 hexagonal supercell.


 Subroutine GETGRP returns: Found  1 space group operations
 (whereof  1 operations were pure point group operations)
 out of a pool of 24 trial point group operations.


The static configuration has the point symmetry C_1 .


Analysis of symmetry for dynamics (positions and initial velocities):
=====================================================================
 Subroutine PRICEL returns:
 Original cell was already a primitive cell.
 

 Routine SETGRP: Setting up the symmetry group for a 
 hexagonal supercell.


 Subroutine GETGRP returns: Found  1 space group operations
 (whereof  1 operations were pure point group operations)
 out of a pool of 24 trial point group operations.


The dynamic configuration has the point symmetry C_1 .


Analysis of structural, dynamic, and magnetic symmetry:
=====================================================================
 Subroutine PRICEL returns:
 Original cell was already a primitive cell.
 

 Routine SETGRP: Setting up the symmetry group for a 
 hexagonal supercell.


 Subroutine GETGRP returns: Found  1 space group operations
 (whereof  1 operations were pure point group operations)
 out of a pool of 24 trial point group operations.


The magnetic configuration has the point symmetry C_1 .


 Subroutine INISYM returns: Found  1 space group operations
 (whereof  1 operations are pure point group operations),
 and found     1 'primitive' translations

 
 
 KPOINTS: mesh auto                               

Automatic generation of k-mesh.
Space group operators:
 irot       det(A)        alpha          n_x          n_y          n_z        tau_x        tau_y        tau_z
    1     1.000000     0.000001     1.000000     0.000000     0.000000     0.000000     0.000000     0.000000
 
 Subroutine IBZKPT returns following result:
 ===========================================
 
 Found     10 irreducible k-points:
 
 Following reciprocal coordinates:
            Coordinates               Weight
  0.000000  0.000000  0.000000      1.000000
  0.250000  0.000000  0.000000      2.000000
  0.500000  0.000000  0.000000      1.000000
  0.000000  0.250000  0.000000      2.000000
  0.250000  0.250000  0.000000      2.000000
  0.500000  0.250000  0.000000      2.000000
 -0.250000  0.250000  0.000000      2.000000
  0.000000  0.500000  0.000000      1.000000
  0.250000  0.500000  0.000000      2.000000
  0.500000  0.500000  0.000000      1.000000
 
 Following cartesian coordinates:
            Coordinates               Weight
  0.000000  0.000000  0.000000      1.000000
  0.023674 -0.013668  0.000000      2.000000
  0.047348 -0.027337  0.000000      1.000000
  0.000000  0.027337  0.000000      2.000000
  0.023674  0.013668  0.000000      2.000000
  0.047348  0.000000  0.000000      2.000000
 -0.023674  0.041005  0.000000      2.000000
  0.000000  0.054673  0.000000      1.000000
  0.023674  0.041005  0.000000      2.000000
  0.047348  0.027337  0.000000      1.000000
 


--------------------------------------------------------------------------------------------------------




 Dimension of arrays:
   k-points           NKPTS =     10   k-points in BZ     NKDIM =     10   number of bands    NBANDS=    590
   number of dos      NEDOS =    301   number of ions     NIONS =     80
   non local maximal  LDIM  =      6   non local SUM 2l+1 LMDIM =     18
   total plane-waves  NPLWV = ******
   max r-space proj   IRMAX =   7802   max aug-charges    IRDMAX=  33988
   dimension x,y,z NGX =    84 NGY =   84 NGZ =  168
   dimension x,y,z NGXF=   168 NGYF=  168 NGZF=  336
   support grid    NGXF=   168 NGYF=  168 NGZF=  336
   ions per type =              32  13  10  13  12
   NGX,Y,Z   is equivalent  to a cutoff of  13.22, 13.22, 12.70 a.u.
   NGXF,Y,Z  is equivalent  to a cutoff of  26.45, 26.45, 25.39 a.u.

 SYSTEM =  Pt111                                   
 POSCAR =  10.56                                   

 Startparameter for this run:
   NWRITE =      2    write-flag & timer
   PREC   = accura    normal or accurate (medium, high low for compatibility)
   ISTART =      0    job   : 0-new  1-cont  2-samecut
   ICHARG =      2    charge: 1-file 2-atom 10-const
   ISPIN  =      2    spin polarized calculation?
   LNONCOLLINEAR =      F non collinear calculations
   LSORBIT =      F    spin-orbit coupling
   INIWAV =      1    electr: 0-lowe 1-rand  2-diag
   LASPH  =      F    aspherical Exc in radial PAW
   METAGGA=      F    non-selfconsistent MetaGGA calc.

 Electronic Relaxation 1
   ENCUT  =  550.0 eV  40.42 Ry    6.36 a.u.  20.19 20.19 42.07*2*pi/ulx,y,z
   ENINI  =  550.0     initial cutoff
   ENAUG  =  587.0 eV  augmentation charge cutoff
   NELM   =    200;   NELMIN=  2; NELMDL= -5     # of ELM steps 
   EDIFF  = 0.1E-07   stopping-criterion for ELM
   LREAL  =      T    real-space projection
   NLSPLINE    = F    spline interpolate recip. space projectors
   LCOMPAT=      F    compatible to vasp.4.4
   GGA_COMPAT  = T    GGA compatible to vasp.4.4-vasp.4.6
   LMAXPAW     = -100 max onsite density
   LMAXMIX     =    2 max onsite mixed and CHGCAR
   VOSKOWN=      0    Vosko Wilk Nusair interpolation
   ROPT   =   -0.00025  -0.00025  -0.00025  -0.00025
   ROPT   =   -0.00025
 Ionic relaxation
   EDIFFG = -.1E-01   stopping-criterion for IOM
   NSW    =    300    number of steps for IOM
   NBLOCK =      1;   KBLOCK =    300    inner block; outer block 
   IBRION =      2    ionic relax: 0-MD 1-quasi-New 2-CG
   NFREE  =      1    steps in history (QN), initial steepest desc. (CG)
   ISIF   =      2    stress and relaxation
   IWAVPR =     11    prediction:  0-non 1-charg 2-wave 3-comb
   ISYM   =      2    0-nonsym 1-usesym 2-fastsym
   LCORR  =      T    Harris-Foulkes like correction to forces

   POTIM  = 0.5000    time-step for ionic-motion
   TEIN   =    0.0    initial temperature
   TEBEG  =    0.0;   TEEND  =   0.0 temperature during run
   SMASS  =  -3.00    Nose mass-parameter (am)
   estimated Nose-frequenzy (Omega)   =  0.10E-29 period in steps =****** mass=  -0.255E-26a.u.
   SCALEE = 1.0000    scale energy and forces
   NPACO  =    256;   APACO  = 16.0  distance and # of slots for P.C.
   PSTRESS=    0.0 pullay stress

  Mass of Ions in am
   POMASS = 195.08 55.85 58.93 63.55 58.69
  Ionic Valenz
   ZVAL   =  10.00  8.00  9.00 11.00 10.00
  Atomic Wigner-Seitz radii
   RWIGS  =  -1.00 -1.00 -1.00 -1.00 -1.00
  virtual crystal weights 
   VCA    =   1.00  1.00  1.00  1.00  1.00
   NELECT =     777.0000    total number of electrons
   NUPDOWN=      -1.0000    fix difference up-down

 DOS related values:
   EMIN   =  10.00;   EMAX   =-10.00  energy-range for DOS
   EFERMI =   0.00
   ISMEAR =     1;   SIGMA  =   0.10  broadening in eV -4-tet -1-fermi 0-gaus

 Electronic relaxation 2 (details)
   IALGO  =     68    algorithm
   LDIAG  =      T    sub-space diagonalisation (order eigenvalues)
   LSUBROT=      F    optimize rotation matrix (better conditioning)
   TURBO    =      0    0=normal 1=particle mesh
   IRESTART =      0    0=no restart 2=restart with 2 vectors
   NREBOOT  =      0    no. of reboots
   NMIN     =      0    reboot dimension
   EREF     =   0.00    reference energy to select bands
   IMIX   =      4    mixing-type and parameters
     AMIX     =   0.40;   BMIX     =  1.00
     AMIX_MAG =   1.60;   BMIX_MAG =  1.00
     AMIN     =   0.10
     WC   =   100.;   INIMIX=   1;  MIXPRE=   1;  MAXMIX= -45

 Intra band minimization:
   WEIMIN = 0.0010     energy-eigenvalue tresh-hold
   EBREAK =  0.42E-11  absolut break condition
   DEPER  =   0.30     relativ break condition  

   TIME   =   0.40     timestep for ELM

  volume/ion in A,a.u.               =      26.56       179.22
  Fermi-wavevector in a.u.,A,eV,Ry     =   1.170725  2.212349 18.648095  1.370596
  Thomas-Fermi vector in A             =   2.307179
 
 Write flags
   LWAVE        =      F    write WAVECAR
   LDOWNSAMPLE  =      F    k-point downsampling of WAVECAR
   LCHARG       =      F    write CHGCAR
   LVTOT        =      F    write LOCPOT, total local potential
   LVHAR        =      F    write LOCPOT, Hartree potential only
   LELF         =      F    write electronic localiz. function (ELF)
   LORBIT       =      0    0 simple, 1 ext, 2 COOP (PROOUT), +10 PAW based schemes


 Dipole corrections
   LMONO  =      F    monopole corrections only (constant potential shift)
   LDIPOL =      F    correct potential (dipole corrections)
   IDIPOL =      0    1-x, 2-y, 3-z, 4-all directions 
   EPSILON=  1.0000000 bulk dielectric constant

 Exchange correlation treatment:
   GGA     =    --    GGA type
   LEXCH   =     8    internal setting for exchange type
   VOSKOWN=      0    Vosko Wilk Nusair interpolation
   LHFCALC =     F    Hartree Fock is set to
   LHFONE  =     F    Hartree Fock one center treatment
   AEXX    =    0.0000 exact exchange contribution

 Linear response parameters
   LEPSILON=     F    determine dielectric tensor
   LRPA    =     F    only Hartree local field effects (RPA)
   LNABLA  =     F    use nabla operator in PAW spheres
   LVEL    =     F    velocity operator in full k-point grid
   LINTERFAST=   F  fast interpolation
   KINTER  =     0    interpolate to denser k-point grid
   CSHIFT  =0.1000    complex shift for real part using Kramers Kronig
   OMEGAMAX=  -1.0    maximum frequency
   DEG_THRESHOLD= 0.2000000E-02 threshold for treating states as degnerate
   RTIME   =   -0.100 relaxation time in fs
  (WPLASMAI=    0.000 imaginary part of plasma frequency in eV, 0.658/RTIME)
   DFIELD  = 0.0000000 0.0000000 0.0000000 field for delta impulse in time
 
 Orbital magnetization related:
   ORBITALMAG=     F  switch on orbital magnetization
   LCHIMAG   =     F  perturbation theory with respect to B field
   DQ        =  0.001000  dq finite difference perturbation B field
   LLRAUG    =     F  two centre corrections for induced B field



--------------------------------------------------------------------------------------------------------


 conjugate gradient relaxation of ions
 charge density and potential will be updated during run
 spin polarized calculation
 RMM-DIIS sequential band-by-band and
  variant of blocked Davidson during initial phase
 perform sub-space diagonalisation
    before iterative eigenvector-optimisation
 modified Broyden-mixing scheme, WC =      100.0
 initial mixing is a Kerker type mixing with AMIX =  0.4000 and BMIX =      1.0000
 Hartree-type preconditioning will be used
 using additional bands          201
 real space projection scheme for non local part
 use partial core corrections
 calculate Harris-corrections to forces 
   (improved forces if not selfconsistent)
 use gradient corrections 
 use of overlap-Matrix (Vanderbilt PP)
 Methfessel and Paxton  Order N= 1 SIGMA  =   0.10


--------------------------------------------------------------------------------------------------------


  energy-cutoff  :      550.00
  volume of cell :     2124.62
      direct lattice vectors                 reciprocal lattice vectors
    10.560000420  0.000000000  0.000000000     0.094696966 -0.054673319  0.000000000
     5.280000210  9.145228627  0.000000000     0.000000000  0.109346638  0.000000000
     0.000000000  0.000000000 22.000000000     0.000000000  0.000000000  0.045454545

  length of vectors
    10.560000420 10.560000420 22.000000000     0.109346638  0.109346638  0.045454545


 
 k-points in units of 2pi/SCALE and weight: mesh auto                               
   0.00000000  0.00000000  0.00000000       0.062
   0.02367424 -0.01366833  0.00000000       0.125
   0.04734848 -0.02733666  0.00000000       0.062
   0.00000000  0.02733666  0.00000000       0.125
   0.02367424  0.01366833  0.00000000       0.125
   0.04734848  0.00000000  0.00000000       0.125
  -0.02367424  0.04100499  0.00000000       0.125
   0.00000000  0.05467332  0.00000000       0.062
   0.02367424  0.04100499  0.00000000       0.125
   0.04734848  0.02733666  0.00000000       0.062
 
 k-points in reciprocal lattice and weights: mesh auto                               
   0.00000000  0.00000000  0.00000000       0.062
   0.25000000  0.00000000  0.00000000       0.125
   0.50000000  0.00000000  0.00000000       0.062
   0.00000000  0.25000000  0.00000000       0.125
   0.25000000  0.25000000  0.00000000       0.125
   0.50000000  0.25000000  0.00000000       0.125
  -0.25000000  0.25000000  0.00000000       0.125
   0.00000000  0.50000000  0.00000000       0.062
   0.25000000  0.50000000  0.00000000       0.125
   0.50000000  0.50000000  0.00000000       0.062
 
 position of ions in fractional coordinates (direct lattice) 
   0.78753515  0.87853806  0.31739478
   0.04315759  0.88215391  0.31581632
   0.27962350  0.38029000  0.31996715
   0.87484677  0.96115960  0.42382196
   0.12254042  0.46156874  0.42831319
   0.12540271  0.96094008  0.42168019
   0.87454242  0.45972515  0.42680959
   0.37493210  0.95950490  0.42062272
   0.87463095  0.21087445  0.42114049
   0.12566888  0.21044818  0.42299764
   0.62461312  0.96047024  0.42337164
   0.87454605  0.71021935  0.42618443
   0.37455290  0.20904552  0.42507634
   0.37588847  0.71140373  0.42375511
   0.62580380  0.46080243  0.42282197
   0.12465041  0.71063812  0.42612783
   0.62546697  0.21020795  0.42222067
   0.54783259  0.37598949  0.31734142
   0.53474615  0.12435211  0.31499035
   0.54534718  0.12405657  0.04006126
   0.12059055  0.46100454  0.12762799
   0.04266423  0.13695822  0.31426850
   0.04048904  0.13127722  0.03303506
   0.12957066  0.95890378  0.13210106
   0.37462583  0.46091182  0.42650961
   0.45516359  0.54539978  0.21851803
   0.62312186  0.71079706  0.42359337
   0.95684714  0.78932767  0.22083830
   0.79524047  0.62174997  0.31885269
   0.29190196  0.63102241  0.31800618
   0.20211231  0.28096261  0.22557225
   0.70694321  0.54886321  0.22053431
   0.04105812  0.63044383  0.32560456
   0.79563473  0.86216427  0.04208252
   0.05552474  0.86691375  0.03794869
   0.04631803  0.62909282  0.03650902
   0.62570042  0.22209393  0.12911441
   0.38164517  0.95515367  0.13014221
   0.03597120  0.38299477  0.32536575
   0.03011820  0.38296879  0.03714839
   0.87103410  0.21564366  0.12839444
   0.95480029  0.54463071  0.22330063
   0.29551458  0.11676227  0.32200215
   0.54148441  0.62889207  0.32244573
   0.29327745  0.12062987  0.03977771
   0.54746774  0.62616505  0.04363476
   0.29576905  0.37970050  0.03869792
   0.62476678  0.95042374  0.13245671
   0.70662901  0.79432546  0.21991305
   0.86594340  0.70601061  0.12865422
   0.62583863  0.46068273  0.12676858
   0.29813661  0.87628189  0.31808872
   0.30431486  0.86933572  0.04060143
   0.62697996  0.71434974  0.12822584
   0.22387053  0.02909571  0.22732434
   0.54244146  0.38077028  0.03469960
   0.37722356  0.20553677  0.13277955
   0.13603226  0.70537821  0.13159660
   0.70519679  0.05025929  0.22051775
   0.79280681  0.12981054  0.31760239
   0.53854299  0.87300177  0.31711994
   0.79489319  0.12322606  0.03463268
   0.54440843  0.87155439  0.03626911
   0.20790034  0.54209506  0.22389951
   0.95123314  0.29669080  0.22130985
   0.87090448  0.96414749  0.12900121
   0.71424530  0.28964752  0.22346083
   0.45680841  0.29175228  0.22095958
   0.87518290  0.45713975  0.12747138
   0.12583188  0.20868840  0.12875125
   0.79116150  0.62337700  0.04002618
   0.29773494  0.62589889  0.04215039
   0.38487742  0.71212735  0.12884281
   0.38133376  0.45182179  0.12644183
   0.79301772  0.37947545  0.32091614
   0.79017300  0.37784531  0.03915662
   0.95481733  0.05292457  0.22155960
   0.45814571  0.79658402  0.22458771
   0.21415731  0.79813830  0.22453781
   0.46212309  0.03050530  0.22222556
 
 position of ions in cartesian coordinates  (Angst):
  12.95505266  8.03443143  6.98268520
   5.11351700  8.06749916  6.94795901
   4.96075553  3.47783899  7.03927732
  14.31330518  8.79002426  9.32408323
   3.73110998  4.22115166  9.42289013
   6.39801649  8.78801670  9.27696422
  11.66251722  4.20429160  9.38981097
   9.02546924  8.77489169  9.25369979
  10.34952031  1.92849504  9.26509089
   2.43822992  1.92459675  9.30594801
  11.66719788  8.78371990  9.31417612
  12.98516493  6.49511834  9.37605743
   5.05903918  1.91176905  9.35167941
   7.72559421  6.50594979  9.32261234
   9.04152537  4.21414359  9.30208337
   5.06847783  6.49894805  9.37481220
   7.71482952  1.92239973  9.28885479
   7.77033694  3.43850987  6.98151128
   6.30349877  1.13722852  6.92978773
   6.41388522  1.13452572  0.88134768
   3.70754035  4.21599191  2.80781586
   1.17367373  1.25251422  6.91390708
   1.12070799  1.20056017  0.72677134
   6.43127833  8.76939428  2.90622324
   6.38966342  4.21514393  9.38321139
   7.68623863  4.98780564  4.80739656
  10.33317578  6.50040164  9.31905420
  14.27195651  7.21858202  4.85844264
  11.68057963  5.68604563  7.01475920
   6.41428330  5.77084424  6.99613603
   3.61778877  2.56946730  4.96258943
  10.36331844  5.01947951  4.85175481
   3.76231729  5.76555300  7.16330042
  12.95413059  7.88468941  0.92581554
   5.16364608  7.92812446  0.83487121
   3.81072866  5.75319766  0.80319845
   7.78005266  2.03109974  2.84051703
   9.07338470  8.73509867  2.86312869
   2.40206836  3.50257476  7.15804646
   2.34012352  3.50233712  0.81726448
  10.33671905  1.97211060  2.82467776
  12.95834176  4.98077233  4.91261383
   3.73713891  1.06781768  7.08404731
   9.03862582  5.75136172  7.09380605
   3.73393569  1.10318774  0.87510966
   9.08741115  5.72642255  0.95996465
   5.12814006  3.47244791  0.85135426
  11.61577502  8.69184240  2.91404762
  11.65604121  7.26428790  4.83808704
  12.87209881  6.45662848  2.83039278
   9.04126106  4.21304885  2.78890866
   7.77509126  8.01379818  6.99795178
   7.80365782  7.95027392  0.89323141
  10.39267545  6.53289171  2.82096858
   2.51769826  0.26608689  5.00113558
   7.73864923  3.48223126  0.76339128
   5.06871519  1.87968079  2.92115016
   5.16089780  6.45084499  2.89512511
   7.71224752  0.45963272  4.85139049
   9.05743999  1.18714709  6.98725259
  10.29646378  7.98380080  6.97663876
   9.04470607  1.12693047  0.76191903
  10.35076058  7.97056416  0.79792033
   5.05768974  4.95758328  4.92578923
  11.61154984  2.71330524  4.86881676
  14.28745067  8.81734925  2.83802667
   9.07176967  2.64889280  4.91613815
   6.36434906  2.66814131  4.86111066
  11.65562972  4.18064750  2.80437036
   2.43065953  1.90850316  2.83252757
  11.64609643  5.70092515  0.88057593
   6.44882730  5.72398843  0.92730861
   7.82433831  6.51256741  2.83454185
   6.41250383  4.13201357  2.78172019
  10.37789793  3.47038972  7.06015502
  10.33925055  3.45548178  0.86144568
  10.36231313  0.48400730  4.87431121
   9.04398264  7.28494298  4.94092953
   6.47567164  7.29915723  4.93983174
   5.04108799  0.27897797  4.88896238
 


--------------------------------------------------------------------------------------------------------


 k-point  1 :   0.0000 0.0000 0.0000  plane waves:   62167
 k-point  2 :   0.2500 0.0000 0.0000  plane waves:   62237
 k-point  3 :   0.5000 0.0000 0.0000  plane waves:   62242
 k-point  4 :   0.0000 0.2500 0.0000  plane waves:   62237
 k-point  5 :   0.2500 0.2500 0.0000  plane waves:   62237
 k-point  6 :   0.5000 0.2500 0.0000  plane waves:   62180
 k-point  7 :  -0.2500 0.2500 0.0000  plane waves:   62180
 k-point  8 :   0.0000 0.5000 0.0000  plane waves:   62242
 k-point  9 :   0.2500 0.5000 0.0000  plane waves:   62180
 k-point 10 :   0.5000 0.5000 0.0000  plane waves:   62242

 maximum and minimum number of plane-waves per node :     15586    15521

 maximum number of plane-waves:     62242
 maximum index in each direction: 
   IXMAX=   20   IYMAX=   20   IZMAX=   42
   IXMIN=  -20   IYMIN=  -20   IZMIN=  -42


 real space projection operators:
  total allocation   :      77655.09 KBytes
  max/ min on nodes  :      19436.62      19389.94


 parallel 3D FFT for wavefunctions:
    minimum data exchange during FFTs selected (reduces bandwidth)
 parallel 3D FFT for charge:
    minimum data exchange during FFTs selected (reduces bandwidth)


 total amount of memory used by VASP MPI-rank0   436910. kBytes
=======================================================================

   base      :      30000. kBytes
   nonlr-proj:      34492. kBytes
   fftplans  :      17962. kBytes
   grid      :      53265. kBytes
   one-center:        622. kBytes
   wavefun   :     300569. kBytes
 
     INWAV:  cpu time    0.0001: real time    0.0001
 Broyden mixing: mesh for mixing (old mesh)
   NGX = 41   NGY = 41   NGZ = 85
  (NGX  =168   NGY  =168   NGZ  =336)
  gives a total of 142885 points

 initial charge density was supplied:
 charge density of overlapping atoms calculated
 number of electron     777.0000000 magnetization     231.0000000
 keeping initial charge density in first step


--------------------------------------------------------------------------------------------------------


 Maximum index for non-local projection operator         1903
 Maximum index for augmentation-charges         2100 (set IRDMAX)


--------------------------------------------------------------------------------------------------------


 First call to EWALD:  gamma=   0.138
 Maximum number of real-space cells 4x 4x 2
 Maximum number of reciprocal cells 2x 2x 4

    FEWALD:  cpu time    0.0044: real time    0.0044


--------------------------------------- Iteration      1(   1)  ---------------------------------------


    POTLOK:  cpu time    0.4257: real time    0.4336
    SETDIJ:  cpu time    0.0344: real time    0.0349
     EDDAV:  cpu time  172.2941: real time  172.8179
       DOS:  cpu time    0.0038: real time    0.0039
    --------------------------------------------
      LOOP:  cpu time  172.7581: real time  173.2903

 eigenvalue-minimisations  : 23600
 total energy-change (2. order) : 0.7890213E+04  (-0.3289052E+05)
 number of electron     777.0000000 magnetization     231.0000000
 augmentation part      777.0000000 magnetization     231.0000000

 Free energy of the ion-electron system (eV)
  ---------------------------------------------------
  alpha Z        PSCENC =      2235.19619116
  Ewald energy   TEWEN  =    224165.22384055
  -Hartree energ DENC   =   -296402.03965954
  -exchange      EXHF   =         0.00000000
  -V(xc)+E(xc)   XCENC  =      1384.96672737
  PAW double counting   =     64134.66604118   -66036.56585687
  entropy T*S    EENTRO =        -0.00732782
  eigenvalues    EBANDS =      8202.60595867
  atomic energy  EATOM  =     70206.16701721
  Solvation  Ediel_sol  =         0.00000000
  ---------------------------------------------------
  free energy    TOTEN  =      7890.21293192 eV

  energy without entropy =     7890.22025974  energy(sigma->0) =     7890.21537453


--------------------------------------------------------------------------------------------------------




--------------------------------------- Iteration      1(   2)  ---------------------------------------


     EDDAV:  cpu time  171.9138: real time  172.4217
       DOS:  cpu time    0.0043: real time    0.0043
    --------------------------------------------
      LOOP:  cpu time  171.9181: real time  172.4261

 eigenvalue-minimisations  : 23600
 total energy-change (2. order) :-0.7033249E+04  (-0.6281652E+04)
 number of electron     777.0000000 magnetization     231.0000000
 augmentation part      777.0000000 magnetization     231.0000000

 Free energy of the ion-electron system (eV)
  ---------------------------------------------------
  alpha Z        PSCENC =      2235.19619116
  Ewald energy   TEWEN  =    224165.22384055
  -Hartree energ DENC   =   -296402.03965954
  -exchange      EXHF   =         0.00000000
  -V(xc)+E(xc)   XCENC  =      1384.96672737
  PAW double counting   =     64134.66604118   -66036.56585687
  entropy T*S    EENTRO =        -0.00398077
  eigenvalues    EBANDS =      1169.35373904
  atomic energy  EATOM  =     70206.16701721
  Solvation  Ediel_sol  =         0.00000000
  ---------------------------------------------------
  free energy    TOTEN  =       856.96405934 eV

  energy without entropy =      856.96804011  energy(sigma->0) =      856.96538626


--------------------------------------------------------------------------------------------------------




--------------------------------------- Iteration      1(   3)  ---------------------------------------


     EDDAV:  cpu time  171.6799: real time  172.1729
       DOS:  cpu time    0.0051: real time    0.0051
    --------------------------------------------
      LOOP:  cpu time  171.6850: real time  172.1780

 eigenvalue-minimisations  : 23600
 total energy-change (2. order) :-0.1228394E+04  (-0.9941217E+03)
 number of electron     777.0000000 magnetization     231.0000000
 augmentation part      777.0000000 magnetization     231.0000000

 Free energy of the ion-electron system (eV)
  ---------------------------------------------------
  alpha Z        PSCENC =      2235.19619116
  Ewald energy   TEWEN  =    224165.22384055
  -Hartree energ DENC   =   -296402.03965954
  -exchange      EXHF   =         0.00000000
  -V(xc)+E(xc)   XCENC  =      1384.96672737
  PAW double counting   =     64134.66604118   -66036.56585687
  entropy T*S    EENTRO =         0.00124395
  eigenvalues    EBANDS =       -59.04550997
  atomic energy  EATOM  =     70206.16701721
  Solvation  Ediel_sol  =         0.00000000
  ---------------------------------------------------
  free energy    TOTEN  =      -371.42996495 eV

  energy without entropy =     -371.43120891  energy(sigma->0) =     -371.43037960


--------------------------------------------------------------------------------------------------------




--------------------------------------- Iteration      1(   4)  ---------------------------------------


     EDDAV:  cpu time  203.8706: real time  204.4655
       DOS:  cpu time    0.0049: real time    0.0049
    --------------------------------------------
      LOOP:  cpu time  203.8755: real time  204.4704

 eigenvalue-minimisations  : 29410
 total energy-change (2. order) :-0.1176246E+03  (-0.1081020E+03)
 number of electron     777.0000000 magnetization     231.0000000
 augmentation part      777.0000000 magnetization     231.0000000

 Free energy of the ion-electron system (eV)
  ---------------------------------------------------
  alpha Z        PSCENC =      2235.19619116
  Ewald energy   TEWEN  =    224165.22384055
  -Hartree energ DENC   =   -296402.03965954
  -exchange      EXHF   =         0.00000000
  -V(xc)+E(xc)   XCENC  =      1384.96672737
  PAW double counting   =     64134.66604118   -66036.56585687
  entropy T*S    EENTRO =         0.00582264
  eigenvalues    EBANDS =      -176.67467652
  atomic energy  EATOM  =     70206.16701721
  Solvation  Ediel_sol  =         0.00000000
  ---------------------------------------------------
  free energy    TOTEN  =      -489.05455282 eV

  energy without entropy =     -489.06037545  energy(sigma->0) =     -489.05649369


--------------------------------------------------------------------------------------------------------




--------------------------------------- Iteration      1(   5)  ---------------------------------------


     EDDAV:  cpu time  194.8287: real time  195.3603
       DOS:  cpu time    0.0048: real time    0.0049
    CHARGE:  cpu time   10.8378: real time   10.8697
    MIXING:  cpu time    0.0089: real time    0.0097
    --------------------------------------------
      LOOP:  cpu time  205.6803: real time  206.2445

 eigenvalue-minimisations  : 27780
 total energy-change (2. order) :-0.4405432E+01  (-0.4372595E+01)
 number of electron     777.0000021 magnetization     216.3342379
 augmentation part      334.8588779 magnetization     184.7427799

 Broyden mixing:
  rms(total) = 0.11878E+02    rms(broyden)= 0.11878E+02
  rms(prec ) = 0.12192E+02
  weight for this iteration     100.00

 Free energy of the ion-electron system (eV)
  ---------------------------------------------------
  alpha Z        PSCENC =      2235.19619116
  Ewald energy   TEWEN  =    224165.22384055
  -Hartree energ DENC   =   -296402.03965954
  -exchange      EXHF   =         0.00000000
  -V(xc)+E(xc)   XCENC  =      1384.96672737
  PAW double counting   =     64134.66604118   -66036.56585687
  entropy T*S    EENTRO =         0.00716777
  eigenvalues    EBANDS =      -181.08145348
  atomic energy  EATOM  =     70206.16701721
  Solvation  Ediel_sol  =         0.00000000
  ---------------------------------------------------
  free energy    TOTEN  =      -493.45998464 eV

  energy without entropy =     -493.46715242  energy(sigma->0) =     -493.46237390


--------------------------------------------------------------------------------------------------------




--------------------------------------- Iteration      1(   6)  ---------------------------------------


    POTLOK:  cpu time    0.4078: real time    0.4089
    SETDIJ:  cpu time    0.0349: real time    0.0349
    EDDIAG:  cpu time   30.2612: real time   30.3502
  RMM-DIIS:  cpu time  102.9071: real time  103.2091
    ORTHCH:  cpu time    3.4638: real time    3.4739
       DOS:  cpu time    0.0045: real time    0.0045
    CHARGE:  cpu time   10.4985: real time   10.5288
    MIXING:  cpu time    0.0103: real time    0.0107
    --------------------------------------------
      LOOP:  cpu time  147.5879: real time  148.0210

 eigenvalue-minimisations  : 23928
 total energy-change (2. order) :-0.1690269E+03  (-0.9119401E+02)
 number of electron     777.0000024 magnetization     212.3494909
 augmentation part      406.3901120 magnetization     178.0958339

 Broyden mixing:
  rms(total) = 0.19645E+02    rms(broyden)= 0.19645E+02
  rms(prec ) = 0.25955E+02
  weight for this iteration     100.00

 eigenvalues of (default mixing * dielectric matrix)
  average eigenvalue GAMMA=   0.2281
  0.2281

 Free energy of the ion-electron system (eV)
  ---------------------------------------------------
  alpha Z        PSCENC =      2235.19619116
  Ewald energy   TEWEN  =    224165.22384055
  -Hartree energ DENC   =   -294749.45197508
  -exchange      EXHF   =         0.00000000
  -V(xc)+E(xc)   XCENC  =      1341.27914520
  PAW double counting   =     69290.11628609   -70982.78802448
  entropy T*S    EENTRO =        -0.00185269
  eigenvalues    EBANDS =     -2168.22751891
  atomic energy  EATOM  =     70206.16701721
  Solvation  Ediel_sol  =         0.00000000
  ---------------------------------------------------
  free energy    TOTEN  =      -662.48689096 eV

  energy without entropy =     -662.48503827  energy(sigma->0) =     -662.48627340


--------------------------------------------------------------------------------------------------------




--------------------------------------- Iteration      1(   7)  ---------------------------------------


    POTLOK:  cpu time    0.4090: real time    0.4101
    SETDIJ:  cpu time    0.0348: real time    0.0349
    EDDIAG:  cpu time   30.0555: real time   30.1443
  RMM-DIIS:  cpu time  101.6544: real time  101.9555
    ORTHCH:  cpu time    3.4486: real time    3.4588
       DOS:  cpu time    0.0047: real time    0.0047
    CHARGE:  cpu time   10.5684: real time   10.5989
    MIXING:  cpu time    0.0102: real time    0.0105
    --------------------------------------------
      LOOP:  cpu time  146.1857: real time  146.6178

 eigenvalue-minimisations  : 23656
 total energy-change (2. order) : 0.1197804E+03  (-0.1635155E+02)
 number of electron     777.0000020 magnetization     207.5791886
 augmentation part      365.7452304 magnetization     164.5162134

 Broyden mixing:
  rms(total) = 0.15839E+02    rms(broyden)= 0.15839E+02
  rms(prec ) = 0.21480E+02
  weight for this iteration     100.00

 eigenvalues of (default mixing * dielectric matrix)
  average eigenvalue GAMMA=   0.2724
  0.3885  0.1563

 Free energy of the ion-electron system (eV)
  ---------------------------------------------------
  alpha Z        PSCENC =      2235.19619116
  Ewald energy   TEWEN  =    224165.22384055
  -Hartree energ DENC   =   -295469.46523683
  -exchange      EXHF   =         0.00000000
  -V(xc)+E(xc)   XCENC  =      1360.21066920
  PAW double counting   =     70349.44201697   -72201.99523578
  entropy T*S    EENTRO =         0.00104903
  eigenvalues    EBANDS =     -1187.48683613
  atomic energy  EATOM  =     70206.16701721
  Solvation  Ediel_sol  =         0.00000000
  ---------------------------------------------------
  free energy    TOTEN  =      -542.70652461 eV

  energy without entropy =     -542.70757364  energy(sigma->0) =     -542.70687429


--------------------------------------------------------------------------------------------------------




--------------------------------------- Iteration      1(   8)  ---------------------------------------


    POTLOK:  cpu time    0.4083: real time    0.4093
    SETDIJ:  cpu time    0.0348: real time    0.0349
    EDDIAG:  cpu time   30.1368: real time   30.2374
  RMM-DIIS:  cpu time  101.7911: real time  102.0861
    ORTHCH:  cpu time    3.6642: real time    3.6750
       DOS:  cpu time    0.0050: real time    0.0050
    CHARGE:  cpu time   10.3766: real time   10.4069
    MIXING:  cpu time    0.0107: real time    0.0107
    --------------------------------------------
      LOOP:  cpu time  146.4275: real time  146.8651

 eigenvalue-minimisations  : 23670
 total energy-change (2. order) : 0.6221271E+02  (-0.1043330E+02)
 number of electron     777.0000030 magnetization     200.4925797
 augmentation part      370.7082756 magnetization     162.0187158

 Broyden mixing:
  rms(total) = 0.16443E+02    rms(broyden)= 0.16442E+02
  rms(prec ) = 0.19267E+02
  weight for this iteration     100.00

 eigenvalues of (default mixing * dielectric matrix)
  average eigenvalue GAMMA=   0.3067
  0.5899  0.2496  0.0806

 Free energy of the ion-electron system (eV)
  ---------------------------------------------------
  alpha Z        PSCENC =      2235.19619116
  Ewald energy   TEWEN  =    224165.22384055
  -Hartree energ DENC   =   -295777.96546551
  -exchange      EXHF   =         0.00000000
  -V(xc)+E(xc)   XCENC  =      1365.00801330
  PAW double counting   =     71626.42651766   -73553.54520877
  entropy T*S    EENTRO =         0.00130697
  eigenvalues    EBANDS =      -747.00602762
  atomic energy  EATOM  =     70206.16701721
  Solvation  Ediel_sol  =         0.00000000
  ---------------------------------------------------
  free energy    TOTEN  =      -480.49381505 eV

  energy without entropy =     -480.49512201  energy(sigma->0) =     -480.49425070


--------------------------------------------------------------------------------------------------------




--------------------------------------- Iteration      1(   9)  ---------------------------------------


    POTLOK:  cpu time    0.4074: real time    0.4086
    SETDIJ:  cpu time    0.0352: real time    0.0353
    EDDIAG:  cpu time   30.1005: real time   30.1891
  RMM-DIIS:  cpu time  102.0811: real time  102.3789
    ORTHCH:  cpu time    3.5452: real time    3.5542
       DOS:  cpu time    0.0047: real time    0.0047
    CHARGE:  cpu time   10.4776: real time   10.5043
    MIXING:  cpu time    0.0110: real time    0.0111
    --------------------------------------------
      LOOP:  cpu time  146.6627: real time  147.0862

 eigenvalue-minimisations  : 23708
 total energy-change (2. order) : 0.1089933E+03  (-0.1442081E+02)
 number of electron     777.0000018 magnetization     192.2027427
 augmentation part      371.9655366 magnetization     147.6151268

 Broyden mixing:
  rms(total) = 0.12565E+02    rms(broyden)= 0.12565E+02
  rms(prec ) = 0.14353E+02
  weight for this iteration     100.00

 eigenvalues of (default mixing * dielectric matrix)
  average eigenvalue GAMMA=   0.3679
  0.8958  0.3441  0.1410  0.0909

 Free energy of the ion-electron system (eV)
  ---------------------------------------------------
  alpha Z        PSCENC =      2235.19619116
  Ewald energy   TEWEN  =    224165.22384055
  -Hartree energ DENC   =   -295494.42237330
  -exchange      EXHF   =         0.00000000
  -V(xc)+E(xc)   XCENC  =      1381.20042225
  PAW double counting   =     73111.10128711   -75091.53645077
  entropy T*S    EENTRO =         0.00099207
  eigenvalues    EBANDS =      -884.43140090
  atomic energy  EATOM  =     70206.16701721
  Solvation  Ediel_sol  =         0.00000000
  ---------------------------------------------------
  free energy    TOTEN  =      -371.50047464 eV

  energy without entropy =     -371.50146670  energy(sigma->0) =     -371.50080532


--------------------------------------------------------------------------------------------------------




--------------------------------------- Iteration      1(  10)  ---------------------------------------


    POTLOK:  cpu time    0.4102: real time    0.4113
    SETDIJ:  cpu time    0.0351: real time    0.0352
    EDDIAG:  cpu time   30.0873: real time   30.1752
  RMM-DIIS:  cpu time  101.8418: real time  102.1412
    ORTHCH:  cpu time    3.4500: real time    3.4602
       DOS:  cpu time    0.0050: real time    0.0050
    CHARGE:  cpu time   10.4633: real time   10.4936
    MIXING:  cpu time    0.0112: real time    0.0112
    --------------------------------------------
      LOOP:  cpu time  146.3039: real time  146.7328

 eigenvalue-minimisations  : 23715
 total energy-change (2. order) :-0.5599667E+02  (-0.1582566E+02)
 number of electron     777.0000024 magnetization     183.4516962
 augmentation part      369.3974560 magnetization     139.9125278

 Broyden mixing:
  rms(total) = 0.14278E+02    rms(broyden)= 0.14278E+02
  rms(prec ) = 0.16078E+02
  weight for this iteration     100.00

 eigenvalues of (default mixing * dielectric matrix)
  average eigenvalue GAMMA=   0.3946
  1.1233  0.4699  0.1468  0.1468  0.0864

 Free energy of the ion-electron system (eV)
  ---------------------------------------------------
  alpha Z        PSCENC =      2235.19619116
  Ewald energy   TEWEN  =    224165.22384055
  -Hartree energ DENC   =   -295782.37451369
  -exchange      EXHF   =         0.00000000
  -V(xc)+E(xc)   XCENC  =      1377.57949910
  PAW double counting   =     74556.17573439   -76590.23594059
  entropy T*S    EENTRO =         0.00155001
  eigenvalues    EBANDS =      -595.23052162
  atomic energy  EATOM  =     70206.16701721
  Solvation  Ediel_sol  =         0.00000000
  ---------------------------------------------------
  free energy    TOTEN  =      -427.49714349 eV

  energy without entropy =     -427.49869350  energy(sigma->0) =     -427.49766016


--------------------------------------------------------------------------------------------------------




--------------------------------------- Iteration      1(  11)  ---------------------------------------


    POTLOK:  cpu time    0.4076: real time    0.4089
    SETDIJ:  cpu time    0.0335: real time    0.0336
    EDDIAG:  cpu time   30.0564: real time   30.1439
  RMM-DIIS:  cpu time  101.9524: real time  102.2363
    ORTHCH:  cpu time    3.4553: real time    3.4653
       DOS:  cpu time    0.0049: real time    0.0049
    CHARGE:  cpu time   10.4645: real time   10.4951
    MIXING:  cpu time    0.0123: real time    0.0123
    --------------------------------------------
      LOOP:  cpu time  146.3869: real time  146.8002

 eigenvalue-minimisations  : 23733
 total energy-change (2. order) : 0.2114580E+02  (-0.1194432E+02)
 number of electron     777.0000022 magnetization     178.0371696
 augmentation part      373.0284626 magnetization     132.4985972

 Broyden mixing:
[...]
   0.373E+02 -.135E+02 -.155E+04   -.389E+02 0.137E+02 0.155E+04   0.166E+01 -.154E+00 0.204E+01   0.509E-03 0.500E-03 -.336E-03
   -.423E+01 0.247E+02 -.294E+04   0.432E+01 -.246E+02 0.294E+04   -.908E-01 -.119E+00 0.719E+00   -.437E-03 0.209E-03 -.687E-04
   -.115E+02 0.219E+01 -.293E+04   0.110E+02 -.188E+01 0.293E+04   0.467E+00 -.296E+00 0.149E+01   0.804E-03 0.386E-03 0.178E-03
   0.126E+01 0.435E+01 -.292E+04   -.124E+01 -.464E+01 0.292E+04   0.129E-01 0.256E+00 0.889E+00   -.521E-04 0.236E-03 -.384E-04
   -.170E+02 -.730E+01 -.296E+04   0.171E+02 0.694E+01 0.296E+04   -.145E+00 0.337E+00 0.135E+01   -.605E-03 0.163E-03 0.181E-03
   0.115E+02 -.162E+02 -.294E+04   -.118E+02 0.163E+02 0.293E+04   0.298E+00 -.149E+00 0.185E+01   -.553E-03 0.106E-03 0.280E-03
   -.199E+02 0.143E+02 -.295E+04   0.198E+02 -.141E+02 0.295E+04   0.125E+00 -.232E+00 0.104E+01   -.175E-03 -.258E-04 0.173E-03
   -.929E+01 0.487E+00 -.291E+04   0.965E+01 -.219E+00 0.291E+04   -.315E+00 -.251E+00 0.157E+01   -.137E-03 -.153E-03 0.319E-03
   -.773E+01 -.351E+01 -.295E+04   0.794E+01 0.335E+01 0.295E+04   -.241E+00 0.119E+00 0.684E+00   0.658E-03 0.514E-03 -.124E-03
   -.972E+01 -.790E+00 -.293E+04   0.100E+02 0.453E+00 0.292E+04   -.287E+00 0.335E+00 0.106E+01   0.279E-04 0.291E-03 -.208E-03
   0.150E+00 -.171E+02 -.293E+04   -.451E+00 0.169E+02 0.293E+04   0.313E+00 0.219E+00 0.795E+00   0.625E-03 0.680E-03 0.766E-04
   0.219E+02 0.751E+01 -.293E+04   -.215E+02 -.744E+01 0.293E+04   -.424E+00 -.891E-01 0.133E+01   -.110E-03 -.332E-03 -.108E-03
   0.208E+02 -.125E+02 -.294E+04   -.205E+02 0.127E+02 0.294E+04   -.267E+00 -.221E+00 0.121E+01   -.309E-03 0.303E-03 -.315E-03
   -.122E+01 0.385E+00 -.292E+04   0.938E+00 -.750E+00 0.292E+04   0.276E+00 0.346E+00 0.103E+01   -.181E-03 -.511E-03 -.223E-03
   0.286E+02 -.601E+01 -.294E+04   -.284E+02 0.618E+01 0.294E+04   -.173E+00 -.203E+00 0.950E+00   -.620E-03 -.223E-04 -.415E-03
   0.686E+02 -.712E+02 -.154E+04   -.673E+02 0.714E+02 0.154E+04   -.121E+01 -.242E+00 0.175E+01   -.233E-03 0.449E-04 -.313E-03
   0.306E+02 -.426E+02 -.153E+04   -.317E+02 0.422E+02 0.153E+04   0.109E+01 0.446E+00 0.242E+01   0.676E-03 0.397E-03 0.227E-03
   0.334E+02 0.331E+02 0.304E+04   -.336E+02 -.332E+02 -.304E+04   0.148E+00 0.112E+00 -.232E+01   -.453E-04 -.831E-04 0.470E-04
   0.378E+02 -.743E+01 0.160E+04   -.386E+02 0.814E+01 -.161E+04   0.900E+00 -.657E+00 0.929E+00   0.729E-04 0.515E-03 0.276E-03
   -.699E+02 0.107E+02 -.149E+04   0.708E+02 -.997E+01 0.149E+04   -.892E+00 -.675E+00 0.263E+01   -.677E-03 0.402E-04 0.266E-03
   -.552E+02 0.525E+02 0.309E+04   0.559E+02 -.516E+02 -.309E+04   -.661E+00 -.889E+00 -.207E+01   0.324E-03 -.344E-03 0.190E-03
   -.380E+00 -.546E+02 0.159E+04   0.671E+00 0.541E+02 -.159E+04   -.340E+00 0.444E+00 -.776E+00   -.353E-03 0.274E-03 -.243E-04
   0.885E+01 0.374E+00 -.293E+04   -.903E+01 -.354E+00 0.293E+04   0.175E+00 -.334E-01 0.648E+00   -.201E-03 -.944E-04 -.375E-03
   -.241E+02 -.895E+01 0.894E+01   0.241E+02 0.923E+01 -.102E+02   -.201E-01 -.333E+00 0.131E+01   -.255E-03 -.986E-03 0.212E-03
   -.119E+02 0.755E+01 -.294E+04   0.114E+02 -.770E+01 0.294E+04   0.504E+00 0.175E+00 0.126E+01   -.161E-03 -.450E-03 -.138E-03
   0.196E+02 0.648E+02 0.172E+01   -.206E+02 -.660E+02 -.213E+01   0.105E+01 0.116E+01 0.346E+00   -.253E-03 0.443E-05 -.123E-04
   -.652E+02 0.646E+01 -.149E+04   0.656E+02 -.772E+01 0.149E+04   -.362E+00 0.134E+01 0.281E+01   -.176E-03 0.844E-05 -.750E-03
   0.263E+02 0.260E+02 -.155E+04   -.260E+02 -.253E+02 0.154E+04   -.268E+00 -.684E+00 0.226E+01   0.837E-04 -.654E-03 -.417E-03
   0.220E+02 -.639E+02 -.844E+02   -.230E+02 0.633E+02 0.847E+02   0.104E+01 0.533E+00 -.238E+00   0.561E-03 0.917E-03 0.332E-03
   -.221E+02 -.226E+02 0.250E+01   0.229E+02 0.233E+02 -.323E+01   -.841E+00 -.724E+00 0.741E+00   0.337E-03 -.536E-03 -.233E-03
   0.190E+02 0.153E+02 -.125E+04   -.191E+02 -.156E+02 0.125E+04   0.159E+00 0.428E+00 0.327E+00   0.344E-03 0.173E-03 -.336E-03
   -.618E+02 -.392E+01 0.244E+04   0.621E+02 0.269E+01 -.244E+04   -.352E+00 0.126E+01 -.273E+01   -.463E-04 -.381E-03 -.143E-04
   0.315E+02 -.142E+02 0.247E+04   -.313E+02 0.129E+02 -.247E+04   -.135E+00 0.142E+01 -.232E+01   -.134E-03 -.127E-03 0.102E-03
   0.236E+02 -.510E+01 0.248E+04   -.237E+02 0.566E+01 -.248E+04   0.953E-01 -.587E+00 -.294E+01   -.243E-03 0.180E-04 0.191E-03
   0.364E+01 0.496E+02 0.129E+04   -.280E+01 -.490E+02 -.129E+04   -.870E+00 -.661E+00 -.164E+00   0.834E-04 0.334E-03 0.406E-03
   0.345E+02 -.547E+02 0.127E+04   -.344E+02 0.545E+02 -.127E+04   -.122E+00 0.213E+00 -.454E+00   0.206E-03 0.182E-03 -.495E-03
   -.545E+02 -.249E+02 -.125E+04   0.547E+02 0.251E+02 0.125E+04   -.127E+00 -.200E+00 0.628E+00   0.195E-03 0.301E-03 -.155E-03
   -.935E+02 0.214E+02 0.248E+04   0.932E+02 -.212E+02 -.248E+04   0.301E+00 -.188E+00 -.275E+01   0.259E-03 0.356E-03 0.178E-04
   -.332E+02 0.448E+02 0.130E+04   0.324E+02 -.444E+02 -.130E+04   0.826E+00 -.499E+00 -.481E+00   -.406E-03 0.188E-03 0.534E-03
   -.437E+02 0.220E+01 -.433E+02   0.435E+02 -.180E+01 0.431E+02   0.199E+00 -.422E+00 0.462E-01   0.784E-04 0.340E-03 -.137E-03
   0.129E+02 -.789E+02 -.126E+04   -.131E+02 0.788E+02 0.125E+04   0.182E+00 0.230E+00 0.102E+01   0.353E-03 0.323E-03 0.247E-03
   0.137E+02 0.266E+02 -.124E+04   -.137E+02 -.266E+02 0.124E+04   0.513E-01 -.462E-01 0.286E+00   -.396E-03 -.426E-03 -.795E-04
   0.154E+02 -.450E+02 0.245E+04   -.160E+02 0.443E+02 -.245E+04   0.659E+00 0.690E+00 -.270E+01   0.238E-03 -.259E-03 -.268E-04
   0.516E+01 -.195E+02 0.276E+04   -.522E+01 0.197E+02 -.275E+04   0.763E-01 -.200E+00 -.236E+01   0.278E-03 -.257E-03 0.192E-03
   0.121E+03 0.288E+02 0.279E+04   -.122E+03 -.282E+02 -.279E+04   0.381E+00 -.651E+00 -.238E+01   0.109E-03 -.140E-03 0.175E-03
   -.353E+02 -.266E+02 0.142E+04   0.349E+02 0.255E+02 -.142E+04   0.435E+00 0.111E+01 -.460E+00   0.315E-03 -.142E-03 0.327E-04
   -.587E+02 0.680E+02 0.198E+02   0.587E+02 -.678E+02 -.207E+02   0.202E-01 -.219E+00 0.898E+00   0.715E-03 -.324E-03 0.215E-03
   -.877E+02 0.193E+02 0.141E+04   0.872E+02 -.188E+02 -.141E+04   0.501E+00 -.490E+00 -.170E+00   0.961E-04 -.241E-03 0.172E-03
   -.200E+02 0.122E+02 0.139E+04   0.201E+02 -.124E+02 -.139E+04   -.147E+00 0.269E+00 -.128E+00   -.201E-03 -.150E-03 0.556E-03
   0.456E+02 0.890E+01 -.140E+04   -.454E+02 -.904E+01 0.140E+04   -.302E+00 0.188E+00 0.145E+01   -.533E-03 -.503E-03 0.265E-03
   0.524E+02 -.817E+02 0.276E+04   -.521E+02 0.815E+02 -.276E+04   -.325E+00 0.209E+00 -.245E+01   0.407E-03 0.291E-04 -.104E-03
   -.128E+02 0.711E+00 0.138E+04   0.130E+02 -.475E+00 -.138E+04   -.130E+00 -.250E+00 -.465E+00   0.479E-03 -.504E-03 0.153E-04
   0.178E+02 -.662E+02 -.209E+02   -.171E+02 0.657E+02 0.211E+02   -.780E+00 0.590E+00 -.318E+00   -.519E-03 0.428E-04 -.693E-04
   0.287E+02 0.327E+02 0.344E+04   -.288E+02 -.319E+02 -.344E+04   0.925E-01 -.813E+00 -.357E+01   0.229E-03 0.486E-04 0.530E-03
   0.650E+02 0.906E+01 0.173E+04   -.651E+02 -.975E+01 -.173E+04   0.146E+00 0.723E+00 -.232E+00   0.135E-03 0.487E-03 0.157E-03
   0.102E+03 -.337E+02 0.172E+04   -.102E+03 0.337E+02 -.172E+04   -.154E+00 0.278E-01 0.538E-01   -.418E-03 -.529E-03 0.675E-03
   0.157E+02 0.713E+02 0.753E+02   -.163E+02 -.711E+02 -.762E+02   0.567E+00 -.235E+00 0.817E+00   0.315E-03 0.389E-04 0.385E-03
   0.127E+02 0.527E+02 -.172E+04   -.123E+02 -.522E+02 0.172E+04   -.441E+00 -.470E+00 0.138E+01   -.398E-03 0.128E-03 -.362E-03
   -.379E+02 0.327E+02 -.168E+04   0.370E+02 -.324E+02 0.168E+04   0.104E+01 -.252E+00 0.230E+01   0.686E-03 -.111E-03 -.174E-03
   -.904E+01 0.994E+02 0.339E+04   0.912E+01 -.998E+02 -.339E+04   -.113E+00 0.479E+00 -.281E+01   -.408E-03 -.160E-03 0.205E-03
   -.149E+02 -.791E+02 0.341E+04   0.140E+02 0.787E+02 -.341E+04   0.930E+00 0.335E+00 -.261E+01   0.226E-03 -.890E-04 -.273E-03
   0.108E+03 0.309E+01 -.732E+02   -.108E+03 -.286E+01 0.733E+02   0.295E-01 -.305E+00 -.126E+00   0.281E-03 -.139E-03 0.736E-04
   -.114E+03 -.432E+02 0.358E+02   0.113E+03 0.430E+02 -.360E+02   0.344E+00 0.201E+00 0.203E+00   -.541E-03 0.305E-03 -.420E-04
   -.156E+02 0.538E+02 0.181E+04   0.152E+02 -.532E+02 -.181E+04   0.453E+00 -.589E+00 -.654E+00   -.103E-03 -.338E-03 0.710E-03
   0.712E+01 -.791E+02 0.425E+02   -.670E+01 0.780E+02 -.433E+02   -.426E+00 0.130E+01 0.729E+00   -.514E-03 0.316E-03 0.219E-03
   0.531E+02 -.362E+02 -.438E+01   -.525E+02 0.358E+02 0.396E+01   -.567E+00 0.401E+00 0.474E+00   0.390E-03 0.537E-03 0.450E-03
   -.729E+02 0.314E+01 0.156E+04   0.725E+02 -.304E+01 -.156E+04   0.410E+00 -.338E-01 -.143E+00   -.984E-04 0.473E-03 0.515E-03
   -.126E+02 0.221E+02 0.162E+04   0.130E+02 -.223E+02 -.162E+04   -.388E+00 0.178E+00 -.528E+00   0.280E-03 0.190E-03 0.665E-04
   -.999E+02 -.304E+01 0.309E+04   0.100E+03 0.312E+01 -.309E+04   -.494E+00 -.754E-01 -.137E+01   0.688E-04 0.389E-03 -.168E-03
   0.692E+02 -.528E+02 0.309E+04   -.696E+02 0.534E+02 -.309E+04   0.369E+00 -.629E+00 -.830E+00   0.444E-04 -.362E-03 0.581E-04
   0.129E+02 -.403E+02 0.155E+04   -.125E+02 0.401E+02 -.155E+04   -.408E+00 0.220E+00 -.306E-01   0.990E-04 -.721E-03 0.460E-04
   0.483E+02 0.199E+01 0.159E+04   -.479E+02 -.201E+01 -.159E+04   -.485E+00 0.648E-01 -.114E+00   0.288E-03 -.181E-03 0.631E-03
   -.379E+02 -.703E+02 -.156E+04   0.378E+02 0.704E+02 0.156E+04   0.135E+00 -.848E-01 0.733E+00   -.532E-03 -.158E-03 -.257E-03
   -.532E+02 0.301E+02 0.307E+04   0.536E+02 -.296E+02 -.307E+04   -.411E+00 -.558E+00 -.195E+01   -.447E-03 0.509E-03 0.439E-03
   -.489E+02 0.744E+02 0.690E+02   0.493E+02 -.741E+02 -.692E+02   -.354E+00 -.360E+00 0.183E+00   -.629E-03 0.922E-04 0.232E-03
   -.138E+01 0.611E+02 -.104E+02   0.131E+01 -.604E+02 0.103E+02   0.917E-01 -.836E+00 0.625E-01   0.307E-03 -.699E-03 0.177E-03
   0.475E+02 0.567E+01 -.357E+02   -.472E+02 -.503E+01 0.355E+02   -.422E+00 -.663E+00 0.136E+00   -.805E-03 -.652E-03 0.461E-03
   0.261E+02 -.472E+02 0.246E+02   -.265E+02 0.467E+02 -.249E+02   0.332E+00 0.476E+00 0.236E+00   0.920E-03 0.169E-03 0.988E-04
 -----------------------------------------------------------------------------------------------
   -.222E+01 -.103E+01 -.807E+01   -.753E-12 -.128E-12 0.345E-11   0.223E+01 0.102E+01 0.806E+01   -.317E-03 0.125E-03 0.393E-02
 
 
 POSITION                                       TOTAL-FORCE (eV/Angst)
 -----------------------------------------------------------------------------------
     12.95511      8.03406      6.98300         0.001206      0.000272      0.004569
      5.11375      8.06749      6.94823         0.001393     -0.000468      0.000346
      4.96109      3.47773      7.03947         0.000729     -0.003630     -0.000004
     14.31362      8.78992      9.32392        -0.001741     -0.000643     -0.002293
      3.73081      4.22082      9.42273         0.005579     -0.001962     -0.001840
      6.39784      8.78764      9.27690         0.007331      0.003919     -0.000625
     11.66310      4.20413      9.38972        -0.002197      0.000084     -0.000977
      9.02609      8.77478      9.25356        -0.002550     -0.001545     -0.002153
     10.34931      1.92855      9.26486         0.006329     -0.001909     -0.004138
      2.43841      1.92490      9.30587        -0.001779     -0.007337     -0.003370
     11.66687      8.78352      9.31410         0.006611      0.001141     -0.000923
     12.98541      6.49483      9.37611         0.004753     -0.001280      0.002472
      5.05891      1.91154      9.35154         0.003379     -0.001624     -0.002156
      7.72537      6.50583      9.32256         0.004886     -0.002886     -0.000790
      9.04141      4.21355      9.30217         0.006108      0.003309      0.000998
      5.06875      6.49911      9.37480        -0.000120     -0.004305      0.001895
      7.71531      1.92266      9.28885        -0.000574     -0.005307      0.000595
      7.77014      3.43836      6.98159        -0.001382      0.000860     -0.002104
      6.30353      1.13736      6.92959         0.002350     -0.003405     -0.002623
      6.41385      1.13458      0.88131        -0.001143      0.000711     -0.000689
      3.70764      4.21592      2.80810         0.000928      0.001163      0.000343
      1.17358      1.25243      6.91357        -0.000280     -0.000277     -0.000884
      1.12056      1.20074      0.72652        -0.001414      0.001739     -0.000829
      6.43126      8.76911      2.90644         0.000094     -0.000907     -0.001699
      6.38984      4.21507      9.38315        -0.001495     -0.002282      0.000682
      7.68633      4.98792      4.80741        -0.002230      0.001204      0.002706
     10.33338      6.50069      9.31911        -0.000971     -0.007456      0.000957
     14.27188      7.21845      4.85859         0.000715      0.000766      0.003146
     11.68093      5.68632      7.01492         0.001111     -0.000095      0.000479
      6.41400      5.77087      6.99642        -0.000694     -0.001583      0.000984
      3.61764      2.56945      4.96212         0.002133      0.001406      0.000795
     10.36302      5.01975      4.85183        -0.000307      0.003518      0.003246
      3.76224      5.76533      7.16336         0.000212     -0.004395      0.000936
     12.95388      7.88480      0.92596        -0.004732      0.002455      0.002379
      5.16345      7.92799      0.83489        -0.003486     -0.000973      0.000617
      3.81068      5.75329      0.80318        -0.001776      0.000767      0.000836
      7.78008      2.03116      2.84041        -0.000105      0.001502     -0.001465
      9.07335      8.73503      2.86310        -0.001255     -0.000911     -0.001138
      2.40196      3.50257      7.15798        -0.000416     -0.001152     -0.003569
      2.33999      3.50233      0.81733        -0.001695      0.000600      0.002678
     10.33663      1.97214      2.82465        -0.000380     -0.000042     -0.000579
     12.95836      4.98088      4.91269        -0.001185      0.001235      0.001369
      3.73714      1.06771      7.08397        -0.000310     -0.000916     -0.002355
      9.03883      5.75138      7.09368         0.002015     -0.000749     -0.000147
      3.73399      1.10331      0.87502        -0.000130      0.002216     -0.001280
      9.08729      5.72659      0.95984        -0.001583      0.002101     -0.001693
      5.12811      3.47265      0.85139        -0.001520      0.004593      0.000739
     11.61583      8.69177      2.91423         0.001232     -0.001286      0.001531
     11.65594      7.26424      4.83811        -0.001916     -0.000188      0.001437
     12.87206      6.45685      2.83055        -0.000032      0.002438      0.003390
      9.04124      4.21313      2.78881        -0.000478      0.002005     -0.001006
      7.77525      8.01386      6.99804         0.002122     -0.000519      0.000662
      7.80373      7.95031      0.89305         0.000766      0.001472     -0.002769
     10.39257      6.53294      2.82089        -0.002407      0.001041     -0.000139
      2.51780      0.26633      5.00124         0.001174      0.000694     -0.001871
      7.73843      3.48227      0.76336        -0.003695      0.001148     -0.000829
      5.06878      1.87958      2.92107         0.001696     -0.001577     -0.001527
      5.16082      6.45098      2.89493        -0.002908      0.001633     -0.001285
      7.71223      0.45966      4.85137         0.000089     -0.000410      0.000856
      9.05745      1.18719      6.98739        -0.000392     -0.000454      0.001114
     10.29655      7.98364      6.97686         0.001944     -0.001606      0.001968
      9.04467      1.12713      0.76188        -0.000908      0.003690     -0.001130
     10.35061      7.97052      0.79793        -0.002423     -0.000030      0.000067
      5.05747      4.95758      4.92603        -0.002351      0.000132      0.004246
     11.61165      2.71334      4.86893        -0.000174      0.002573      0.000552
     14.28727      8.81755      2.83795        -0.002754      0.003063     -0.000321
      9.07187      2.64880      4.91601         0.001157     -0.000942     -0.001213
      6.36437      2.66813      4.86119         0.000392      0.000950     -0.000521
     11.65540      4.18085      2.80441        -0.003647      0.003305      0.001709
      2.43060      1.90852      2.83269        -0.002314     -0.000396     -0.001235
     11.64616      5.70108      0.88094         0.000921      0.001866      0.004961
      6.44872      5.72407      0.92743        -0.002434      0.001354      0.000690
      7.82422      6.51251      2.83445        -0.002220     -0.000998     -0.001928
      6.41250      4.13214      2.78164        -0.000166      0.001720      0.000526
     10.37787      3.47047      7.06004         0.000218      0.002940     -0.002144
     10.33927      3.45547      0.86147        -0.000228      0.000465      0.000244
     10.36224      0.48389      4.87440        -0.002108     -0.002807      0.001074
      9.04416      7.28481      4.94090         0.002299      0.000145      0.000322
      6.47570      7.29926      4.93971         0.000426      0.000528      0.000687
      5.04109      0.27900      4.88879        -0.001293      0.000531     -0.001562
 -----------------------------------------------------------------------------------
    total drift:                                0.011333     -0.003834     -0.004738


--------------------------------------------------------------------------------------------------------



  FREE ENERGIE OF THE ION-ELECTRON SYSTEM (eV)
  ---------------------------------------------------
  free  energy   TOTEN  =      -507.79993190 eV

  energy  without entropy=     -507.81334258  energy(sigma->0) =     -507.80440213
 
 d Force = 0.7772977E-04[ 0.134E-04, 0.142E-03]  d Energy = 0.7899006E-04-0.126E-05
 d Force =-0.2089660E+01[-0.209E+01,-0.209E+01]  d Ewald  =-0.2089659E+01-0.109E-05


--------------------------------------------------------------------------------------------------------


    POTLOK:  cpu time    0.4436: real time    0.4448


--------------------------------------------------------------------------------------------------------


 Steepest descent step on ions:
 trial-energy change:   -0.000079  1 .order   -0.000078   -0.000142   -0.000013
  (g-gl).g = 0.142E-03      g.g   = 0.142E-03  gl.gl    = 0.000E+00
 g(Force)  = 0.142E-03   g(Stress)= 0.000E+00 ortho     = 0.000E+00
 gamma     =   0.00000
 trial     =   1.00000
 opt step  =   1.09824  (harmonic =   1.10459) maximal distance =0.00067768
 next E    =  -507.799933   (d E  =  -0.00008)


--------------------------------------------------------------------------------------------------------


  
 reached required accuracy - stopping structural energy minimisation
     LOOP+:  cpu time 2693.0582: real time 2700.5926
    4ORBIT:  cpu time    0.0000: real time    0.0000

 total amount of memory used by VASP MPI-rank0   436910. kBytes
=======================================================================

   base      :      30000. kBytes
   nonlr-proj:      34492. kBytes
   fftplans  :      17962. kBytes
   grid      :      53265. kBytes
   one-center:        622. kBytes
   wavefun   :     300569. kBytes
 
  
  
 General timing and accounting informations for this job:
 ========================================================
  
                  Total CPU time used (sec):    18126.309
                            User time (sec):    18111.748
                          System time (sec):       14.561
                         Elapsed time (sec):    18178.236
  
                   Maximum memory used (kb):     1190320.
                   Average memory used (kb):           0.
  
                          Minor page faults:      3289689
                          Major page faults:            0
                 Voluntary context switches:         3773
