 vasp.5.4.4.18Apr17-6-g9f103f2a35 (build Nov 30 2020 22:55:02) complex          
  
 executed on             LinuxIFC date 2023.09.08  18:25:40
 running on   40 total cores
 distrk:  each k-point on   40 cores,    1 groups
 distr:  one band on NCORES_PER_BAND=   4 cores,   10 groups


--------------------------------------------------------------------------------------------------------


 INCAR:
 POTCAR:    PAW_PBE Pt 04Feb2005                  
 POTCAR:    PAW_PBE Pt 04Feb2005                  
   VRHFIN =Pt: s1d9                                                             
   LEXCH  = PE                                                                  
   EATOM  =   729.1176 eV,   53.5886 Ry                                         
                                                                                
   TITEL  = PAW_PBE Pt 04Feb2005                                                
   LULTRA =        F    use ultrasoft PP ?                                      
   IUNSCR =        1    unscreen: 0-lin 1-nonlin 2-no                           
   RPACOR =    2.330    partial core radius                                     
   POMASS =  195.080; ZVAL   =   10.000    mass and valenz                      
   RCORE  =    2.600    outmost cutoff radius                                   
   RWIGS  =    2.750; RWIGS  =    1.455    wigner-seitz radius (au A)           
   ENMAX  =  230.283; ENMIN  =  172.712 eV                                      
   ICORE  =        3    local potential                                         
   LCOR   =        T    correct aug charges                                     
   LPAW   =        T    paw PP                                                  
   EAUG   =  358.966                                                            
   DEXC   =    0.000                                                            
   RMAX   =    2.658    core radius for proj-oper                               
   RAUG   =    1.300    factor for augmentation sphere                          
   RDEP   =    2.761    radius for radial grids                                 
   RDEPT  =    2.203    core radius for aug-charge                              
                                                                                
   Atomic configuration                                                         
   16 entries                                                                   
     n  l   j            E        occ.                                          
     1  0  0.50    -78401.1885   2.0000                                         
     2  0  0.50    -13770.7750   2.0000                                         
     2  1  1.50    -11931.0468   6.0000                                         
     3  0  0.50     -3234.7234   2.0000                                         
     3  1  1.50     -2699.2216   6.0000                                         
     3  2  2.50     -2119.5714  10.0000                                         
     4  0  0.50      -695.1528   2.0000                                         
     4  1  1.50      -519.6034   6.0000                                         
     4  2  2.50      -306.6786  10.0000                                         
     4  3  3.50       -70.1041  14.0000                                         
     5  0  0.50      -101.7747   2.0000                                         
     5  1  1.50       -55.9873   6.0000                                         
     5  2  2.50        -6.1423   9.0000                                         
     6  0  0.50        -5.6573   1.0000                                         
     6  1  1.50        -6.8029   0.0000                                         
     5  3  2.50        -1.3606   0.0000                                         
   Description                                                                  
     l       E           TYP  RCUT    TYP  RCUT                                 
     2     -6.1423404     23  2.500                                             
     2     -7.5029230     23  2.500                                             
     0     -5.6573207     23  2.500                                             
     0      0.7416693     23  2.500                                             
     1     -2.7211652     23  2.600                                             
     1     20.4087390     23  2.600                                             
     3     -1.3605826     23  2.500                                             
  local pseudopotential read in
  partial core-charges read in
  partial kinetic energy density read in
  atomic valenz-charges read in
  non local Contribution for L=           2  read in
    real space projection operators read in
  non local Contribution for L=           2  read in
    real space projection operators read in
  non local Contribution for L=           0  read in
    real space projection operators read in
  non local Contribution for L=           0  read in
    real space projection operators read in
  non local Contribution for L=           1  read in
    real space projection operators read in
  non local Contribution for L=           1  read in
    real space projection operators read in
    PAW grid and wavefunctions read in
 
   number of l-projection  operators is LMAX  =           6
   number of lm-projection operators is LMMAX =          18
 
 Optimization of the real space projectors (new method)

 maximal supplied QI-value         = 14.36
 optimisation between [QCUT,QGAM] = [ 11.92, 23.98] = [ 39.79,161.09] Ry 
 Optimized for a Real-space Cutoff    1.49 Angstroem

   l    n(q)    QCUT    max X(q) W(low)/X(q) W(high)/X(q)  e(spline) 
   2     10    11.920    66.195    0.79E-04    0.18E-03    0.24E-06
   2     10    11.920    64.643    0.81E-04    0.19E-03    0.24E-06
   0     11    11.920    95.520    0.28E-04    0.54E-04    0.18E-06
   0     11    11.920    63.403    0.27E-04    0.52E-04    0.17E-06
   1     10    11.920    19.961    0.18E-04    0.11E-03    0.23E-06
   1     10    11.920    13.289    0.25E-04    0.87E-04    0.19E-06
  PAW_PBE Pt 04Feb2005                  :
 energy of atom  1       EATOM= -729.1176
 kinetic energy error for atom=    0.0021 (will be added to EATOM!!)
 
 
 POSCAR: Pt111                                   
  positions in direct lattice
  velocities in cartesian coordinates
 exchange correlation table for  LEXCH =        8
   RHO(1)=    0.500       N(1)  =     2000
   RHO(2)=  100.500       N(2)  =     4000
 


--------------------------------------------------------------------------------------------------------


 ion  position               nearest neighbor table
   1  0.785  0.869  0.330-   3 2.74   2 2.74  73 2.74  56 2.74  43 2.74  72 2.74  71 2.77  20 2.77
                            55 2.77  27 2.81  35 2.81  34 2.81
   2  0.035  0.869  0.330-  57 2.74   3 2.74   1 2.74  23 2.74  47 2.74  72 2.74  55 2.77  65 2.77
                            68 2.77  29 2.81  27 2.81  39 2.81
   3  0.035  0.619  0.330-   2 2.74   1 2.74   9 2.74  56 2.74  15 2.74  57 2.74  12 2.77  55 2.77
                            76 2.77  39 2.81  28 2.81  35 2.82
   4  0.787  0.868  0.018-   5 2.74  58 2.74  75 2.74   6 2.74  74 2.74  44 2.74  21 2.81  78 2.81
                            19 2.82
   5  0.037  0.868  0.018-  74 2.74  48 2.74   4 2.74  24 2.74   6 2.74  59 2.75  49 2.81  70 2.81
                            78 2.82
   6  0.037  0.618  0.018-  18 2.74  59 2.74   4 2.74  58 2.74   5 2.74  10 2.74  70 2.81  46 2.81
                            21 2.82
   7  0.619  0.202  0.123-  78 2.74  19 2.74  11 2.74  53 2.74  61 2.74  22 2.74  71 2.76  79 2.77
                            80 2.77  42 2.81  44 2.81  74 2.82
   8  0.369  0.952  0.123-  54 2.74  25 2.74  49 2.74  19 2.74  60 2.74  53 2.74  66 2.76  69 2.77
                            26 2.77  16 2.81  24 2.81  75 2.82
   9  0.035  0.369  0.330-  15 2.74  47 2.74  13 2.74   3 2.74  56 2.74  63 2.74  12 2.77  77 2.77
                            62 2.77  33 2.81  30 2.81  28 2.82
  10  0.037  0.368  0.018-  64 2.74  48 2.74  18 2.74  16 2.74  58 2.74   6 2.74  54 2.81  46 2.81
                            45 2.82
  11  0.869  0.202  0.123-  22 2.74   7 2.74  54 2.74  78 2.74  49 2.74  45 2.74  65 2.77  77 2.77
                            79 2.77  64 2.81  74 2.81  48 2.82
  12  0.952  0.536  0.227-  62 2.74  55 2.74  76 2.74  67 2.74  20 2.74  77 2.74  21 2.77  45 2.77
                             3 2.77   9 2.77  46 2.77  56 2.77
  13  0.285  0.119  0.330-  15 2.74   9 2.74  73 2.74  47 2.74  23 2.74  43 2.74  62 2.77  26 2.77
                            69 2.77  31 2.81  36 2.81  33 2.82
  14  0.535  0.619  0.330-  23 2.74  56 2.74  73 2.74  57 2.74  63 2.74  41 2.74  51 2.77  66 2.77
                            67 2.77  52 2.81  38 2.81  37 2.82
  15  0.285  0.369  0.330-  13 2.74  41 2.74  43 2.74   9 2.74   3 2.74  57 2.74  62 2.77  76 2.77
                            80 2.77  50 2.81  36 2.81  28 2.82
  16  0.287  0.118  0.018-  44 2.74  75 2.74  18 2.74  24 2.74  48 2.74  10 2.74   8 2.81  53 2.81
                            54 2.82
  17  0.537  0.618  0.018-  24 2.74  59 2.74  42 2.74  64 2.74  58 2.74  75 2.74  22 2.81  25 2.81
                            60 2.82
  18  0.287  0.368  0.018-   6 2.74  59 2.74  10 2.74  44 2.74  16 2.74  42 2.74  53 2.81  61 2.81
                            46 2.82
  19  0.619  0.952  0.123-  78 2.74  21 2.74  25 2.74   7 2.74   8 2.74  53 2.74  20 2.77  71 2.77
                            69 2.77  44 2.81  75 2.81   4 2.82
  20  0.702  0.786  0.227-  66 2.74  71 2.74  69 2.74  67 2.74  55 2.74  12 2.74  19 2.77   1 2.77
                            56 2.77  25 2.77  21 2.77  73 2.77
  21  0.869  0.702  0.123-  19 2.74  45 2.74  25 2.74  78 2.74  46 2.74  70 2.74  12 2.77  55 2.77
                            20 2.77   4 2.81  58 2.81   6 2.82
  22  0.619  0.452  0.123-  45 2.74  61 2.74  11 2.74  25 2.74   7 2.74  60 2.74  79 2.76  67 2.77
                            51 2.77  17 2.81  42 2.81  64 2.82
  23  0.285  0.869  0.330-  14 2.74  57 2.74  73 2.74   2 2.74  13 2.74  47 2.74  68 2.77  26 2.77
                            66 2.77  31 2.81  37 2.81  29 2.82
  24  0.287  0.868  0.018-  17 2.74  59 2.74  48 2.74   5 2.74  16 2.74  75 2.74  60 2.81   8 2.81
                            49 2.82
  25  0.619  0.702  0.123-  21 2.74  45 2.74  19 2.74   8 2.74  22 2.74  60 2.74  67 2.77  20 2.77
                            66 2.77  17 2.81  75 2.81  58 2.82
  26  0.202  0.036  0.227-  77 2.74  65 2.74  68 2.74  62 2.74  66 2.74  69 2.74  54 2.76  49 2.77
                            23 2.77  13 2.77   8 2.77  47 2.77
  27  0.868  0.953  0.436-  29 2.73  39 2.74  34 2.74  32 2.74  40 2.74  35 2.74   1 2.81  72 2.81
                             2 2.81
  28  0.117  0.453  0.436-  39 2.74  50 2.74  30 2.74  33 2.74  35 2.74  36 2.74   3 2.81   9 2.82
                            15 2.82
  29  0.117  0.953  0.436-  27 2.73  31 2.74  39 2.74  32 2.74  37 2.74  33 2.74   2 2.81  47 2.81
                            23 2.82
  30  0.868  0.453  0.436-  33 2.74  32 2.74  35 2.74  28 2.74  52 2.74  38 2.74  63 2.81   9 2.81
                            56 2.81
  31  0.367  0.953  0.436-  33 2.74  37 2.74  36 2.74  29 2.74  52 2.74  34 2.75  23 2.81  13 2.81
                            73 2.82
  32  0.867  0.203  0.436-  30 2.74  38 2.74  33 2.74  27 2.74  29 2.74  40 2.74  63 2.81  72 2.81
                            47 2.82
  33  0.117  0.203  0.436-  30 2.74  31 2.74  36 2.74  32 2.74  28 2.74  29 2.74   9 2.81  47 2.81
                            13 2.82
  34  0.618  0.953  0.436-  35 2.74  36 2.74  40 2.74  27 2.74  52 2.74  31 2.75  73 2.81  43 2.81
                             1 2.81
  35  0.867  0.703  0.436-  52 2.74  34 2.74  30 2.74  28 2.74  27 2.74  39 2.74  56 2.81   1 2.81
                             3 2.82
  36  0.368  0.203  0.436-  31 2.74  34 2.74  33 2.74  40 2.74  50 2.74  28 2.74  13 2.81  15 2.81
                            43 2.82
  37  0.368  0.703  0.436-  52 2.74  31 2.74  38 2.74  29 2.74  50 2.74  39 2.74  23 2.81  57 2.81
                            14 2.82
  38  0.617  0.453  0.436-  40 2.74  32 2.74  37 2.74  50 2.74  52 2.74  30 2.74  41 2.81  14 2.81
                            63 2.82
  39  0.117  0.703  0.436-  28 2.74  50 2.74  29 2.74  27 2.74  35 2.74  37 2.74   3 2.81   2 2.81
                            57 2.81
  40  0.617  0.203  0.436-  38 2.74  34 2.74  36 2.74  50 2.74  32 2.74  27 2.74  41 2.81  43 2.81
                            72 2.82
  41  0.534  0.369  0.330-  57 2.74  15 2.74  43 2.74  63 2.74  72 2.74  14 2.74  80 2.77  51 2.77
                            79 2.77  40 2.81  38 2.81  50 2.82
  42  0.537  0.368  0.018-  74 2.74  44 2.74  64 2.74  17 2.74  59 2.74  18 2.74   7 2.81  22 2.81
                            61 2.82
  43  0.535  0.119  0.330-  41 2.74  15 2.74  72 2.74  13 2.74  73 2.74   1 2.74  80 2.76  69 2.77
                            71 2.77  40 2.81  34 2.81  36 2.82
  44  0.537  0.118  0.018-  16 2.74  42 2.74  75 2.74  74 2.74  18 2.74   4 2.74  19 2.81   7 2.81
                            53 2.82
  45  0.869  0.452  0.123-  22 2.74  21 2.74  25 2.74  46 2.74  11 2.74  54 2.74  77 2.77  12 2.77
                            67 2.77  58 2.81  64 2.81  10 2.82
  46  0.119  0.452  0.124-  53 2.74  45 2.74  54 2.74  21 2.74  70 2.74  61 2.74  62 2.76  76 2.77
                            12 2.77   6 2.81  10 2.81  18 2.82
  47  0.035  0.119  0.330-   9 2.74  13 2.74  72 2.74  23 2.74  63 2.74   2 2.74  77 2.77  65 2.77
                            26 2.77  29 2.81  33 2.81  32 2.82
  48  0.037  0.118  0.018-   5 2.74  10 2.74  24 2.74  74 2.74  16 2.74  64 2.74  49 2.81  54 2.81
                            11 2.82
  49  0.119  0.952  0.123-  70 2.74  60 2.74  54 2.74   8 2.74  11 2.74  78 2.74  68 2.77  26 2.77
                            65 2.77  48 2.81   5 2.81  24 2.82
  50  0.367  0.453  0.436-  28 2.74  39 2.74  40 2.74  38 2.74  37 2.74  36 2.74  15 2.81  57 2.81
                            41 2.82
  51  0.452  0.536  0.227-  80 2.74  67 2.74  76 2.74  79 2.74  68 2.74  66 2.74  60 2.76  41 2.77
                            61 2.77  14 2.77  22 2.77  57 2.77
  52  0.617  0.703  0.436-  35 2.74  37 2.74  38 2.74  34 2.74  30 2.74  31 2.74  14 2.81  73 2.81
                            56 2.82
  53  0.369  0.202  0.124-  46 2.74  54 2.74   7 2.74  61 2.74   8 2.74  19 2.74  69 2.76  80 2.77
                            62 2.77  18 2.81  16 2.81  44 2.82
  54  0.119  0.202  0.123-   8 2.74  49 2.74  53 2.74  11 2.74  46 2.74  45 2.74  26 2.76  62 2.77
                            77 2.77  10 2.81  48 2.81  16 2.82
  55  0.952  0.786  0.227-  12 2.74  76 2.74  68 2.74  65 2.74  20 2.74  71 2.74   2 2.77  78 2.77
                             3 2.77  21 2.77   1 2.77  70 2.77
  56  0.785  0.619  0.330-  14 2.74  73 2.74  63 2.74   3 2.74   1 2.74   9 2.74  67 2.77  20 2.77
                            12 2.77  35 2.81  30 2.81  52 2.82
  57  0.285  0.619  0.330-   2 2.74  41 2.74  23 2.74  14 2.74   3 2.74  15 2.74  68 2.77  76 2.77
                            51 2.77  37 2.81  50 2.81  39 2.81
  58  0.787  0.618  0.018-   4 2.74  75 2.74  64 2.74  17 2.74   6 2.74  10 2.74  21 2.81  45 2.81
                            25 2.82
  59  0.287  0.618  0.018-  18 2.74  17 2.74   6 2.74  24 2.74  42 2.74   5 2.75  61 2.81  60 2.81
                            70 2.82
  60  0.369  0.702  0.123-  70 2.74  61 2.74  49 2.74   8 2.74  22 2.74  25 2.74  51 2.76  66 2.77
                            68 2.77  24 2.81  59 2.81  17 2.82
  61  0.369  0.452  0.123-  60 2.74  22 2.74   7 2.74  53 2.74  70 2.74  46 2.74  80 2.77  51 2.77
                            76 2.77  59 2.81  18 2.81  42 2.82
  62  0.202  0.286  0.227-  12 2.74  77 2.74  76 2.74  26 2.74  80 2.74  69 2.74  46 2.76  13 2.77
                            15 2.77  54 2.77   9 2.77  53 2.77
  63  0.785  0.369  0.330-  72 2.74  56 2.74  14 2.74  41 2.74   9 2.74  47 2.74  67 2.77  79 2.77
                            77 2.77  32 2.81  30 2.81  38 2.82
  64  0.787  0.368  0.018-  10 2.74  42 2.74  58 2.74  17 2.74  48 2.74  74 2.74  11 2.81  45 2.81
                            22 2.82
  65  0.952  0.036  0.227-  77 2.74  26 2.74  79 2.74  68 2.74  55 2.74  71 2.74  11 2.77   2 2.77
                            47 2.77  78 2.77  72 2.77  49 2.77
  66  0.452  0.786  0.227-  69 2.74  20 2.74  26 2.74  67 2.74  68 2.74  51 2.74   8 2.76  14 2.77
                            60 2.77  73 2.77  23 2.77  25 2.77
  67  0.702  0.536  0.227-  51 2.74  77 2.74  20 2.74  12 2.74  66 2.74  79 2.74  56 2.77  63 2.77
                            25 2.77  22 2.77  45 2.77  14 2.77
  68  0.202  0.786  0.227-  26 2.74  65 2.74  55 2.74  51 2.74  76 2.74  66 2.74  49 2.77  23 2.77
                            70 2.77  57 2.77   2 2.77  60 2.77
  69  0.452  0.036  0.227-  66 2.74  71 2.74  20 2.74  26 2.74  80 2.74  62 2.74  53 2.76  43 2.77
                            73 2.77   8 2.77  13 2.77  19 2.77
  70  0.119  0.702  0.123-  60 2.74  49 2.74  61 2.74  46 2.74  78 2.74  21 2.74  76 2.77  68 2.77
                            55 2.77   6 2.81   5 2.81  59 2.82
  71  0.702  0.036  0.227-  20 2.74  69 2.74  79 2.74  65 2.74  55 2.74  80 2.74   7 2.76   1 2.77
                            72 2.77  19 2.77  78 2.77  43 2.77
  72  0.785  0.119  0.330-  63 2.74  43 2.74  47 2.74  41 2.74   1 2.74   2 2.74  79 2.77  71 2.77
                            65 2.77  27 2.81  32 2.81  40 2.82
  73  0.535  0.869  0.330-  56 2.74  14 2.74  23 2.74  13 2.74   1 2.74  43 2.74  69 2.77  66 2.77
                            20 2.77  34 2.81  52 2.81  31 2.82
  74  0.787  0.118  0.018-  42 2.74   5 2.74  44 2.74   4 2.74  48 2.74  64 2.74  78 2.81  11 2.81
                             7 2.82
  75  0.537  0.868  0.018-  16 2.74  58 2.74   4 2.74  44 2.74  17 2.74  24 2.74  19 2.81  25 2.81
                             8 2.82
  76  0.202  0.536  0.227-  80 2.74  55 2.74  62 2.74  12 2.74  51 2.74  68 2.74  46 2.77  70 2.77
                            57 2.77  15 2.77  61 2.77   3 2.77
  77  0.952  0.286  0.227-  65 2.74  26 2.74  79 2.74  62 2.74  67 2.74  12 2.74  45 2.77  47 2.77
                             9 2.77  11 2.77  63 2.77  54 2.77
  78  0.869  0.952  0.123-   7 2.74  19 2.74  21 2.74  11 2.74  70 2.74  49 2.74  55 2.77  65 2.77
                            71 2.77  74 2.81   4 2.81   5 2.82
  79  0.702  0.286  0.227-  77 2.74  65 2.74  71 2.74  80 2.74  51 2.74  67 2.74  22 2.76  72 2.77
                             7 2.77  63 2.77  11 2.77  41 2.77
  80  0.452  0.286  0.227-  76 2.74  51 2.74  79 2.74  69 2.74  71 2.74  62 2.74  43 2.76  41 2.77
                            61 2.77  53 2.77  15 2.77   7 2.77
 
  LATTYP: Found a hexagonal cell.
 ALAT       =    10.9600000166
 C/A-ratio  =     2.0072992670
  
  Lattice vectors:
  
 A1 = (   5.4799999760,  -9.4916384585,   0.0000000000)
 A2 = ( -10.9600000060,   0.0000000000,   0.0000000000)
 A3 = (   0.0000000000,   0.0000000000, -22.0000000000)


Analysis of symmetry for initial positions (statically):
=====================================================================
 Subroutine PRICEL returns:
 Original cell was already a primitive cell.
 

 Routine SETGRP: Setting up the symmetry group for a 
 hexagonal supercell.


 Subroutine GETGRP returns: Found  1 space group operations
 (whereof  1 operations were pure point group operations)
 out of a pool of 24 trial point group operations.


The static configuration has the point symmetry C_1 .


Analysis of symmetry for dynamics (positions and initial velocities):
=====================================================================
 Subroutine PRICEL returns:
 Original cell was already a primitive cell.
 

 Routine SETGRP: Setting up the symmetry group for a 
 hexagonal supercell.


 Subroutine GETGRP returns: Found  1 space group operations
 (whereof  1 operations were pure point group operations)
 out of a pool of 24 trial point group operations.


The dynamic configuration has the point symmetry C_1 .


Analysis of structural, dynamic, and magnetic symmetry:
=====================================================================
 Subroutine PRICEL returns:
 Original cell was already a primitive cell.
 

 Routine SETGRP: Setting up the symmetry group for a 
 hexagonal supercell.


 Subroutine GETGRP returns: Found  1 space group operations
 (whereof  1 operations were pure point group operations)
 out of a pool of 24 trial point group operations.


The magnetic configuration has the point symmetry C_1 .


 Subroutine INISYM returns: Found  1 space group operations
 (whereof  1 operations are pure point group operations),
 and found     1 'primitive' translations

 
 
 KPOINTS: mesh auto                               

Automatic generation of k-mesh.
Space group operators:
 irot       det(A)        alpha          n_x          n_y          n_z        tau_x        tau_y        tau_z
    1     1.000000     0.000000     1.000000     0.000000     0.000000     0.000000     0.000000     0.000000
 
 Subroutine IBZKPT returns following result:
 ===========================================
 
 Found      4 irreducible k-points:
 
 Following reciprocal coordinates:
            Coordinates               Weight
  0.000000  0.000000  0.000000      1.000000
  0.500000  0.000000  0.000000      1.000000
  0.000000  0.500000  0.000000      1.000000
  0.500000  0.500000  0.000000      1.000000
 
 Following cartesian coordinates:
            Coordinates               Weight
  0.000000  0.000000  0.000000      1.000000
  0.045620 -0.026339  0.000000      1.000000
  0.000000  0.052678  0.000000      1.000000
  0.045620  0.026339  0.000000      1.000000
 


--------------------------------------------------------------------------------------------------------




 Dimension of arrays:
   k-points           NKPTS =      4   k-points in BZ     NKDIM =      4   number of bands    NBANDS=    520
   number of dos      NEDOS =    301   number of ions     NIONS =     80
   non local maximal  LDIM  =      6   non local SUM 2l+1 LMDIM =     18
   total plane-waves  NPLWV = ******
   max r-space proj   IRMAX =   7247   max aug-charges    IRDMAX=  31567
   dimension x,y,z NGX =    84 NGY =   84 NGZ =  168
   dimension x,y,z NGXF=   168 NGYF=  168 NGZF=  336
   support grid    NGXF=   168 NGYF=  168 NGZF=  336
   ions per type =              80
   NGX,Y,Z   is equivalent  to a cutoff of  12.74, 12.74, 12.70 a.u.
   NGXF,Y,Z  is equivalent  to a cutoff of  25.48, 25.48, 25.39 a.u.

 SYSTEM =  Pt111                                   
 POSCAR =  Pt111                                   

 Startparameter for this run:
   NWRITE =      2    write-flag & timer
   PREC   = accura    normal or accurate (medium, high low for compatibility)
   ISTART =      0    job   : 0-new  1-cont  2-samecut
   ICHARG =      2    charge: 1-file 2-atom 10-const
   ISPIN  =      2    spin polarized calculation?
   LNONCOLLINEAR =      F non collinear calculations
   LSORBIT =      F    spin-orbit coupling
   INIWAV =      1    electr: 0-lowe 1-rand  2-diag
   LASPH  =      F    aspherical Exc in radial PAW
   METAGGA=      F    non-selfconsistent MetaGGA calc.

 Electronic Relaxation 1
   ENCUT  =  550.0 eV  40.42 Ry    6.36 a.u.  20.96 20.96 42.07*2*pi/ulx,y,z
   ENINI  =  550.0     initial cutoff
   ENAUG  =  359.0 eV  augmentation charge cutoff
   NELM   =    200;   NELMIN=  2; NELMDL= -5     # of ELM steps 
   EDIFF  = 0.1E-04   stopping-criterion for ELM
   LREAL  =      T    real-space projection
   NLSPLINE    = F    spline interpolate recip. space projectors
   LCOMPAT=      F    compatible to vasp.4.4
   GGA_COMPAT  = T    GGA compatible to vasp.4.4-vasp.4.6
   LMAXPAW     = -100 max onsite density
   LMAXMIX     =    2 max onsite mixed and CHGCAR
   VOSKOWN=      0    Vosko Wilk Nusair interpolation
   ROPT   =   -0.00025
 Ionic relaxation
   EDIFFG = -.5E-01   stopping-criterion for IOM
   NSW    =    300    number of steps for IOM
   NBLOCK =      1;   KBLOCK =    300    inner block; outer block 
   IBRION =      2    ionic relax: 0-MD 1-quasi-New 2-CG
   NFREE  =      1    steps in history (QN), initial steepest desc. (CG)
   ISIF   =      2    stress and relaxation
   IWAVPR =     11    prediction:  0-non 1-charg 2-wave 3-comb
   ISYM   =      2    0-nonsym 1-usesym 2-fastsym
   LCORR  =      T    Harris-Foulkes like correction to forces

   POTIM  = 0.5000    time-step for ionic-motion
   TEIN   =    0.0    initial temperature
   TEBEG  =    0.0;   TEEND  =   0.0 temperature during run
   SMASS  =  -3.00    Nose mass-parameter (am)
   estimated Nose-frequenzy (Omega)   =  0.10E-29 period in steps =****** mass=  -0.275E-26a.u.
   SCALEE = 1.0000    scale energy and forces
   NPACO  =    256;   APACO  = 16.0  distance and # of slots for P.C.
   PSTRESS=    0.0 pullay stress

  Mass of Ions in am
   POMASS = 195.08
  Ionic Valenz
   ZVAL   =  10.00
  Atomic Wigner-Seitz radii
   RWIGS  =  -1.00
  virtual crystal weights 
   VCA    =   1.00
   NELECT =     800.0000    total number of electrons
   NUPDOWN=      -1.0000    fix difference up-down

 DOS related values:
   EMIN   =  10.00;   EMAX   =-10.00  energy-range for DOS
   EFERMI =   0.00
   ISMEAR =     1;   SIGMA  =   0.10  broadening in eV -4-tet -1-fermi 0-gaus

 Electronic relaxation 2 (details)
   IALGO  =     68    algorithm
   LDIAG  =      T    sub-space diagonalisation (order eigenvalues)
   LSUBROT=      F    optimize rotation matrix (better conditioning)
   TURBO    =      0    0=normal 1=particle mesh
   IRESTART =      0    0=no restart 2=restart with 2 vectors
   NREBOOT  =      0    no. of reboots
   NMIN     =      0    reboot dimension
   EREF     =   0.00    reference energy to select bands
   IMIX   =      4    mixing-type and parameters
     AMIX     =   0.40;   BMIX     =  1.00
     AMIX_MAG =   1.60;   BMIX_MAG =  1.00
     AMIN     =   0.10
     WC   =   100.;   INIMIX=   1;  MIXPRE=   1;  MAXMIX= -45

 Intra band minimization:
   WEIMIN = 0.0010     energy-eigenvalue tresh-hold
   EBREAK =  0.48E-08  absolut break condition
   DEPER  =   0.30     relativ break condition  

   TIME   =   0.40     timestep for ELM

  volume/ion in A,a.u.               =      28.61       193.05
  Fermi-wavevector in a.u.,A,eV,Ry     =   1.153223  2.179276 18.094710  1.329924
  Thomas-Fermi vector in A             =   2.289869
 
 Write flags
   LWAVE        =      F    write WAVECAR
   LDOWNSAMPLE  =      F    k-point downsampling of WAVECAR
   LCHARG       =      F    write CHGCAR
   LVTOT        =      F    write LOCPOT, total local potential
   LVHAR        =      F    write LOCPOT, Hartree potential only
   LELF         =      F    write electronic localiz. function (ELF)
   LORBIT       =      0    0 simple, 1 ext, 2 COOP (PROOUT), +10 PAW based schemes


 Dipole corrections
   LMONO  =      F    monopole corrections only (constant potential shift)
   LDIPOL =      F    correct potential (dipole corrections)
   IDIPOL =      0    1-x, 2-y, 3-z, 4-all directions 
   EPSILON=  1.0000000 bulk dielectric constant

 Exchange correlation treatment:
   GGA     =    --    GGA type
   LEXCH   =     8    internal setting for exchange type
   VOSKOWN=      0    Vosko Wilk Nusair interpolation
   LHFCALC =     F    Hartree Fock is set to
   LHFONE  =     F    Hartree Fock one center treatment
   AEXX    =    0.0000 exact exchange contribution

 Linear response parameters
   LEPSILON=     F    determine dielectric tensor
   LRPA    =     F    only Hartree local field effects (RPA)
   LNABLA  =     F    use nabla operator in PAW spheres
   LVEL    =     F    velocity operator in full k-point grid
   LINTERFAST=   F  fast interpolation
   KINTER  =     0    interpolate to denser k-point grid
   CSHIFT  =0.1000    complex shift for real part using Kramers Kronig
   OMEGAMAX=  -1.0    maximum frequency
   DEG_THRESHOLD= 0.2000000E-02 threshold for treating states as degnerate
   RTIME   =   -0.100 relaxation time in fs
  (WPLASMAI=    0.000 imaginary part of plasma frequency in eV, 0.658/RTIME)
   DFIELD  = 0.0000000 0.0000000 0.0000000 field for delta impulse in time
 
 Orbital magnetization related:
   ORBITALMAG=     F  switch on orbital magnetization
   LCHIMAG   =     F  perturbation theory with respect to B field
   DQ        =  0.001000  dq finite difference perturbation B field
   LLRAUG    =     F  two centre corrections for induced B field



--------------------------------------------------------------------------------------------------------


 conjugate gradient relaxation of ions
 charge density and potential will be updated during run
 spin polarized calculation
 RMM-DIIS sequential band-by-band and
  variant of blocked Davidson during initial phase
 perform sub-space diagonalisation
    before iterative eigenvector-optimisation
 modified Broyden-mixing scheme, WC =      100.0
 initial mixing is a Kerker type mixing with AMIX =  0.4000 and BMIX =      1.0000
 Hartree-type preconditioning will be used
 using additional bands          120
 real space projection scheme for non local part
 use partial core corrections
 calculate Harris-corrections to forces 
   (improved forces if not selfconsistent)
 use gradient corrections 
 use of overlap-Matrix (Vanderbilt PP)
 Methfessel and Paxton  Order N= 1 SIGMA  =   0.10


--------------------------------------------------------------------------------------------------------


  energy-cutoff  :      550.00
  volume of cell :     2288.62
      direct lattice vectors                 reciprocal lattice vectors
    10.960000006  0.000000000  0.000000000     0.091240876 -0.052677944  0.000000000
     5.480000030  9.491638459  0.000000000     0.000000000  0.105355888  0.000000000
     0.000000000  0.000000000 22.000000000     0.000000000  0.000000000  0.045454545

  length of vectors
    10.960000006 10.960000044 22.000000000     0.105355889  0.105355888  0.045454545


 
 k-points in units of 2pi/SCALE and weight: mesh auto                               
   0.00000000  0.00000000  0.00000000       0.250
   0.04562044 -0.02633897  0.00000000       0.250
   0.00000000  0.05267794  0.00000000       0.250
   0.04562044  0.02633897  0.00000000       0.250
 
 k-points in reciprocal lattice and weights: mesh auto                               
   0.00000000  0.00000000  0.00000000       0.250
   0.50000000  0.00000000  0.00000000       0.250
   0.00000000  0.50000000  0.00000000       0.250
   0.50000000  0.50000000  0.00000000       0.250
 
 position of ions in fractional coordinates (direct lattice) 
   0.78467206  0.86934073  0.32987460
   0.03474537  0.86917751  0.32991019
   0.03453725  0.61935992  0.33000996
   0.78712625  0.86765186  0.01757050
   0.03656860  0.86828275  0.01768104
   0.03711578  0.61779823  0.01780441
   0.61937703  0.20173626  0.12337051
   0.36932558  0.95178754  0.12339779
   0.03463743  0.36931352  0.32999598
   0.03681824  0.36766148  0.01784212
   0.86932555  0.20182459  0.12331703
   0.95197632  0.53565603  0.22670109
   0.28464553  0.11935486  0.32996815
   0.53457227  0.61943936  0.32992842
   0.28461171  0.36929502  0.33006836
   0.28721285  0.11769600  0.01776764
   0.53673156  0.61793039  0.01772424
   0.28671580  0.36806524  0.01784719
   0.61934139  0.95176790  0.12332604
   0.70194200  0.78567268  0.22659554
   0.86925911  0.70183525  0.12341632
   0.61938527  0.45180406  0.12339238
   0.28467164  0.86933408  0.32996133
   0.28696344  0.86767941  0.01772950
   0.61931520  0.70181950  0.12333580
   0.20190411  0.03569016  0.22666009
   0.86762968  0.95292260  0.43551106
   0.11748429  0.45308759  0.43587606
   0.11717672  0.95278574  0.43565126
   0.86771628  0.45268864  0.43565215
   0.36695587  0.95310391  0.43571880
   0.86734215  0.20315227  0.43566294
   0.11744718  0.20304533  0.43570827
   0.61751850  0.95299729  0.43556620
   0.86697613  0.70295312  0.43564040
   0.36752904  0.20261424  0.43575889
   0.36763905  0.70297956  0.43570725
   0.61728754  0.45285021  0.43561963
   0.11742065  0.70270915  0.43572719
   0.61726840  0.20308665  0.43555435
   0.53446335  0.36943945  0.32992523
   0.53736055  0.36754416  0.01770149
   0.53462124  0.11942714  0.32990187
   0.53685025  0.11798701  0.01763958
   0.86928508  0.45187049  0.12348232
   0.11934801  0.45178846  0.12355861
   0.03464839  0.11933441  0.32997306
   0.03704964  0.11771626  0.01763222
   0.11933606  0.95179737  0.12344715
   0.36713544  0.45305171  0.43583415
   0.45197384  0.53563817  0.22668797
   0.61739998  0.70289362  0.43563174
   0.36930342  0.20185650  0.12350703
   0.11939157  0.20170824  0.12345346
   0.95199537  0.78561479  0.22668309
   0.78452700  0.61935030  0.32989908
   0.28459763  0.61939374  0.33003892
   0.78683119  0.61803579  0.01767071
   0.28697629  0.61776354  0.01777784
   0.36922066  0.70181489  0.12348052
   0.36941860  0.45183514  0.12346855
   0.20184643  0.28572288  0.22674578
   0.78451867  0.36938140  0.32991482
   0.78700048  0.36805132  0.01760750
   0.95195442  0.03565897  0.22665263
   0.45198954  0.78574079  0.22664902
   0.70195658  0.53565202  0.22664367
   0.20197668  0.78567519  0.22670810
   0.45194577  0.03564474  0.22668205
   0.11933917  0.70187797  0.12345593
   0.70193899  0.03562413  0.22660680
   0.78457225  0.11946964  0.32985257
   0.53465046  0.86936033  0.32997022
   0.78685379  0.11787722  0.01751774
   0.53707225  0.86795273  0.01756385
   0.20196384  0.53564606  0.22672742
   0.95192950  0.28560594  0.22669704
   0.86917343  0.95188563  0.12338506
   0.70196229  0.28560392  0.22660255
   0.45192178  0.28567942  0.22672199
 
 position of ions in cartesian coordinates  (Angst):
  13.36399306  8.25146791  7.25724121
   5.14390204  8.24991868  7.25802426
   3.77262066  5.87874045  7.26021919
  13.38163597  8.23543777  0.38655104
   5.15898138  8.24142595  0.38898290
   3.79232328  5.86391745  0.39169709
   7.89388690  1.91480761  2.71415123
   9.26360412  9.03402321  2.71475133
   2.40346428  3.50539039  7.25991156
   2.41831281  3.48970981  0.39252655
  10.63380686  1.91564607  2.71297456
  13.36905548  5.08425336  4.98742408
   3.77377967  1.13287319  7.25929937
   9.25343973  5.87949443  7.25842527
   5.14308101  3.50521479  7.26150390
   3.79282696  1.11712786  0.39088799
   9.26883648  5.86517187  0.38993338
   5.15940268  3.49354222  0.39263811
  12.00366976  9.03383680  2.71317294
  11.99877060  7.45732101  4.98510195
  13.37313708  6.66156643  2.71515902
   9.26434884  4.28836077  2.71463240
   7.88395194  8.25140476  7.25914918
   7.90000245  8.23569922  0.39004907
  10.63366554  6.66141700  2.71338753
   2.40845107  0.33875809  4.98652203
  14.73123721  9.04479680  9.58124333
   3.77054784  4.30054355  9.58927323
   6.50552268  9.04349774  9.58432782
  11.99090416  4.29675686  9.58434724
   9.24484573  9.04651768  9.58581364
  10.61934441  1.92824794  9.58458470
   2.39990950  1.92723291  9.58558197
  11.99042796  9.04550573  9.58245649
  13.35424146  6.67217687  9.58408886
   5.13844438  1.92314113  9.58669558
   7.88165205  6.67242787  9.58555959
   9.24709059  4.29829044  9.58363183
   5.13777645  6.66986119  9.58599828
   7.87817656  1.92762509  9.58219575
   7.88224647  3.50658566  7.25835501
   7.90361365  3.48859632  0.38943288
   6.51390951  1.13355926  7.25784125
   6.53044757  1.11989004  0.38807067
  12.00361474  4.28899128  2.71661101
   3.78385491  4.28821268  2.71828937
   1.03369894  1.13267903  7.25940735
   1.05114913  1.11732018  0.38790892
   6.52377280  9.03411651  2.71583730
   6.50652778  4.30020302  9.58835137
   7.88893050  5.08408384  4.98713538
  10.61856084  6.67161207  9.58389834
   5.15373915  1.91594889  2.71715465
   2.41389275  1.91454169  2.71597607
  14.73903838  7.45677157  4.98702802
  11.99245558  5.87864915  7.25777972
   6.51346780  5.87906147  7.26085623
  12.01050599  5.86617227  0.38875561
   6.53060439  5.86358820  0.39111241
   7.89260402  6.66137321  2.71657152
   6.52488440  4.28865576  2.71630803
   3.77799834  2.71197832  4.98840722
  10.62253474  3.50603467  7.25812596
  10.64244655  3.49341010  0.38736489
  10.62883163  0.33846205  4.98635781
   9.25966488  7.45796746  4.98627848
  10.62881726  5.08421532  4.98616082
   6.51916447  7.45734487  4.98757831
   5.14865878  0.33832701  4.98700505
   5.15424856  6.66197189  2.71603035
   7.88847161  0.33813134  4.98534961
   9.25360547  1.13396260  7.25675663
  10.62386363  8.25165395  7.25934490
   9.26988468  1.11884799  0.38539038
  10.64269286  8.23829351  0.38640475
   5.14886411  5.08415872  4.98800314
  11.99826790  2.71086836  4.98733496
  14.74247409  9.03495421  2.71447143
   9.25861626  2.71084917  4.98525609
   6.51858593  2.71156575  4.98788369
 


--------------------------------------------------------------------------------------------------------


 k-point  1 :   0.0000 0.0000 0.0000  plane waves:   66973
 k-point  2 :   0.5000 0.0000 0.0000  plane waves:   67000
 k-point  3 :   0.0000 0.5000 0.0000  plane waves:   67000
 k-point  4 :   0.5000 0.5000 0.0000  plane waves:   67000

 maximum and minimum number of plane-waves per node :     16772    16723

 maximum number of plane-waves:     67000
 maximum index in each direction: 
   IXMAX=   20   IYMAX=   20   IZMAX=   42
   IXMIN=  -21   IYMIN=  -21   IZMIN=  -42


 real space projection operators:
  total allocation   :      78425.30 KBytes
  max/ min on nodes  :      19609.45      19603.97


 parallel 3D FFT for wavefunctions:
    minimum data exchange during FFTs selected (reduces bandwidth)
 parallel 3D FFT for charge:
    minimum data exchange during FFTs selected (reduces bandwidth)


 total amount of memory used by VASP MPI-rank0   240798. kBytes
=======================================================================

   base      :      30000. kBytes
   nonlr-proj:      33937. kBytes
   fftplans  :      17977. kBytes
   grid      :      44179. kBytes
   one-center:        622. kBytes
   wavefun   :     114083. kBytes
 
     INWAV:  cpu time    0.0000: real time    0.0000
 Broyden mixing: mesh for mixing (old mesh)
   NGX = 41   NGY = 41   NGZ = 85
  (NGX  =168   NGY  =168   NGZ  =336)
  gives a total of 142885 points

 initial charge density was supplied:
 charge density of overlapping atoms calculated
 number of electron     800.0000000 magnetization      80.0000000
 keeping initial charge density in first step


--------------------------------------------------------------------------------------------------------


 Maximum index for non-local projection operator         1763
 Maximum index for augmentation-charges         1988 (set IRDMAX)


--------------------------------------------------------------------------------------------------------


 First call to EWALD:  gamma=   0.134
 Maximum number of real-space cells 4x 4x 2
 Maximum number of reciprocal cells 2x 2x 4

    FEWALD:  cpu time    0.0046: real time    0.0046


--------------------------------------- Iteration      1(   1)  ---------------------------------------


    POTLOK:  cpu time    0.4093: real time    0.4310
    SETDIJ:  cpu time    0.0337: real time    0.0342
     EDDAV:  cpu time   59.8266: real time   60.0094
       DOS:  cpu time    0.0023: real time    0.0024
    --------------------------------------------
      LOOP:  cpu time   60.2719: real time   60.4769

 eigenvalue-minimisations  :  8320
 total energy-change (2. order) : 0.5568975E+04  (-0.3921183E+05)
 number of electron     800.0000000 magnetization      80.0000000
 augmentation part      800.0000000 magnetization      80.0000000

 Free energy of the ion-electron system (eV)
  ---------------------------------------------------
  alpha Z        PSCENC =      2658.24768211
  Ewald energy   TEWEN  =    176568.81260540
  -Hartree energ DENC   =   -240998.01309215
  -exchange      EXHF   =         0.00000000
  -V(xc)+E(xc)   XCENC  =       294.47544512
  PAW double counting   =     55683.70208444   -53421.37691584
  entropy T*S    EENTRO =        -0.00502667
  eigenvalues    EBANDS =      6453.88849858
  atomic energy  EATOM  =     58329.24398462
  Solvation  Ediel_sol  =         0.00000000
  ---------------------------------------------------
  free energy    TOTEN  =      5568.97526562 eV

  energy without entropy =     5568.98029229  energy(sigma->0) =     5568.97694117


--------------------------------------------------------------------------------------------------------




--------------------------------------- Iteration      1(   2)  ---------------------------------------


     EDDAV:  cpu time   65.0298: real time   65.2182
       DOS:  cpu time    0.0021: real time    0.0021
    --------------------------------------------
      LOOP:  cpu time   65.0319: real time   65.2202

 eigenvalue-minimisations  :  9280
 total energy-change (2. order) :-0.5752281E+04  (-0.5284303E+04)
 number of electron     800.0000000 magnetization      80.0000000
 augmentation part      800.0000000 magnetization      80.0000000

 Free energy of the ion-electron system (eV)
  ---------------------------------------------------
  alpha Z        PSCENC =      2658.24768211
  Ewald energy   TEWEN  =    176568.81260540
  -Hartree energ DENC   =   -240998.01309215
  -exchange      EXHF   =         0.00000000
  -V(xc)+E(xc)   XCENC  =       294.47544512
  PAW double counting   =     55683.70208444   -53421.37691584
  entropy T*S    EENTRO =        -0.00042323
  eigenvalues    EBANDS =       701.60254396
  atomic energy  EATOM  =     58329.24398462
  Solvation  Ediel_sol  =         0.00000000
  ---------------------------------------------------
  free energy    TOTEN  =      -183.30608555 eV

  energy without entropy =     -183.30566232  energy(sigma->0) =     -183.30594448


--------------------------------------------------------------------------------------------------------




--------------------------------------- Iteration      1(   3)  ---------------------------------------


     EDDAV:  cpu time   65.7843: real time   65.9765
       DOS:  cpu time    0.0021: real time    0.0021
    --------------------------------------------
      LOOP:  cpu time   65.7864: real time   65.9786

 eigenvalue-minimisations  :  9430
 total energy-change (2. order) :-0.3011761E+03  (-0.2763038E+03)
 number of electron     800.0000000 magnetization      80.0000000
 augmentation part      800.0000000 magnetization      80.0000000

 Free energy of the ion-electron system (eV)
  ---------------------------------------------------
  alpha Z        PSCENC =      2658.24768211
  Ewald energy   TEWEN  =    176568.81260540
  -Hartree energ DENC   =   -240998.01309215
  -exchange      EXHF   =         0.00000000
  -V(xc)+E(xc)   XCENC  =       294.47544512
  PAW double counting   =     55683.70208444   -53421.37691584
  entropy T*S    EENTRO =        -0.01780323
  eigenvalues    EBANDS =       400.44380535
  atomic energy  EATOM  =     58329.24398462
  Solvation  Ediel_sol  =         0.00000000
  ---------------------------------------------------
  free energy    TOTEN  =      -484.48220416 eV

  energy without entropy =     -484.46440093  energy(sigma->0) =     -484.47626975


--------------------------------------------------------------------------------------------------------




--------------------------------------- Iteration      1(   4)  ---------------------------------------


     EDDAV:  cpu time   68.7596: real time   68.9443
       DOS:  cpu time    0.0021: real time    0.0021
    --------------------------------------------
      LOOP:  cpu time   68.7617: real time   68.9464

 eigenvalue-minimisations  :  9960
 total energy-change (2. order) :-0.8576038E+01  (-0.8478857E+01)
 number of electron     800.0000000 magnetization      80.0000000
 augmentation part      800.0000000 magnetization      80.0000000

 Free energy of the ion-electron system (eV)
  ---------------------------------------------------
  alpha Z        PSCENC =      2658.24768211
  Ewald energy   TEWEN  =    176568.81260540
  -Hartree energ DENC   =   -240998.01309215
  -exchange      EXHF   =         0.00000000
  -V(xc)+E(xc)   XCENC  =       294.47544512
  PAW double counting   =     55683.70208444   -53421.37691584
  entropy T*S    EENTRO =        -0.02602489
  eigenvalues    EBANDS =       391.87598912
  atomic energy  EATOM  =     58329.24398462
  Solvation  Ediel_sol  =         0.00000000
  ---------------------------------------------------
  free energy    TOTEN  =      -493.05824206 eV

  energy without entropy =     -493.03221716  energy(sigma->0) =     -493.04956709


--------------------------------------------------------------------------------------------------------




--------------------------------------- Iteration      1(   5)  ---------------------------------------


     EDDAV:  cpu time   68.1240: real time   68.2931
       DOS:  cpu time    0.0022: real time    0.0022
    CHARGE:  cpu time    4.2519: real time    4.2621
    MIXING:  cpu time    0.0099: real time    0.0108
    --------------------------------------------
      LOOP:  cpu time   72.3880: real time   72.5682

 eigenvalue-minimisations  :  9850
 total energy-change (2. order) :-0.2820017E+00  (-0.2813876E+00)
 number of electron     800.0000079 magnetization      75.1147324
 augmentation part      232.6369030 magnetization      53.2951673

 Broyden mixing:
  rms(total) = 0.10964E+02    rms(broyden)= 0.10964E+02
  rms(prec ) = 0.11090E+02
  weight for this iteration     100.00

 Free energy of the ion-electron system (eV)
  ---------------------------------------------------
  alpha Z        PSCENC =      2658.24768211
  Ewald energy   TEWEN  =    176568.81260540
  -Hartree energ DENC   =   -240998.01309215
  -exchange      EXHF   =         0.00000000
  -V(xc)+E(xc)   XCENC  =       294.47544512
  PAW double counting   =     55683.70208444   -53421.37691584
  entropy T*S    EENTRO =        -0.02574031
  eigenvalues    EBANDS =       391.59370280
  atomic energy  EATOM  =     58329.24398462
  Solvation  Ediel_sol  =         0.00000000
  ---------------------------------------------------
  free energy    TOTEN  =      -493.34024379 eV

  energy without entropy =     -493.31450349  energy(sigma->0) =     -493.33166369


--------------------------------------------------------------------------------------------------------




--------------------------------------- Iteration      1(   6)  ---------------------------------------


    POTLOK:  cpu time    0.3954: real time    0.3963
    SETDIJ:  cpu time    0.0397: real time    0.0398
    EDDIAG:  cpu time   10.4235: real time   10.4485
  RMM-DIIS:  cpu time   36.2026: real time   36.2907
    ORTHCH:  cpu time    1.0843: real time    1.0874
       DOS:  cpu time    0.0019: real time    0.0020
    CHARGE:  cpu time    4.2193: real time    4.2318
    MIXING:  cpu time    0.0102: real time    0.0104
    --------------------------------------------
      LOOP:  cpu time   52.3768: real time   52.5070

 eigenvalue-minimisations  :  8347
 total energy-change (2. order) : 0.1250649E+02  (-0.7520343E+01)
 number of electron     800.0000088 magnetization      71.0644037
 augmentation part      245.0501556 magnetization      52.1287754

 Broyden mixing:
  rms(total) = 0.85051E+01    rms(broyden)= 0.85051E+01
  rms(prec ) = 0.93193E+01
  weight for this iteration     100.00

 eigenvalues of (default mixing * dielectric matrix)
  average eigenvalue GAMMA=   0.8166
  0.8166

 Free energy of the ion-electron system (eV)
  ---------------------------------------------------
  alpha Z        PSCENC =      2658.24768211
  Ewald energy   TEWEN  =    176568.81260540
  -Hartree energ DENC   =   -239999.31981278
  -exchange      EXHF   =         0.00000000
  -V(xc)+E(xc)   XCENC  =       275.73499407
  PAW double counting   =     62668.78034514   -60532.67761943
  entropy T*S    EENTRO =        -0.02917525
  eigenvalues    EBANDS =      -449.62675911
  atomic energy  EATOM  =     58329.24398462
  Solvation  Ediel_sol  =         0.00000000
  ---------------------------------------------------
  free energy    TOTEN  =      -480.83375521 eV

  energy without entropy =     -480.80457997  energy(sigma->0) =     -480.82403013


--------------------------------------------------------------------------------------------------------




--------------------------------------- Iteration      1(   7)  ---------------------------------------


    POTLOK:  cpu time    0.3928: real time    0.3940
    SETDIJ:  cpu time    0.0332: real time    0.0333
    EDDIAG:  cpu time   10.4825: real time   10.5130
  RMM-DIIS:  cpu time   35.6728: real time   35.7760
    ORTHCH:  cpu time    1.0865: real time    1.0896
       DOS:  cpu time    0.0020: real time    0.0020
    CHARGE:  cpu time    4.2623: real time    4.2747
    MIXING:  cpu time    0.0097: real time    0.0097
    --------------------------------------------
      LOOP:  cpu time   51.9417: real time   52.0921

 eigenvalue-minimisations  :  8340
 total energy-change (2. order) :-0.1196003E+03  (-0.1440844E+02)
 number of electron     800.0000080 magnetization      63.3735476
 augmentation part      238.9458462 magnetization      51.1558963

 Broyden mixing:
  rms(total) = 0.10383E+02    rms(broyden)= 0.10383E+02
  rms(prec ) = 0.13281E+02
  weight for this iteration     100.00

 eigenvalues of (default mixing * dielectric matrix)
  average eigenvalue GAMMA=   0.8171
  1.3413  0.2929

 Free energy of the ion-electron system (eV)
  ---------------------------------------------------
  alpha Z        PSCENC =      2658.24768211
  Ewald energy   TEWEN  =    176568.81260540
  -Hartree energ DENC   =   -241020.75818694
  -exchange      EXHF   =         0.00000000
  -V(xc)+E(xc)   XCENC  =       269.83688893
  PAW double counting   =     66352.12682939   -64256.75075422
  entropy T*S    EENTRO =         0.02496827
  eigenvalues    EBANDS =       498.78194455
  atomic energy  EATOM  =     58329.24398462
  Solvation  Ediel_sol  =         0.00000000
  ---------------------------------------------------
  free energy    TOTEN  =      -600.43403788 eV

  energy without entropy =     -600.45900615  energy(sigma->0) =     -600.44236064


--------------------------------------------------------------------------------------------------------




--------------------------------------- Iteration      1(   8)  ---------------------------------------


    POTLOK:  cpu time    0.3905: real time    0.3916
    SETDIJ:  cpu time    0.0329: real time    0.0330
    EDDIAG:  cpu time   10.3966: real time   10.4267
  RMM-DIIS:  cpu time   36.1486: real time   36.2539
    ORTHCH:  cpu time    1.0799: real time    1.0831
       DOS:  cpu time    0.0020: real time    0.0020
    CHARGE:  cpu time    4.2141: real time    4.2261
    MIXING:  cpu time    0.0106: real time    0.0106
    --------------------------------------------
      LOOP:  cpu time   52.2752: real time   52.4269

 eigenvalue-minimisations  :  8372
 total energy-change (2. order) : 0.1339610E+03  (-0.7053494E+01)
 number of electron     800.0000086 magnetization      59.2977984
 augmentation part      249.2987765 magnetization      47.1085665

 Broyden mixing:
  rms(total) = 0.44403E+01    rms(broyden)= 0.44403E+01
  rms(prec ) = 0.49252E+01
  weight for this iteration     100.00

 eigenvalues of (default mixing * dielectric matrix)
  average eigenvalue GAMMA=   0.9423
  1.9964  0.5790  0.2515

 Free energy of the ion-electron system (eV)
  ---------------------------------------------------
  alpha Z        PSCENC =      2658.24768211
  Ewald energy   TEWEN  =    176568.81260540
  -Hartree energ DENC   =   -240099.24392225
  -exchange      EXHF   =         0.00000000
  -V(xc)+E(xc)   XCENC  =       269.65391023
  PAW double counting   =     71779.85266301   -69757.01842353
  entropy T*S    EENTRO =         0.04529139
  eigenvalues    EBANDS =      -216.06681673
  atomic energy  EATOM  =     58329.24398462
  Solvation  Ediel_sol  =         0.00000000
  ---------------------------------------------------
  free energy    TOTEN  =      -466.47302574 eV

  energy without entropy =     -466.51831713  energy(sigma->0) =     -466.48812287


--------------------------------------------------------------------------------------------------------




--------------------------------------- Iteration      1(   9)  ---------------------------------------


    POTLOK:  cpu time    0.3914: real time    0.3923
    SETDIJ:  cpu time    0.0329: real time    0.0332
    EDDIAG:  cpu time   10.3559: real time   10.3861
  RMM-DIIS:  cpu time   35.8404: real time   35.9446
    ORTHCH:  cpu time    1.0864: real time    1.0914
       DOS:  cpu time    0.0019: real time    0.0019
    CHARGE:  cpu time    4.2096: real time    4.2217
    MIXING:  cpu time    0.0109: real time    0.0109
    --------------------------------------------
      LOOP:  cpu time   51.9294: real time   52.0822

 eigenvalue-minimisations  :  8355
 total energy-change (2. order) : 0.9910141E+01  (-0.5731968E+01)
 number of electron     800.0000083 magnetization      56.0283552
 augmentation part      249.2591664 magnetization      40.0525098

 Broyden mixing:
  rms(total) = 0.42770E+01    rms(broyden)= 0.42770E+01
  rms(prec ) = 0.46192E+01
  weight for this iteration     100.00

 eigenvalues of (default mixing * dielectric matrix)
  average eigenvalue GAMMA=   0.8448
  2.2415  0.5025  0.2395  0.3956

 Free energy of the ion-electron system (eV)
  ---------------------------------------------------
  alpha Z        PSCENC =      2658.24768211
  Ewald energy   TEWEN  =    176568.81260540
  -Hartree energ DENC   =   -240046.23967474
  -exchange      EXHF   =         0.00000000
  -V(xc)+E(xc)   XCENC  =       272.34760094
  PAW double counting   =     72977.30170425   -70961.59175259
  entropy T*S    EENTRO =        -0.02010642
  eigenvalues    EBANDS =      -254.66492782
  atomic energy  EATOM  =     58329.24398462
  Solvation  Ediel_sol  =         0.00000000
  ---------------------------------------------------
  free energy    TOTEN  =      -456.56288424 eV

  energy without entropy =     -456.54277782  energy(sigma->0) =     -456.55618210


--------------------------------------------------------------------------------------------------------




--------------------------------------- Iteration      1(  10)  ---------------------------------------


    POTLOK:  cpu time    0.3924: real time    0.3955
    SETDIJ:  cpu time    0.0361: real time    0.0361
    EDDIAG:  cpu time   10.3665: real time   10.3968
  RMM-DIIS:  cpu time   36.2610: real time   36.3663
    ORTHCH:  cpu time    1.0847: real time    1.0878
       DOS:  cpu time    0.0020: real time    0.0020
    CHARGE:  cpu time    4.1782: real time    4.1904
    MIXING:  cpu time    0.0113: real time    0.0113
    --------------------------------------------
      LOOP:  cpu time   52.3321: real time   52.4862

 eigenvalue-minimisations  :  8373
 total energy-change (2. order) : 0.1918369E+01  (-0.9441629E+00)
 number of electron     800.0000088 magnetization      55.4377079
 augmentation part      248.6058861 magnetization      39.5523239

 Broyden mixing:
  rms(total) = 0.31642E+01    rms(broyden)= 0.31642E+01
  rms(prec ) = 0.51371E+01
  weight for this iteration     100.00

 eigenvalues of (default mixing * dielectric matrix)
  average eigenvalue GAMMA=   0.7315
  2.2371  0.4682  0.4682  0.2420  0.2420

 Free energy of the ion-electron system (eV)
  ---------------------------------------------------
  alpha Z        PSCENC =      2658.24768211
  Ewald energy   TEWEN  =    176568.81260540
  -Hartree energ DENC   =   -240119.63065860
  -exchange      EXHF   =         0.00000000
  -V(xc)+E(xc)   XCENC  =       271.76804975
  PAW double counting   =     73806.91053015   -71795.44948238
  entropy T*S    EENTRO =        -0.15443210
  eigenvalues    EBANDS =      -174.39279454
  atomic energy  EATOM  =     58329.24398462
  Solvation  Ediel_sol  =         0.00000000
  ---------------------------------------------------
  free energy    TOTEN  =      -454.64451557 eV

  energy without entropy =     -454.49008347  energy(sigma->0) =     -454.59303821


--------------------------------------------------------------------------------------------------------




--------------------------------------- Iteration      1(  11)  ---------------------------------------


    POTLOK:  cpu time    0.3916: real time    0.3927
    SETDIJ:  cpu time    0.0333: real time    0.0333
    EDDIAG:  cpu time   10.4032: real time   10.4335
  RMM-DIIS:  cpu time   36.1253: real time   36.2229
    ORTHCH:  cpu time    1.0931: real time    1.0957
       DOS:  cpu time    0.0022: real time    0.0022
    CHARGE:  cpu time    4.2135: real time    4.2235
    MIXING:  cpu time    0.0118: real time    0.0119
    --------------------------------------------
      LOOP:  cpu time   52.2739: real time   52.4156

 eigenvalue-minimisations  :  8383
 total energy-change (2. order) :-0.1146946E+01  (-0.2391298E+00)
 number of electron     800.0000087 magnetization      51.4822593
 augmentation part      248.3970732 magnetization      36.0497411

 Broyden mixing:
  rms(total) = 0.32783E+01    rms(broyden)= 0.32783E+01
  rms(prec ) = 0.53417E+01
  weight for this iteration     100.00

 eigenvalues of (default mixing * dielectric matrix)
  average eigenvalue GAMMA=   0.7174
  2.1778  0.7353  0.7353  0.3477  0.2427  0.0655

 Free energy of the ion-electron system (eV)
  ---------------------------------------------------
  alpha Z        PSCENC =      2658.24768211
  Ewald energy   TEWEN  =    176568.81260540
  -Hartree energ DENC   =   -240139.37028945
  -exchange      EXHF   =         0.00000000
  -V(xc)+E(xc)   XCENC  =       271.67688517
  PAW double counting   =     73824.61948052   -71812.87033008
  entropy T*S    EENTRO =        -0.17314162
  eigenvalues    EBANDS =      -155.97833828
  atomic energy  EATOM  =     58329.24398462
  Solvation  Ediel_sol  =         0.00000000
  ---------------------------------------------------
  free energy    TOTEN  =      -455.79146160 eV

  energy without entropy =     -455.61831998  energy(sigma->0) =     -455.73374773


--------------------------------------------------------------------------------------------------------




--------------------------------------- Iteration      1(  12)  ---------------------------------------


    POTLOK:  cpu time    0.3945: real time    0.3954
    SETDIJ:  cpu time    0.0334: real time    0.0335
    EDDIAG:  cpu time   10.4597: real time   10.4844
  RMM-DIIS:  cpu time   36.2241: real time   36.3098
    ORTHCH:  cpu time    1.2061: real time    1.2090
       DOS:  cpu time    0.0020: real time    0.0020
    CHARGE:  cpu time    4.2472: real time    4.2573
    MIXING:  cpu time    0.0124: real time    0.0124
    --------------------------------------------
      LOOP:  cpu time   52.5794: real time   52.7037

 eigenvalue-minimisations  :  8393
 total energy-change (2. order) : 0.2353346E+01  (-0.2794309E+00)
 number of electron     800.0000083 magnetization      50.1620408
 augmentation part      247.4630638 magnetization      30.6175797

 Broyden mixing:
  rms(total) = 0.18807E+01    rms(broyden)= 0.18807E+01
  rms(prec ) = 0.22025E+01
  weight for this iteration     100.00

 eigenvalues of (default mixing * dielectric matrix)
  average eigenvalue GAMMA=   0.6981
  2.0624  0.9067  0.9067  0.3566  0.3566  0.2325  0.0653

 Free energy of the ion-electron system (eV)
  ---------------------------------------------------
  alpha Z        PSCENC =      2658.24768211
  Ewald energy   TEWEN  =    176568.81260540
  -Hartree energ DENC   =   -240258.06130015
  -exchange      EXHF   =         0.00000000
  -V(xc)+E(xc)   XCENC  =       271.22684830
  PAW double counting   =     73736.50951459   -71721.51777601
  entropy T*S    EENTRO =         0.05048421
  eigenvalues    EBANDS =       -37.95015878
  atomic energy  EATOM  =     58329.24398462
  Solvation  Ediel_sol  =         0.00000000
  ---------------------------------------------------
  free energy    TOTEN  =      -453.43811570 eV

  energy without entropy =     -453.48859991  energy(sigma->0) =     -453.45494377


--------------------------------------------------------------------------------------------------------




--------------------------------------- Iteration      1(  13)  ---------------------------------------


    POTLOK:  cpu time    0.3923: real time    0.3933
    SETDIJ:  cpu time    0.0332: real time    0.0333
    EDDIAG:  cpu time   10.3966: real time   10.4212
  RMM-DIIS:  cpu time   36.3713: real time   36.4572
    ORTHCH:  cpu time    1.0840: real time    1.0865
       DOS:  cpu time    0.0020: real time    0.0020
    CHARGE:  cpu time    4.2445: real time    4.2546
    MIXING:  cpu time    0.0135: real time    0.0136
    --------------------------------------------
      LOOP:  cpu time   52.5375: real time   52.6616

 eigenvalue-minimisations  :  8377
 total energy-change (2. order) :-0.2239978E+01  (-0.2115076E+00)
 number of electron     800.0000085 magnetization      47.6079299
 augmentation part      247.3055231 magnetization      28.8261367

 Broyden mixing:
  rms(total) = 0.12667E+01    rms(broyden)= 0.12667E+01
  rms(prec ) = 0.14849E+01
  weight for this iteration     100.00

 eigenvalues of (default mixing * dielectric matrix)
  average eigenvalue GAMMA=   0.7099
  1.5236  1.3861  1.3861  0.4547  0.2353  0.3141  0.3141  0.0655

 Free energy of the ion-electron system (eV)
  ---------------------------------------------------
  alpha Z        PSCENC =      2658.24768211
  Ewald energy   TEWEN  =    176568.81260540
  -Hartree energ DENC   =   -240258.49152180
  -exchange      EXHF   =         0.00000000
  -V(xc)+E(xc)   XCENC  =       269.69008367
  PAW double counting   =     73566.04852452   -71548.90447984
  entropy T*S    EENTRO =         0.08335337
  eigenvalues    EBANDS =       -40.40832598
  atomic energy  EATOM  =     58329.24398462
  Solvation  Ediel_sol  =         0.00000000
  ---------------------------------------------------
  free energy    TOTEN  =      -455.67809393 eV

  energy without entropy =     -455.76144730  energy(sigma->0) =     -455.70587839


--------------------------------------------------------------------------------------------------------




--------------------------------------- Iteration      1(  14)  ---------------------------------------


    POTLOK:  cpu time    0.3991: real time    0.4000
    SETDIJ:  cpu time    0.0442: real time    0.0443
    EDDIAG:  cpu time   10.4284: real time   10.4560
  RMM-DIIS:  cpu time   36.4303: real time   36.5164
    ORTHCH:  cpu time    1.0843: real time    1.0869
       DOS:  cpu time    0.0020: real time    0.0020
    CHARGE:  cpu time    4.1984: real time    4.2083
    MIXING:  cpu time    0.0121: real time    0.0121
    --------------------------------------------
      LOOP:  cpu time   52.5987: real time   52.7260

 eigenvalue-minimisations  :  8372
 total energy-change (2. order) :-0.3848374E+01  (-0.2656596E+00)
 number of electron     800.0000085 magnetization      45.8449473
 augmentation part      247.4287775 magnetization      28.8168311

 Broyden mixing:
  rms(total) = 0.85956E+00    rms(broyden)= 0.85956E+00
  rms(prec ) = 0.93883E+00
  weight for this iteration     100.00

 eigenvalues of (default mixing * dielectric matrix)
  average eigenvalue GAMMA=   0.7327
  1.8225  1.8225  0.7927  0.7927  0.4139  0.4139  0.2416  0.2291  0.0655

 Free energy of the ion-electron system (eV)
  ---------------------------------------------------
  alpha Z        PSCENC =      2658.24768211
  Ewald energy   TEWEN  =    176568.81260540
  -Hartree energ DENC   =   -240240.99613858
  -exchange      EXHF   =         0.00000000
  -V(xc)+E(xc)   XCENC  =       267.59671683
  PAW double counting   =     73330.77536476   -71311.29394098
  entropy T*S    EENTRO =         0.12411660
  eigenvalues    EBANDS =       -62.03685900
  atomic energy  EATOM  =     58329.24398462
  Solvation  Ediel_sol  =         0.00000000
  ---------------------------------------------------
  free energy    TOTEN  =      -459.52646823 eV

  energy without entropy =     -459.65058483  energy(sigma->0) =     -459.56784043


--------------------------------------------------------------------------------------------------------




--------------------------------------- Iteration      1(  15)  ---------------------------------------


    POTLOK:  cpu time    0.3913: real time    0.3922
    SETDIJ:  cpu time    0.0336: real time    0.0337
    EDDIAG:  cpu time   10.4701: real time   10.4948
  RMM-DIIS:  cpu time   36.2306: real time   36.3162
    ORTHCH:  cpu time    1.0888: real time    1.0914
       DOS:  cpu time    0.0021: real time    0.0021
    CHARGE:  cpu time    4.2174: real time    4.2274
    MIXING:  cpu time    0.0130: real time    0.0130
    --------------------------------------------
      LOOP:  cpu time   52.4470: real time   52.5709

 eigenvalue-minimisations  :  8368
 total energy-change (2. order) :-0.8148228E+00  (-0.2857521E-01)
 number of electron     800.0000085 magnetization      41.7322436
 augmentation part      247.4896622 magnetization      24.6772073

 Broyden mixing:
  rms(total) = 0.57446E+00    rms(broyden)= 0.57446E+00
  rms(prec ) = 0.60780E+00
  weight for this iteration     100.00

 eigenvalues of (default mixing * dielectric matrix)
  average eigenvalue GAMMA=   0.7502
  1.8656  1.8656  0.9515  0.9515  0.5507  0.3897  0.3897  0.2421  0.2304  0.0655

 Free energy of the ion-electron system (eV)
  ---------------------------------------------------
  alpha Z        PSCENC =      2658.24768211
  Ewald energy   TEWEN  =    176568.81260540
  -Hartree energ DENC   =   -240246.36467857
  -exchange      EXHF   =         0.00000000
  -V(xc)+E(xc)   XCENC  =       266.77155093
  PAW double counting   =     73422.32812376   -71403.94084246
  entropy T*S    EENTRO =         0.11078040
  eigenvalues    EBANDS =       -55.55049725
  atomic energy  EATOM  =     58329.24398462
  Solvation  Ediel_sol  =         0.00000000
  ---------------------------------------------------
  free energy    TOTEN  =      -460.34129104 eV

  energy without entropy =     -460.45207144  energy(sigma->0) =     -460.37821784


--------------------------------------------------------------------------------------------------------




--------------------------------------- Iteration      1(  16)  ---------------------------------------


    POTLOK:  cpu time    0.3985: real time    0.3994
    SETDIJ:  cpu time    0.0330: real time    0.0330
    EDDIAG:  cpu time   10.4453: real time   10.4700
  RMM-DIIS:  cpu time   36.2215: real time   36.3070
    ORTHCH:  cpu time    1.0906: real time    1.0932
       DOS:  cpu time    0.0020: real time    0.0020
    CHARGE:  cpu time    4.3123: real time    4.3225
    MIXING:  cpu time    0.0130: real time    0.0131
    --------------------------------------------
      LOOP:  cpu time   52.5162: real time   52.6403

 eigenvalue-minimisations  :  8353
 total energy-change (2. order) :-0.2933057E+01  (-0.1303910E+00)
 number of electron     800.0000085 magnetization      38.5511002
 augmentation part      247.5205923 magnetization      22.2743323

 Broyden mixing:
  rms(total) = 0.43696E+00    rms(broyden)= 0.43696E+00
  rms(prec ) = 0.47559E+00
  weight for this iteration     100.00

 eigenvalues of (default mixing * dielectric matrix)
  average eigenvalue GAMMA=   0.8433
  2.2081  2.2081  1.1469  1.1469  0.6184  0.6184  0.3968  0.3968  0.2409  0.2294
  0.0655

 Free energy of the ion-electron system (eV)
  ---------------------------------------------------
  alpha Z        PSCENC =      2658.24768211
  Ewald energy   TEWEN  =    176568.81260540
  -Hartree energ DENC   =   -240251.42300131
  -exchange      EXHF   =         0.00000000
  -V(xc)+E(xc)   XCENC  =       264.76289863
  PAW double counting   =     73557.50558586   -71540.01019238
  entropy T*S    EENTRO =         0.11312760
  eigenvalues    EBANDS =       -50.52703899
  atomic energy  EATOM  =     58329.24398462
  Solvation  Ediel_sol  =         0.00000000
  ---------------------------------------------------
  free energy    TOTEN  =      -463.27434844 eV

  energy without entropy =     -463.38747604  energy(sigma->0) =     -463.31205764


--------------------------------------------------------------------------------------------------------




--------------------------------------- Iteration      1(  17)  ---------------------------------------


    POTLOK:  cpu time    0.3852: real time    0.3861
    SETDIJ:  cpu time    0.0327: real time    0.0328
    EDDIAG:  cpu time   10.3732: real time   10.3977
  RMM-DIIS:  cpu time   36.0723: real time   36.1576
    ORTHCH:  cpu time    1.0942: real time    1.0968
       DOS:  cpu time    0.0020: real time    0.0020
    CHARGE:  cpu time    4.2350: real time    4.2450
    MIXING:  cpu time    0.0135: real time    0.0136
    --------------------------------------------
      LOOP:  cpu time   52.2081: real time   52.3316

 eigenvalue-minimisations  :  8347
 total energy-change (2. order) :-0.1933596E+01  (-0.1035279E+00)
 number of electron     800.0000085 magnetization      36.3063249
 augmentation part      247.4720737 magnetization      20.7966478

 Broyden mixing:
  rms(total) = 0.53944E+00    rms(broyden)= 0.53944E+00
  rms(prec ) = 0.61813E+00
  weight for this iteration     100.00

 eigenvalues of (default mixing * dielectric matrix)
  average eigenvalue GAMMA=   0.8768
  3.1972  2.0478  1.1778  1.1778  0.6672  0.6672  0.3932  0.3932  0.0655  0.2287
  0.2415  0.2642

 Free energy of the ion-electron system (eV)
  ---------------------------------------------------
  alpha Z        PSCENC =      2658.24768211
  Ewald energy   TEWEN  =    176568.81260540
  -Hartree energ DENC   =   -240251.39636389
  -exchange      EXHF   =         0.00000000
  -V(xc)+E(xc)   XCENC  =       263.56262078
  PAW double counting   =     73589.91183815   -71572.12584321
  entropy T*S    EENTRO =         0.12030827
  eigenvalues    EBANDS =       -51.58477687
  atomic energy  EATOM  =     58329.24398462
  Solvation  Ediel_sol  =         0.00000000
  ---------------------------------------------------
  free energy    TOTEN  =      -465.20794463 eV

  energy without entropy =     -465.32825290  energy(sigma->0) =     -465.24804739


--------------------------------------------------------------------------------------------------------




--------------------------------------- Iteration      1(  18)  ---------------------------------------


    POTLOK:  cpu time    0.3974: real time    0.3983
    SETDIJ:  cpu time    0.0328: real time    0.0329
    EDDIAG:  cpu time   10.3875: real time   10.4123
  RMM-DIIS:  cpu time   36.2899: real time   36.3757
    ORTHCH:  cpu time    1.0939: real time    1.0965
       DOS:  cpu time    0.0020: real time    0.0020
    CHARGE:  cpu time    4.2258: real time    4.2358
    MIXING:  cpu time    0.0139: real time    0.0140
    --------------------------------------------
      LOOP:  cpu time   52.4433: real time   52.5675

 eigenvalue-minimisations  :  8369
 total energy-change (2. order) :-0.7071806E+00  (-0.4418665E-01)
 number of electron     800.0000085 magnetization      34.5300565
 augmentation part      247.4880090 magnetization      19.3920510

 Broyden mixing:
  rms(total) = 0.40642E+00    rms(broyden)= 0.40642E+00
  rms(prec ) = 0.45967E+00
  weight for this iteration     100.00

 eigenvalues of (default mixing * dielectric matrix)
  average eigenvalue GAMMA=   0.9468
  4.1446  2.0943  1.2292  1.2292  0.7581  0.7581  0.5288  0.4045  0.4045  0.0655
  0.2413  0.2287  0.2218

 Free energy of the ion-electron system (eV)
  ---------------------------------------------------
  alpha Z        PSCENC =      2658.24768211
  Ewald energy   TEWEN  =    176568.81260540
  -Hartree energ DENC   =   -240246.97301706
  -exchange      EXHF   =         0.00000000
  -V(xc)+E(xc)   XCENC  =       262.98779703
  PAW double counting   =     73592.46708637   -71574.32146045
  entropy T*S    EENTRO =         0.11905062
  eigenvalues    EBANDS =       -56.49885390
  atomic energy  EATOM  =     58329.24398462
  Solvation  Ediel_sol  =         0.00000000
  ---------------------------------------------------
  free energy    TOTEN  =      -465.91512525 eV

  energy without entropy =     -466.03417587  energy(sigma->0) =     -465.95480879


--------------------------------------------------------------------------------------------------------




--------------------------------------- Iteration      1(  19)  ---------------------------------------


    POTLOK:  cpu time    0.3981: real time    0.3991
    SETDIJ:  cpu time    0.0329: real time    0.0330
    EDDIAG:  cpu time   10.5051: real time   10.5302
  RMM-DIIS:  cpu time   36.4244: real time   36.5108
    ORTHCH:  cpu time    1.0875: real time    1.0901
       DOS:  cpu time    0.0022: real time    0.0022
    CHARGE:  cpu time    4.2375: real time    4.2475
    MIXING:  cpu time    0.0143: real time    0.0144
    --------------------------------------------
      LOOP:  cpu time   52.7021: real time   52.8273

 eigenvalue-minimisations  :  8364
 total energy-change (2. order) :-0.3749839E+00  (-0.1970313E-01)
 number of electron     800.0000085 magnetization      32.8620798
 augmentation part      247.5178440 magnetization      18.0206840

 Broyden mixing:
  rms(total) = 0.37330E+00    rms(broyden)= 0.37330E+00
  rms(prec ) = 0.42236E+00
  weight for this iteration     100.00

 eigenvalues of (default mixing * dielectric matrix)
  average eigenvalue GAMMA=   0.9815
  4.8506  2.1202  1.3448  1.3448  0.7864  0.7864  0.5519  0.4106  0.4106  0.3806
  0.0655  0.2410  0.2300  0.2175

 Free energy of the ion-electron system (eV)
  ---------------------------------------------------
  alpha Z        PSCENC =      2658.24768211
  Ewald energy   TEWEN  =    176568.81260540
  -Hartree energ DENC   =   -240237.02024421
  -exchange      EXHF   =         0.00000000
  -V(xc)+E(xc)   XCENC  =       262.52925285
  PAW double counting   =     73585.46953335   -71567.07260668
  entropy T*S    EENTRO =         0.10417515
  eigenvalues    EBANDS =       -66.60449174
  atomic energy  EATOM  =     58329.24398462
  Solvation  Ediel_sol  =         0.00000000
  ---------------------------------------------------
  free energy    TOTEN  =      -466.29010914 eV

  energy without entropy =     -466.39428429  energy(sigma->0) =     -466.32483419


--------------------------------------------------------------------------------------------------------




--------------------------------------- Iteration      1(  20)  ---------------------------------------


    POTLOK:  cpu time    0.3980: real time    0.3990
    SETDIJ:  cpu time    0.0328: real time    0.0329
    EDDIAG:  cpu time   10.3859: real time   10.4105
  RMM-DIIS:  cpu time   36.2803: real time   36.3661
    ORTHCH:  cpu time    1.1770: real time    1.1798
       DOS:  cpu time    0.0021: real time    0.0021
    CHARGE:  cpu time    4.2306: real time    4.2406
    MIXING:  cpu time    0.0144: real time    0.0145
    --------------------------------------------
      LOOP:  cpu time   52.5212: real time   52.6453

 eigenvalue-minimisations  :  8367
 total energy-change (2. order) :-0.1907170E-01  (-0.9598713E-02)
 number of electron     800.0000085 magnetization      30.7150086
 augmentation part      247.5529620 magnetization      16.0934055

 Broyden mixing:
  rms(total) = 0.27410E+00    rms(broyden)= 0.27410E+00
  rms(prec ) = 0.30345E+00
  weight for this iteration     100.00

 eigenvalues of (default mixing * dielectric matrix)
  average eigenvalue GAMMA=   1.0752
  6.2349  2.1630  1.5146  1.5146  0.8340  0.8340  0.6078  0.6078  0.3983  0.3983
  0.0655  0.2682  0.2411  0.2295  0.2159

 Free energy of the ion-electron system (eV)
  ---------------------------------------------------
  alpha Z        PSCENC =      2658.24768211
  Ewald energy   TEWEN  =    176568.81260540
  -Hartree energ DENC   =   -240225.60418908
  -exchange      EXHF   =         0.00000000
  -V(xc)+E(xc)   XCENC  =       262.28184421
  PAW double counting   =     73578.37810896   -71559.74020332
  entropy T*S    EENTRO =         0.09517066
  eigenvalues    EBANDS =       -78.02418442
  atomic energy  EATOM  =     58329.24398462
  Solvation  Ediel_sol  =         0.00000000
  ---------------------------------------------------
  free energy    TOTEN  =      -466.30918084 eV

  energy without entropy =     -466.40435151  energy(sigma->0) =     -466.34090440


--------------------------------------------------------------------------------------------------------




--------------------------------------- Iteration      1(  21)  ---------------------------------------


    POTLOK:  cpu time    0.3978: real time    0.3987
    SETDIJ:  cpu time    0.0333: real time    0.0334
    EDDIAG:  cpu time   10.3770: real time   10.4016
  RMM-DIIS:  cpu time   36.2009: real time   36.2865
    ORTHCH:  cpu time    1.0911: real time    1.0936
       DOS:  cpu time    0.0020: real time    0.0020
    CHARGE:  cpu time    4.2325: real time    4.2425
    MIXING:  cpu time    0.0164: real time    0.0165
    --------------------------------------------
      LOOP:  cpu time   52.3511: real time   52.4748

 eigenvalue-minimisations  :  8378
 total energy-change (2. order) :-0.1113683E+00  (-0.6197560E-02)
 number of electron     800.0000085 magnetization      29.8404145
 augmentation part      247.5774448 magnetization      15.5462885

 Broyden mixing:
  rms(total) = 0.15455E+00    rms(broyden)= 0.15455E+00
  rms(prec ) = 0.16488E+00
  weight for this iteration     100.00

 eigenvalues of (default mixing * dielectric matrix)
  average eigenvalue GAMMA=   1.1057
  7.0098  2.2097  1.5867  1.5867  0.8772  0.8772  0.6284  0.6284  0.4754  0.4013
  0.4013  0.0655  0.2583  0.2411  0.2295  0.2151

 Free energy of the ion-electron system (eV)
  ---------------------------------------------------
  alpha Z        PSCENC =      2658.24768211
  Ewald energy   TEWEN  =    176568.81260540
  -Hartree energ DENC   =   -240209.98891793
  -exchange      EXHF   =         0.00000000
  -V(xc)+E(xc)   XCENC  =       261.88296097
  PAW double counting   =     73569.99482617   -71551.01462493
  entropy T*S    EENTRO =         0.08762130
  eigenvalues    EBANDS =       -93.68668692
  atomic energy  EATOM  =     58329.24398462
  Solvation  Ediel_sol  =         0.00000000
  ---------------------------------------------------
  free energy    TOTEN  =      -466.42054919 eV

  energy without entropy =     -466.50817049  energy(sigma->0) =     -466.44975629


--------------------------------------------------------------------------------------------------------




--------------------------------------- Iteration      1(  22)  ---------------------------------------


    POTLOK:  cpu time    0.4189: real time    0.4199
    SETDIJ:  cpu time    0.0429: real time    0.0430
    EDDIAG:  cpu time   10.4626: real time   10.4873
  RMM-DIIS:  cpu time   36.1248: real time   36.2101
    ORTHCH:  cpu time    1.0861: real time    1.0887
       DOS:  cpu time    0.0020: real time    0.0021
    CHARGE:  cpu time    4.2288: real time    4.2388
    MIXING:  cpu time    0.0156: real time    0.0157
    --------------------------------------------
      LOOP:  cpu time   52.3818: real time   52.5055

 eigenvalue-minimisations  :  8383
 total energy-change (2. order) :-0.5077495E-01  (-0.1517730E-02)
 number of electron     800.0000085 magnetization      29.0238741
 augmentation part      247.5815902 magnetization      14.8577634

 Broyden mixing:
  rms(total) = 0.99147E-01    rms(broyden)= 0.99147E-01
  rms(prec ) = 0.10403E+00
  weight for this iteration     100.00

 eigenvalues of (default mixing * dielectric matrix)
[...]

  length of vectors
    10.960000006 10.960000044 22.000000000     0.105355889  0.105355888  0.045454545


 FORCES acting on ions
    electron-ion (+dipol)            ewald-force                    non-local-force                 convergence-correction
 -----------------------------------------------------------------------------------------------
   0.761E-01 -.168E+00 -.134E+04   -.799E-01 0.173E+00 0.134E+04   0.145E-02 0.138E-03 0.561E+00   0.481E-03 -.104E-02 0.444E-02
   0.636E-01 -.444E+00 -.134E+04   -.653E-01 0.443E+00 0.134E+04   0.227E-02 0.173E-01 0.561E+00   0.634E-03 0.305E-03 0.576E-02
   0.468E-01 0.333E+00 -.135E+04   -.510E-01 -.334E+00 0.135E+04   0.107E-01 -.114E-01 0.561E+00   -.725E-03 0.548E-06 0.507E-02
   0.454E-01 -.202E+00 0.265E+04   -.275E-01 0.166E+00 -.265E+04   -.295E-01 0.553E-01 -.923E+00   -.831E-03 0.161E-02 -.319E-02
   -.707E+00 0.161E+01 0.265E+04   0.697E+00 -.156E+01 -.265E+04   0.130E-01 -.587E-01 -.925E+00   -.468E-03 0.521E-03 -.383E-02
   0.279E+00 0.452E+00 0.265E+04   -.251E+00 -.464E+00 -.265E+04   -.483E-01 0.222E-01 -.938E+00   0.518E-03 0.260E-03 -.360E-02
   0.247E+00 -.205E+00 0.135E+04   -.243E+00 0.202E+00 -.135E+04   -.753E-02 0.976E-02 -.554E+00   -.180E-02 -.983E-03 -.992E-03
   -.227E+00 0.890E-01 0.135E+04   0.231E+00 -.935E-01 -.135E+04   0.243E-02 -.445E-02 -.558E+00   0.149E-02 0.113E-02 -.150E-02
   -.537E-01 -.253E+00 -.135E+04   0.539E-01 0.257E+00 0.135E+04   0.496E-02 0.292E-02 0.561E+00   -.221E-02 0.745E-03 0.443E-02
   -.114E+01 -.534E+00 0.265E+04   0.111E+01 0.507E+00 -.265E+04   0.334E-01 0.503E-01 -.937E+00   0.189E-02 -.151E-02 -.332E-02
   -.152E+00 0.347E-01 0.135E+04   0.156E+00 -.362E-01 -.135E+04   -.108E-02 -.368E-02 -.556E+00   -.281E-03 -.716E-03 -.216E-03
   0.117E+00 -.601E-01 -.672E+00   -.115E+00 0.623E-01 0.670E+00   -.491E-02 0.143E-02 0.155E-02   -.560E-03 -.558E-03 0.508E-02
   -.339E-01 0.256E+00 -.135E+04   0.327E-01 -.254E+00 0.134E+04   0.424E-02 -.879E-02 0.560E+00   -.174E-02 -.886E-04 0.318E-02
   0.556E-02 0.226E+00 -.134E+04   -.114E-01 -.220E+00 0.134E+04   0.477E-02 -.145E-01 0.559E+00   0.466E-03 -.963E-03 0.461E-02
   0.542E-01 -.248E+00 -.135E+04   -.595E-01 0.252E+00 0.135E+04   0.619E-02 0.602E-02 0.557E+00   -.189E-03 0.132E-02 0.338E-02
   0.691E+00 -.917E+00 0.265E+04   -.663E+00 0.895E+00 -.265E+04   -.523E-01 0.415E-01 -.938E+00   0.156E-02 -.539E-03 -.250E-02
   0.360E-01 0.611E-01 0.265E+04   -.454E-01 -.656E-01 -.265E+04   0.127E-01 0.945E-02 -.932E+00   -.328E-03 0.152E-02 -.339E-02
   0.111E+00 0.324E+00 0.265E+04   -.116E+00 -.307E+00 -.265E+04   0.443E-02 -.203E-01 -.939E+00   0.945E-04 -.195E-02 -.281E-02
   0.255E+00 -.308E+00 0.135E+04   -.254E+00 0.306E+00 -.135E+04   -.670E-02 0.750E-02 -.558E+00   -.112E-02 0.113E-02 -.174E-02
   0.109E+00 -.154E-01 0.648E+00   -.107E+00 0.178E-01 -.659E+00   -.259E-04 -.213E-02 0.991E-02   -.752E-03 -.101E-03 0.364E-02
   -.488E+00 0.193E+00 0.135E+04   0.493E+00 -.194E+00 -.134E+04   0.967E-02 -.474E-02 -.559E+00   -.475E-03 0.133E-02 -.619E-03
   0.695E-01 -.282E-01 0.135E+04   -.633E-01 0.252E-01 -.135E+04   -.963E-02 0.230E-02 -.558E+00   -.944E-03 0.676E-04 0.462E-03
   -.451E-01 -.194E+00 -.135E+04   0.454E-01 0.200E+00 0.134E+04   0.238E-02 0.566E-03 0.557E+00   -.575E-03 -.820E-03 0.496E-02
   0.507E-01 -.321E+00 0.265E+04   -.492E-01 0.299E+00 -.265E+04   -.658E-02 0.413E-01 -.930E+00   0.115E-02 0.115E-02 -.326E-02
   0.354E+00 -.707E-01 0.135E+04   -.353E+00 0.687E-01 -.135E+04   -.850E-02 0.701E-03 -.550E+00   -.308E-03 0.220E-02 -.199E-03
   -.168E+00 0.911E-01 -.224E+00   0.164E+00 -.844E-01 0.220E+00   0.109E-01 -.956E-02 0.845E-02   0.617E-03 0.392E-03 0.346E-02
   0.103E+01 -.305E+00 -.265E+04   -.101E+01 0.305E+00 0.265E+04   -.417E-01 -.654E-03 0.932E+00   0.179E-02 -.112E-03 0.217E-02
   0.745E+00 0.302E+00 -.265E+04   -.725E+00 -.281E+00 0.265E+04   -.288E-01 -.355E-01 0.917E+00   -.157E-02 0.166E-02 0.198E-02
   -.390E+00 -.369E+00 -.265E+04   0.355E+00 0.359E+00 0.265E+04   0.577E-01 0.170E-01 0.930E+00   -.749E-03 -.112E-03 0.203E-02
   0.943E+00 -.818E+00 -.265E+04   -.920E+00 0.792E+00 0.265E+04   -.324E-01 0.399E-01 0.923E+00   -.104E-02 -.212E-03 0.121E-02
   -.112E+01 0.752E+00 -.265E+04   0.107E+01 -.725E+00 0.265E+04   0.735E-01 -.380E-01 0.928E+00   -.203E-02 -.152E-02 0.224E-02
   0.489E+00 0.704E+00 -.265E+04   -.490E+00 -.680E+00 0.265E+04   -.616E-03 -.409E-01 0.930E+00   0.563E-03 0.710E-03 0.150E-02
   0.532E+00 0.606E+00 -.265E+04   -.522E+00 -.588E+00 0.265E+04   -.107E-01 -.286E-01 0.925E+00   -.293E-02 0.416E-03 0.186E-02
   0.640E-01 0.178E+00 -.265E+04   -.512E-01 -.166E+00 0.265E+04   -.218E-01 -.152E-01 0.937E+00   0.988E-03 -.154E-02 0.240E-02
   -.781E+00 -.548E+00 -.265E+04   0.729E+00 0.553E+00 0.265E+04   0.821E-01 -.461E-02 0.930E+00   0.862E-04 -.120E-02 0.194E-02
   -.628E+00 -.595E-01 -.265E+04   0.616E+00 0.334E-01 0.265E+04   0.203E-01 0.403E-01 0.920E+00   -.270E-03 0.614E-03 0.253E-02
   0.471E+00 0.394E-01 -.265E+04   -.438E+00 -.302E-01 0.265E+04   -.504E-01 -.140E-01 0.925E+00   -.419E-03 -.959E-04 0.168E-02
   -.687E+00 -.155E+00 -.265E+04   0.659E+00 0.146E+00 0.265E+04   0.417E-01 0.149E-01 0.926E+00   0.139E-02 -.478E-04 0.124E-02
   0.118E+00 -.116E+01 -.265E+04   -.130E+00 0.114E+01 0.265E+04   0.172E-01 0.370E-01 0.927E+00   0.406E-03 0.843E-03 0.217E-02
   -.547E+00 0.852E+00 -.265E+04   0.527E+00 -.834E+00 0.265E+04   0.269E-01 -.292E-01 0.933E+00   0.264E-02 0.907E-03 0.213E-02
   -.143E+00 -.190E+00 -.134E+04   0.132E+00 0.199E+00 0.134E+04   0.187E-01 -.455E-02 0.566E+00   0.199E-02 0.113E-02 0.427E-02
   0.131E+01 -.134E+01 0.265E+04   -.127E+01 0.130E+01 -.265E+04   -.676E-01 0.759E-01 -.934E+00   -.159E-02 -.126E-02 -.319E-02
   0.455E-01 0.372E+00 -.134E+04   -.500E-01 -.369E+00 0.134E+04   0.118E-02 -.143E-01 0.564E+00   0.113E-02 0.129E-03 0.299E-02
   0.538E+00 -.471E+00 0.265E+04   -.532E+00 0.474E+00 -.265E+04   -.109E-01 0.203E-02 -.924E+00   -.124E-02 -.769E-03 -.249E-02
   -.171E+00 0.236E+00 0.134E+04   0.170E+00 -.238E+00 -.134E+04   0.316E-02 -.739E-02 -.568E+00   0.542E-03 -.173E-03 0.677E-03
   0.537E-01 -.882E-01 0.134E+04   -.522E-01 0.885E-01 -.134E+04   -.474E-02 0.443E-02 -.570E+00   0.106E-02 -.170E-02 -.500E-03
   0.127E+00 0.178E+00 -.135E+04   -.129E+00 -.177E+00 0.135E+04   0.234E-02 -.676E-02 0.561E+00   -.100E-02 0.859E-03 0.523E-02
   -.606E+00 -.438E+00 0.265E+04   0.615E+00 0.419E+00 -.265E+04   -.161E-01 0.361E-01 -.930E+00   0.102E-02 -.986E-03 -.349E-02
   0.236E+00 -.117E+00 0.135E+04   -.238E+00 0.117E+00 -.134E+04   -.659E-02 0.779E-03 -.565E+00   0.105E-02 0.446E-03 -.118E-02
   -.115E+01 0.579E+00 -.265E+04   0.111E+01 -.563E+00 0.265E+04   0.523E-01 -.278E-01 0.921E+00   0.122E-02 0.186E-02 0.205E-02
   -.917E-01 -.120E+00 -.408E+00   0.879E-01 0.121E+00 0.407E+00   0.485E-02 0.593E-02 -.122E-02   0.657E-03 -.167E-03 0.478E-02
   -.102E+00 -.131E+00 -.265E+04   0.973E-01 0.132E+00 0.265E+04   0.807E-02 0.994E-03 0.932E+00   -.739E-04 -.217E-02 0.147E-02
   -.157E+00 0.198E-01 0.134E+04   0.162E+00 -.203E-01 -.134E+04   0.118E-02 -.706E-02 -.566E+00   -.608E-04 -.110E-02 -.166E-02
   0.493E-01 -.240E+00 0.135E+04   -.518E-01 0.237E+00 -.134E+04   -.383E-02 0.125E-01 -.555E+00   0.214E-02 -.914E-03 -.698E-03
   -.126E-01 -.321E-01 0.505E-01   0.131E-01 0.342E-01 -.521E-01   0.999E-03 -.167E-03 -.134E-01   -.583E-03 0.156E-04 0.423E-02
   -.123E+00 0.141E+00 -.134E+04   0.118E+00 -.137E+00 0.134E+04   0.163E-01 -.563E-02 0.565E+00   -.704E-03 -.160E-02 0.489E-02
   -.769E-01 0.303E+00 -.135E+04   0.721E-01 -.303E+00 0.135E+04   0.612E-02 -.113E-01 0.555E+00   0.963E-03 0.481E-03 0.508E-02
   -.373E+00 0.862E+00 0.265E+04   0.378E+00 -.854E+00 -.265E+04   -.848E-02 -.136E-01 -.928E+00   0.780E-04 0.194E-02 -.355E-02
   0.376E+00 -.529E-01 0.265E+04   -.366E+00 0.378E-01 -.265E+04   -.205E-01 0.305E-01 -.939E+00   -.271E-03 -.120E-03 -.352E-02
   -.400E+00 0.395E-01 0.134E+04   0.400E+00 -.417E-01 -.134E+04   0.176E-01 -.712E-03 -.560E+00   0.788E-03 0.554E-03 -.477E-03
   0.110E+00 0.310E+00 0.134E+04   -.102E+00 -.313E+00 -.134E+04   -.120E-01 -.641E-02 -.559E+00   -.655E-03 -.148E-02 -.638E-03
   -.192E+00 0.253E+00 -.109E+01   0.188E+00 -.248E+00 0.109E+01   0.128E-01 -.150E-01 -.511E-02   -.175E-03 -.237E-03 0.271E-02
   -.652E-01 -.584E-01 -.134E+04   0.590E-01 0.614E-01 0.134E+04   0.141E-01 -.872E-03 0.563E+00   0.409E-03 0.515E-03 0.531E-02
   0.644E-01 -.541E-01 0.265E+04   -.393E-01 0.610E-01 -.265E+04   -.417E-01 -.734E-02 -.927E+00   -.389E-03 -.839E-03 -.374E-02
   0.926E-01 0.346E-01 0.237E+00   -.940E-01 -.294E-01 -.243E+00   0.589E-03 -.507E-02 -.574E-02   0.110E-04 0.845E-03 0.468E-02
   0.662E-01 0.197E+00 0.145E+00   -.635E-01 -.190E+00 -.153E+00   -.470E-02 -.143E-01 0.114E-02   0.454E-03 -.189E-03 0.388E-02
   0.202E+00 -.552E-01 0.232E+00   -.201E+00 0.544E-01 -.237E+00   -.269E-02 0.313E-02 -.289E-02   -.203E-03 0.546E-04 0.589E-02
   -.663E-01 0.173E+00 -.650E+00   0.627E-01 -.170E+00 0.650E+00   0.409E-02 -.954E-02 -.402E-02   0.881E-03 -.179E-03 0.469E-02
   0.143E-02 -.733E-02 -.104E+00   -.340E-02 0.108E-01 0.105E+00   0.412E-02 -.227E-02 -.866E-02   -.172E-03 -.569E-04 0.145E-02
   0.366E+00 -.424E-01 0.135E+04   -.366E+00 0.464E-01 -.134E+04   -.119E-01 -.514E-02 -.558E+00   -.340E-05 -.282E-03 -.103E-02
   0.638E-01 0.105E-01 0.680E+00   -.625E-01 -.976E-02 -.691E+00   0.267E-02 0.129E-02 0.528E-02   -.456E-03 0.307E-03 0.281E-02
   -.153E+00 0.335E+00 -.134E+04   0.150E+00 -.329E+00 0.134E+04   0.714E-02 -.193E-01 0.571E+00   0.161E-02 0.109E-02 0.488E-02
   -.147E-01 -.207E+00 -.135E+04   0.121E-01 0.213E+00 0.135E+04   0.296E-02 0.117E-02 0.558E+00   -.540E-03 -.206E-02 0.350E-02
   -.234E+00 -.269E+00 0.265E+04   0.232E+00 0.260E+00 -.265E+04   0.374E-02 0.181E-01 -.918E+00   -.134E-02 -.127E-02 -.340E-02
   0.986E+00 0.913E-01 0.265E+04   -.955E+00 -.902E-01 -.265E+04   -.527E-01 -.182E-02 -.928E+00   0.152E-03 0.224E-02 -.266E-02
   -.199E+00 -.263E-01 -.109E+01   0.198E+00 0.292E-01 0.109E+01   0.859E-02 0.103E-02 0.553E-02   0.106E-03 -.800E-03 0.391E-02
   0.809E-01 -.249E-01 -.292E+00   -.857E-01 0.225E-01 0.290E+00   0.421E-02 0.470E-02 -.893E-02   0.903E-04 0.297E-03 0.542E-02
   -.364E+00 0.205E+00 0.135E+04   0.365E+00 -.206E+00 -.135E+04   0.135E-01 -.927E-02 -.563E+00   -.142E-02 0.506E-03 -.155E-02
   0.415E-02 -.119E+00 0.873E+00   -.534E-03 0.117E+00 -.884E+00   0.145E-02 0.794E-02 0.376E-02   0.139E-03 0.473E-03 0.501E-02
   0.724E-01 0.272E-01 -.427E+00   -.757E-01 -.243E-01 0.428E+00   0.208E-02 -.246E-02 -.139E-01   -.580E-04 -.925E-04 0.247E-02
 -----------------------------------------------------------------------------------------------
   -.657E-02 -.104E-01 -.103E+00   0.854E-13 -.323E-12 0.672E-11   0.318E-01 0.814E-01 -.577E-01   -.103E-04 0.168E-04 0.103E+00
 
 
 POSITION                                       TOTAL-FORCE (eV/Angst)
 -----------------------------------------------------------------------------------
     13.36399      8.25147      7.25724        -0.001694      0.003204     -0.000569
      5.14390      8.24992      7.25802         0.000954      0.015706      0.000801
      3.77262      5.87874      7.26022         0.005512     -0.013364     -0.001297
     13.38164      8.23544      0.38655        -0.012603      0.020245     -0.002718
      5.15898      8.24143      0.38898         0.000914     -0.016502     -0.001676
      3.79232      5.86392      0.39170        -0.020178      0.009428     -0.010698
      7.89389      1.91481      2.71415        -0.005051      0.004536      0.006703
      9.26360      9.03402      2.71475         0.007053     -0.008101      0.004702
      2.40346      3.50539      7.25991         0.003024      0.006860      0.000317
      2.41831      3.48971      0.39253         0.006707      0.020820     -0.011670
     10.63381      1.91565      2.71297         0.002215     -0.006815      0.006237
     13.36906      5.08425      4.98742        -0.003580      0.001817      0.005139
      3.77378      1.13287      7.25930         0.000839     -0.007162     -0.002722
      9.25344      5.87949      7.25843        -0.000624     -0.010328     -0.005606
      5.14308      3.50521      7.26150         0.000385      0.010802     -0.002982
      3.79283      1.11713      0.39089        -0.022177      0.018453     -0.012023
      9.26884      5.86517      0.38993         0.001972      0.005949     -0.010460
      5.15940      3.49354      0.39264        -0.001783     -0.005069     -0.011226
     12.00367      9.03384      2.71317        -0.006185      0.005280      0.005750
     11.99877      7.45732      4.98510         0.001144     -0.000538      0.003544
     13.37314      6.66157      2.71516         0.013615     -0.005048      0.002845
      9.26435      4.28836      2.71463        -0.004587     -0.001723      0.005177
      7.88395      8.25140      7.25915         0.001579      0.004215     -0.005072
      7.90000      8.23570      0.39005        -0.004730      0.019092     -0.008772
     10.63367      6.66142      2.71339        -0.008293     -0.000030      0.011096
      2.40845      0.33876      4.98652         0.007071     -0.003219      0.009079
     14.73124      9.04480      9.58124        -0.012590     -0.001828      0.009607
      3.77055      4.30054      9.58927        -0.009718     -0.012910     -0.008683
      6.50552      9.04350      9.58433         0.021014      0.005980      0.006959
     11.99090      4.29676      9.58435        -0.010026      0.012664      0.004149
      9.24485      9.04652      9.58581         0.026050     -0.013387      0.003452
     10.61934      1.92825      9.58458        -0.001219     -0.017018      0.001511
      2.39991      1.92723      9.58558        -0.003654     -0.009896      0.006099
     11.99043      9.04551      9.58246        -0.007486     -0.005698      0.009085
     13.35424      6.67218      9.58409         0.029826     -0.002237      0.007599
      5.13844      1.92314      9.58670         0.007685      0.013183      0.001495
      7.88165      6.67243      9.58556        -0.016341     -0.005789      0.005074
      9.24709      4.29829      9.58363         0.014173      0.004334      0.007129
      5.13778      6.66986      9.58600         0.005471      0.011773      0.006422
      7.87818      1.92763      9.58220         0.009440     -0.011245      0.011533
      7.88225      3.50659      7.25836         0.009571      0.003977      0.002174
      7.90361      3.48860      0.38943        -0.025060      0.027231     -0.009942
      6.51391      1.13356      7.25784        -0.002522     -0.011387      0.001496
      6.53045      1.11989      0.38807        -0.006249      0.003675     -0.001667
     12.00361      4.28899      2.71661         0.001899     -0.011316     -0.003488
      3.78385      4.28821      2.71829        -0.002893      0.002016     -0.005270
      1.03370      1.13268      7.25941        -0.000942     -0.005749     -0.001794
      1.05115      1.11732      0.38791        -0.007172      0.014944     -0.002178
      6.52377      9.03412      2.71584        -0.008337      0.000553     -0.001620
      6.50653      4.30020      9.58835         0.016680     -0.010680     -0.002874
      7.88893      5.08408      4.98714         0.001161      0.005230      0.002273
     10.61856      6.67161      9.58390         0.003790     -0.001666      0.008247
      5.15374      1.91595      2.71715         0.006000     -0.009395      0.001485
      2.41389      1.91454      2.71598        -0.004782      0.007596      0.004148
     14.73904      7.45677      4.98703         0.000557      0.001064     -0.009829
     11.99246      5.87865      7.25778         0.010894     -0.005213     -0.000120
      6.51347      5.87906      7.26086         0.002079     -0.012483     -0.008274
     12.01051      5.86617      0.38876        -0.004409     -0.003808     -0.005596
      6.53060      5.86359      0.39111        -0.011023      0.014336     -0.013410
      7.89260      6.66137      2.71657         0.017571     -0.002988      0.004980
      6.52488      4.28866      2.71631        -0.005284     -0.011510      0.005449
      3.77800      2.71198      4.98841         0.008764     -0.011037      0.003790
     10.62253      3.50603      7.25813         0.008488      0.001471      0.000701
     10.64245      3.49341      0.38736        -0.017177     -0.001759      0.000523
     10.62883      0.33846      4.98636        -0.000972      0.000165     -0.005910
      9.25966      7.45797      4.98628        -0.001941     -0.008690     -0.001711
     10.62882      5.08422      4.98616        -0.001966      0.001161     -0.001212
      6.51916      7.45734      4.98758         0.000516     -0.007702      0.000599
      5.14866      0.33833      4.98701         0.001750      0.000123     -0.004905
      5.15425      6.66197      2.71603        -0.012546     -0.001956      0.004765
      7.88847      0.33813      4.98535         0.003595      0.001414     -0.002608
      9.25361      1.13396      7.25676         0.005354     -0.013758      0.005517
     10.62386      8.25165      7.25934        -0.000408      0.004221     -0.006745
      9.26988      1.11885      0.38539        -0.000369      0.006917      0.002693
     10.64269      8.23829      0.38640        -0.021942      0.001222     -0.000363
      5.14886      5.08416      4.98800         0.006845      0.001963      0.011362
     11.99827      2.71087      4.98733        -0.000771      0.001478     -0.005611
     14.74247      9.03495      2.71447         0.013231     -0.010027      0.001251
      9.25862      2.71085      4.98526         0.005263      0.004488     -0.001866
      6.51859      2.71157      4.98788        -0.001369     -0.000554     -0.009789
 -----------------------------------------------------------------------------------
    total drift:                                0.025252      0.070971     -0.058226


--------------------------------------------------------------------------------------------------------



  FREE ENERGIE OF THE ION-ELECTRON SYSTEM (eV)
  ---------------------------------------------------
  free  energy   TOTEN  =      -515.66961504 eV

  energy  without entropy=     -515.74292856  energy(sigma->0) =     -515.69405288
 


--------------------------------------------------------------------------------------------------------


    POTLOK:  cpu time    0.4308: real time    0.4318


--------------------------------------------------------------------------------------------------------




--------------------------------------------------------------------------------------------------------


  
 reached required accuracy - stopping structural energy minimisation
     LOOP+:  cpu time 2160.7688: real time 2166.4291
    4ORBIT:  cpu time    0.0000: real time    0.0000

 total amount of memory used by VASP MPI-rank0   240798. kBytes
=======================================================================

   base      :      30000. kBytes
   nonlr-proj:      33937. kBytes
   fftplans  :      17977. kBytes
   grid      :      44179. kBytes
   one-center:        622. kBytes
   wavefun   :     114083. kBytes
 
  
  
 General timing and accounting informations for this job:
 ========================================================
  
                  Total CPU time used (sec):     2182.545
                            User time (sec):     2179.307
                          System time (sec):        3.238
                         Elapsed time (sec):     2190.185
  
                   Maximum memory used (kb):      645132.
                   Average memory used (kb):           0.
  
                          Minor page faults:       751607
                          Major page faults:            0
                 Voluntary context switches:         4306
