 vasp.5.4.4.18Apr17-6-g9f103f2a35 (build Nov 30 2020 22:55:02) complex          
  
 executed on             LinuxIFC date 2023.08.08  09:36:20
 running on   40 total cores
 distrk:  each k-point on   40 cores,    1 groups
 distr:  one band on NCORES_PER_BAND=   1 cores,   40 groups


--------------------------------------------------------------------------------------------------------


 INCAR:
 POTCAR:    PAW_PBE Pt 04Feb2005                  
 POTCAR:    PAW_PBE H 15Jun2001                   

 ----------------------------------------------------------------------------- 
|                                                                             |
|           W    W    AA    RRRRR   N    N  II  N    N   GGGG   !!!           |
|           W    W   A  A   R    R  NN   N  II  NN   N  G    G  !!!           |
|           W    W  A    A  R    R  N N  N  II  N N  N  G       !!!           |
|           W WW W  AAAAAA  RRRRR   N  N N  II  N  N N  G  GGG   !            |
|           WW  WW  A    A  R   R   N   NN  II  N   NN  G    G                |
|           W    W  A    A  R    R  N    N  II  N    N   GGGG   !!!           |
|                                                                             |
|      For optimal performance we recommend to set                            |
|        NCORE= 4 - approx SQRT( number of cores)                             |
|      NCORE specifies how many cores store one orbital (NPAR=cpu/NCORE).     |
|      This setting can  greatly improve the performance of VASP for DFT.     |
|      The default,   NCORE=1            might be grossly inefficient         |
|      on modern multi-core architectures or massively parallel machines.     |
|      Do your own testing !!!!                                               |
|      Unfortunately you need to use the default for GW and RPA calculations. |
|      (for HF NCORE is supported but not extensively tested yet)             |
|                                                                             |
 ----------------------------------------------------------------------------- 

 POTCAR:    PAW_PBE Pt 04Feb2005                  
   VRHFIN =Pt: s1d9                                                             
   LEXCH  = PE                                                                  
   EATOM  =   729.1176 eV,   53.5886 Ry                                         
                                                                                
   TITEL  = PAW_PBE Pt 04Feb2005                                                
   LULTRA =        F    use ultrasoft PP ?                                      
   IUNSCR =        1    unscreen: 0-lin 1-nonlin 2-no                           
   RPACOR =    2.330    partial core radius                                     
   POMASS =  195.080; ZVAL   =   10.000    mass and valenz                      
   RCORE  =    2.600    outmost cutoff radius                                   
   RWIGS  =    2.750; RWIGS  =    1.455    wigner-seitz radius (au A)           
   ENMAX  =  230.283; ENMIN  =  172.712 eV                                      
   ICORE  =        3    local potential                                         
   LCOR   =        T    correct aug charges                                     
   LPAW   =        T    paw PP                                                  
   EAUG   =  358.966                                                            
   DEXC   =    0.000                                                            
   RMAX   =    2.658    core radius for proj-oper                               
   RAUG   =    1.300    factor for augmentation sphere                          
   RDEP   =    2.761    radius for radial grids                                 
   RDEPT  =    2.203    core radius for aug-charge                              
                                                                                
   Atomic configuration                                                         
   16 entries                                                                   
     n  l   j            E        occ.                                          
     1  0  0.50    -78401.1885   2.0000                                         
     2  0  0.50    -13770.7750   2.0000                                         
     2  1  1.50    -11931.0468   6.0000                                         
     3  0  0.50     -3234.7234   2.0000                                         
     3  1  1.50     -2699.2216   6.0000                                         
     3  2  2.50     -2119.5714  10.0000                                         
     4  0  0.50      -695.1528   2.0000                                         
     4  1  1.50      -519.6034   6.0000                                         
     4  2  2.50      -306.6786  10.0000                                         
     4  3  3.50       -70.1041  14.0000                                         
     5  0  0.50      -101.7747   2.0000                                         
     5  1  1.50       -55.9873   6.0000                                         
     5  2  2.50        -6.1423   9.0000                                         
     6  0  0.50        -5.6573   1.0000                                         
     6  1  1.50        -6.8029   0.0000                                         
     5  3  2.50        -1.3606   0.0000                                         
   Description                                                                  
     l       E           TYP  RCUT    TYP  RCUT                                 
     2     -6.1423404     23  2.500                                             
     2     -7.5029230     23  2.500                                             
     0     -5.6573207     23  2.500                                             
     0      0.7416693     23  2.500                                             
     1     -2.7211652     23  2.600                                             
     1     20.4087390     23  2.600                                             
     3     -1.3605826     23  2.500                                             
  local pseudopotential read in
  partial core-charges read in
  partial kinetic energy density read in
  atomic valenz-charges read in
  non local Contribution for L=           2  read in
    real space projection operators read in
  non local Contribution for L=           2  read in
    real space projection operators read in
  non local Contribution for L=           0  read in
    real space projection operators read in
  non local Contribution for L=           0  read in
    real space projection operators read in
  non local Contribution for L=           1  read in
    real space projection operators read in
  non local Contribution for L=           1  read in
    real space projection operators read in
    PAW grid and wavefunctions read in
 
   number of l-projection  operators is LMAX  =           6
   number of lm-projection operators is LMMAX =          18
 
 POTCAR:    PAW_PBE H 15Jun2001                   
   VRHFIN =H: ultrasoft test                                                    
   LEXCH  = PE                                                                  
   EATOM  =    12.4884 eV,    0.9179 Ry                                         
                                                                                
   TITEL  = PAW_PBE H 15Jun2001                                                 
   LULTRA =        F    use ultrasoft PP ?                                      
   IUNSCR =        0    unscreen: 0-lin 1-nonlin 2-no                           
   RPACOR =    0.000    partial core radius                                     
   POMASS =    1.000; ZVAL   =    1.000    mass and valenz                      
   RCORE  =    1.100    outmost cutoff radius                                   
   RWIGS  =    0.700; RWIGS  =    0.370    wigner-seitz radius (au A)           
   ENMAX  =  250.000; ENMIN  =  200.000 eV                                      
   RCLOC  =    0.701    cutoff for local pot                                    
   LCOR   =        T    correct aug charges                                     
   LPAW   =        T    paw PP                                                  
   EAUG   =  400.000                                                            
   RMAX   =    1.123    core radius for proj-oper                               
   RAUG   =    1.200    factor for augmentation sphere                          
   RDEP   =    1.112    radius for radial grids                                 
   RDEPT  =    0.926    core radius for aug-charge                              
                                                                                
   Atomic configuration                                                         
    2 entries                                                                   
     n  l   j            E        occ.                                          
     1  0  0.50        -6.4927   1.0000                                         
     2  1  0.50        -3.4015   0.0000                                         
   Description                                                                  
     l       E           TYP  RCUT    TYP  RCUT                                 
     0     -6.4927494     23  1.100                                             
     0      6.8029130     23  1.100                                             
     1     -4.0817478     23  1.100                                             
  local pseudopotential read in
  atomic valenz-charges read in
  non local Contribution for L=           0  read in
    real space projection operators read in
  non local Contribution for L=           0  read in
    real space projection operators read in
  non local Contribution for L=           1  read in
    real space projection operators read in
    PAW grid and wavefunctions read in
 
   number of l-projection  operators is LMAX  =           3
   number of lm-projection operators is LMMAX =           5
 
 Optimization of the real space projectors (new method)

 maximal supplied QI-value         = 14.36
 optimisation between [QCUT,QGAM] = [ 11.92, 23.98] = [ 39.79,161.09] Ry 
 Optimized for a Real-space Cutoff    1.49 Angstroem

   l    n(q)    QCUT    max X(q) W(low)/X(q) W(high)/X(q)  e(spline) 
   2     10    11.920    66.195    0.79E-04    0.18E-03    0.24E-06
   2     10    11.920    64.643    0.81E-04    0.19E-03    0.24E-06
   0     11    11.920    95.520    0.28E-04    0.54E-04    0.18E-06
   0     11    11.920    63.403    0.27E-04    0.52E-04    0.17E-06
   1     10    11.920    19.961    0.18E-04    0.11E-03    0.23E-06
   1     10    11.920    13.289    0.25E-04    0.87E-04    0.19E-06
 Optimization of the real space projectors (new method)

 maximal supplied QI-value         = 34.20
 optimisation between [QCUT,QGAM] = [ 11.97, 23.94] = [ 40.13,160.53] Ry 
 Optimized for a Real-space Cutoff    1.18 Angstroem

   l    n(q)    QCUT    max X(q) W(low)/X(q) W(high)/X(q)  e(spline) 
   0      8    11.971    19.460    0.15E-03    0.31E-03    0.25E-06
   0      8    11.971    12.209    0.13E-03    0.29E-03    0.25E-06
   1      8    11.971     4.655    0.22E-03    0.24E-03    0.21E-06
  PAW_PBE Pt 04Feb2005                  :
 energy of atom  1       EATOM= -729.1176
 kinetic energy error for atom=    0.0021 (will be added to EATOM!!)
  PAW_PBE H 15Jun2001                   :
 energy of atom  2       EATOM=  -12.4884
 kinetic energy error for atom=    0.0008 (will be added to EATOM!!)
 
 
 POSCAR: Pt111\(1\1\1)\(2)                       
  positions in cartesian coordinates
  No initial velocities read in
 exchange correlation table for  LEXCH =        8
   RHO(1)=    0.500       N(1)  =     2000
   RHO(2)=  100.500       N(2)  =     4000
 


--------------------------------------------------------------------------------------------------------


 ion  position               nearest neighbor table
   1  1.000  0.000  0.056-   5 2.64   9 2.64  13 2.64  29 2.64  57 2.64  37 2.64  42 2.82  54 2.83
                            14 2.91
   2  0.333  0.169  0.179-  14 2.62  26 2.62   6 2.63  42 2.64  30 2.64  38 2.67  11 2.79   7 2.82
                             9 2.89  21 2.90  13 2.92  15 3.02
   3  0.168  0.334  0.310-  43 2.62  15 2.62  39 2.62   7 2.62  31 2.66  27 2.66   8 2.71   6 2.79
                            48 2.99  12 2.99  14 3.02  10 3.03
   4  0.001  0.001  0.415-   8 2.64  16 2.64  32 2.64  12 2.64  40 2.65  60 2.65   7 2.80  27 2.83
                            63 2.90
   5  1.000  0.250  0.056-   1 2.64  45 2.64  33 2.64   9 2.64  29 2.64  25 2.64  18 2.85  10 2.90
                            14 2.90
   6  0.333  0.417  0.193-  26 2.63  62 2.63  34 2.63  10 2.63  14 2.63   2 2.63  43 2.79   3 2.79
                            15 2.79  49 3.14   9 3.14  45 3.14
   7  0.169  0.087  0.298-  15 2.62   3 2.62  11 2.64  27 2.64  35 2.67  63 2.67  16 2.80   4 2.80
                             2 2.82  14 2.82  42 2.92  12 3.16
   8  1.000  0.250  0.422-   4 2.64  36 2.64  32 2.64  28 2.64  48 2.66  12 2.66   3 2.71  27 2.94
                            31 2.94
   9  0.250  0.250  0.056-  21 2.64  13 2.64   1 2.64  49 2.64  45 2.64   5 2.64  14 2.89   2 2.89
                             6 3.14
  10  0.086  0.417  0.179-  34 2.62  14 2.62   6 2.63  46 2.64  18 2.65  22 2.67  31 2.79  39 2.82
                            45 2.89   5 2.90  33 2.91   3 3.03
  11  0.417  0.085  0.296-  19 2.62   7 2.64  35 2.64  23 2.64  15 2.66  47 2.66   2 2.79  30 2.82
                            16 2.83  38 2.86  20 2.87  24 2.94
  12  0.248  0.246  0.439-  65 1.86   4 2.64  16 2.64   8 2.66  24 2.66  48 2.70  52 2.70  15 2.99
                             3 2.99   7 3.16
  13  0.250  0.000  0.056-  21 2.64   9 2.64  17 2.64   1 2.64  37 2.64  41 2.64  42 2.82  38 2.83
                             2 2.92
  14  0.086  0.169  0.179-   2 2.62  10 2.62   6 2.63  42 2.64  18 2.64  54 2.67  27 2.79   7 2.82
                             9 2.89   5 2.90   1 2.91   3 3.02
  15  0.416  0.334  0.310-  43 2.62   3 2.62  55 2.62   7 2.62  19 2.66  11 2.66  24 2.71   6 2.79
                            52 2.99  12 2.99   2 3.02  26 3.03
  16  0.250  0.001  0.415-  24 2.64   4 2.64  20 2.64  12 2.64  40 2.65  44 2.65   7 2.80  11 2.83
                            35 2.90
  17  0.500  0.000  0.056-  29 2.64  25 2.64  13 2.64  21 2.64  41 2.64  53 2.64  38 2.83  30 2.86
                            58 2.86
  18  0.834  0.167  0.177-  54 2.64  22 2.64  14 2.64  10 2.65  58 2.66  30 2.66  31 2.82  27 2.82
                            23 2.84   5 2.85  29 2.86  25 2.86
  19  0.665  0.333  0.296-  11 2.62  55 2.64  59 2.64  23 2.64  15 2.66  31 2.66  26 2.79  30 2.82
                            64 2.83  22 2.86  28 2.87  24 2.94
  20  0.500  1.000  0.417-  24 2.64  56 2.64  32 2.64  28 2.64  16 2.64  44 2.64  23 2.86  47 2.87
                            11 2.87
  21  0.500  0.250  0.056-  25 2.64  61 2.64   9 2.64  13 2.64  49 2.64  17 2.64  30 2.85  26 2.90
                             2 2.90
  22  0.833  0.416  0.175-  18 2.64  30 2.64  50 2.64  46 2.64  26 2.67  10 2.67  59 2.79  25 2.83
                            61 2.83  33 2.83  19 2.86  31 2.86
  23  0.667  0.083  0.296-  47 2.64  11 2.64  51 2.64  27 2.64  19 2.64  31 2.64  58 2.84  18 2.84
                            30 2.84  20 2.86  28 2.86  32 2.86
  24  0.500  0.250  0.422-  16 2.64  64 2.64  20 2.64  28 2.64  52 2.66  12 2.66  15 2.71  11 2.94
                            19 2.94
  25  0.750  0.250  0.056-  17 2.64  21 2.64  29 2.64  61 2.64  33 2.64   5 2.64  22 2.83  18 2.86
                            30 2.86
  26  0.581  0.417  0.179-  62 2.62   2 2.62   6 2.63  50 2.64  30 2.65  22 2.67  19 2.79  55 2.82
                            49 2.89  21 2.90  61 2.91  15 3.03
  27  0.918  0.085  0.296-  31 2.62   7 2.64  63 2.64  23 2.64   3 2.66  51 2.66  14 2.79  18 2.82
                             4 2.83  54 2.86  32 2.87   8 2.94
  28  0.750  0.250  0.417-  24 2.64   8 2.64  32 2.64  20 2.64  64 2.64  36 2.64  23 2.86  31 2.87
                            19 2.87
  29  0.750  0.000  0.056-  17 2.64  25 2.64   5 2.64  53 2.64   1 2.64  57 2.64  54 2.83  18 2.86
                            58 2.86
  30  0.583  0.167  0.177-  38 2.64  22 2.64   2 2.64  26 2.65  58 2.66  18 2.66  19 2.82  11 2.82
                            23 2.84  21 2.85  17 2.86  25 2.86
  31  0.918  0.333  0.296-  27 2.62  39 2.64  59 2.64  23 2.64   3 2.66  19 2.66  10 2.79  18 2.82
                            36 2.83  22 2.86  28 2.87   8 2.94
  32  0.750  1.000  0.417-  56 2.64   8 2.64  20 2.64  28 2.64  60 2.64   4 2.64  23 2.86  51 2.87
                            27 2.87
  33  1.000  0.500  0.056-  37 2.64  41 2.64   5 2.64  45 2.64  25 2.64  61 2.64  46 2.82  22 2.83
                            10 2.91
  34  0.333  0.664  0.179-  10 2.62  62 2.62   6 2.63  46 2.64  58 2.64  38 2.67  47 2.79  39 2.82
                            45 2.89  53 2.90  41 2.91  43 3.03
  35  0.168  0.834  0.292-  11 2.64  47 2.64  59 2.66  63 2.66  39 2.67   7 2.67  38 2.79  46 2.81
                            42 2.81  40 2.82  16 2.90  44 2.90
  36  0.001  0.500  0.415-   8 2.64  44 2.64  28 2.64  48 2.64  40 2.65  64 2.65  39 2.80  31 2.83
                            59 2.90
  37  1.000  0.750  0.056-  33 2.64  41 2.64  61 2.64  57 2.64  13 2.64   1 2.64  46 2.83  42 2.83
                            50 2.83
  38  0.334  0.917  0.175-  30 2.64  58 2.64  42 2.64  46 2.64   2 2.67  34 2.67  35 2.79  17 2.83
                            41 2.83  13 2.83  11 2.86  47 2.86
  39  0.169  0.581  0.298-   3 2.62  43 2.62  47 2.64  31 2.64  35 2.67  59 2.67  36 2.80  44 2.80
                            34 2.82  10 2.82  46 2.92  48 3.16
  40  0.000  0.750  0.410-   4 2.65  16 2.65  60 2.65  44 2.65  64 2.65  36 2.65  63 2.82  59 2.82
                            35 2.82
  41  0.250  0.750  0.056-  45 2.64  33 2.64  37 2.64  53 2.64  17 2.64  13 2.64  46 2.82  38 2.83
                            34 2.91
  42  0.084  0.918  0.175-   2 2.64  38 2.64  14 2.64  54 2.64  46 2.66  50 2.66  63 2.81  35 2.81
                            13 2.82   1 2.82  37 2.83   7 2.92
  43  0.416  0.582  0.310-  15 2.62   3 2.62  55 2.62  39 2.62  51 2.66  47 2.66  56 2.71   6 2.79
                            48 2.99  52 2.99  62 3.03  34 3.03
  44  0.250  0.749  0.415-  56 2.64  36 2.64  20 2.64  48 2.64  40 2.65  16 2.65  39 2.80  47 2.83
                            35 2.90
  45  0.250  0.500  0.056-  41 2.64  53 2.64   5 2.64   9 2.64  49 2.64  33 2.64  10 2.89  34 2.89
                             6 3.14
  46  0.084  0.666  0.175-  38 2.64  22 2.64  34 2.64  10 2.64  42 2.66  50 2.66  35 2.81  59 2.81
                            41 2.82  33 2.82  37 2.83  39 2.92
  47  0.417  0.832  0.296-  51 2.62  39 2.64  35 2.64  23 2.64  43 2.66  11 2.66  34 2.79  58 2.82
                            44 2.83  38 2.86  20 2.87  56 2.94
  48  0.248  0.502  0.439-  65 1.86  36 2.64  44 2.64   8 2.66  56 2.66  12 2.70  52 2.70  43 2.99
                             3 2.99  39 3.16
  49  0.500  0.500  0.056-  61 2.64  53 2.64  57 2.64  21 2.64   9 2.64  45 2.64  26 2.89  62 2.89
                             6 3.14
  50  0.832  0.666  0.175-  54 2.64  22 2.64  62 2.64  26 2.64  46 2.66  42 2.66  63 2.81  59 2.81
                            61 2.82  57 2.82  37 2.83  55 2.92
  51  0.665  0.832  0.296-  47 2.62  55 2.64  63 2.64  23 2.64  43 2.66  27 2.66  62 2.79  58 2.82
                            60 2.83  54 2.86  32 2.87  56 2.94
  52  0.504  0.502  0.439-  65 1.86  64 2.64  60 2.64  24 2.66  56 2.66  12 2.70  48 2.70  43 2.99
                            15 2.99  55 3.16
  53  0.500  0.750  0.056-  49 2.64  57 2.64  45 2.64  41 2.64  29 2.64  17 2.64  58 2.85  34 2.90
                            62 2.90
  54  0.833  0.917  0.175-  18 2.64  58 2.64  50 2.64  42 2.64  62 2.67  14 2.67  63 2.79  29 2.83
                            57 2.83   1 2.83  27 2.86  51 2.86
  55  0.663  0.581  0.298-  43 2.62  15 2.62  51 2.64  19 2.64  59 2.67  63 2.67  64 2.80  60 2.80
                            26 2.82  62 2.82  50 2.92  52 3.16
  56  0.500  0.750  0.422-  60 2.64  44 2.64  32 2.64  20 2.64  52 2.66  48 2.66  43 2.71  51 2.94
                            47 2.94
  57  0.750  0.750  0.056-  61 2.64  49 2.64  53 2.64  37 2.64   1 2.64  29 2.64  50 2.82  54 2.83
                            62 2.91
  58  0.583  0.916  0.177-  38 2.64  54 2.64  34 2.64  62 2.64  30 2.66  18 2.66  47 2.82  51 2.82
                            23 2.84  53 2.85  17 2.86  29 2.86
  59  0.916  0.582  0.292-  31 2.64  19 2.64  63 2.66  35 2.66  55 2.67  39 2.67  22 2.79  46 2.81
                            50 2.81  40 2.82  64 2.90  36 2.90
  60  0.749  0.749  0.415-  56 2.64  64 2.64  32 2.64  52 2.64  40 2.65   4 2.65  55 2.80  51 2.83
                            63 2.90
  61  0.750  0.500  0.056-  49 2.64  57 2.64  21 2.64  25 2.64  37 2.64  33 2.64  50 2.82  22 2.83
                            26 2.91
  62  0.581  0.664  0.179-  26 2.62  34 2.62   6 2.63  50 2.64  58 2.64  54 2.67  51 2.79  55 2.82
                            49 2.89  53 2.90  57 2.91  43 3.03
  63  0.916  0.834  0.292-  27 2.64  51 2.64  59 2.66  35 2.66   7 2.67  55 2.67  54 2.79  50 2.81
                            42 2.81  40 2.82   4 2.90  60 2.90
  64  0.749  0.500  0.415-  24 2.64  60 2.64  28 2.64  52 2.64  40 2.65  36 2.65  55 2.80  19 2.83
                            59 2.90
  65  0.333  0.417  0.489-  48 1.86  52 1.86  12 1.86
 
  LATTYP: Found a hexagonal cell.
 ALAT       =    10.5600004196
 C/A-ratio  =     1.8939393187
  
  Lattice vectors:
  
 A1 = (  10.5600004196,   0.0000000000,   0.0000000000)
 A2 = (  -5.2800002098,   9.1452286274,   0.0000000000)
 A3 = (   0.0000000000,   0.0000000000,  20.0000000000)


Analysis of symmetry for initial positions (statically):
=====================================================================
 Subroutine PRICEL returns:
 Original cell was already a primitive cell.
 

 Routine SETGRP: Setting up the symmetry group for a 
 hexagonal supercell.


 Subroutine GETGRP returns: Found  1 space group operations
 (whereof  1 operations were pure point group operations)
 out of a pool of 24 trial point group operations.


The static configuration has the point symmetry C_1 .


Analysis of symmetry for dynamics (positions and initial velocities):
=====================================================================
 Subroutine PRICEL returns:
 Original cell was already a primitive cell.
 

 Routine SETGRP: Setting up the symmetry group for a 
 hexagonal supercell.


 Subroutine GETGRP returns: Found  1 space group operations
 (whereof  1 operations were pure point group operations)
 out of a pool of 24 trial point group operations.


The dynamic configuration has the point symmetry C_1 .


Analysis of constrained symmetry for selective dynamics:
=====================================================================
 Subroutine PRICEL returns:
 Original cell was already a primitive cell.
 

 Routine SETGRP: Setting up the symmetry group for a 
 hexagonal supercell.


 Subroutine GETGRP returns: Found  1 space group operations
 (whereof  1 operations were pure point group operations)
 out of a pool of 24 trial point group operations.


The constrained configuration has the point symmetry C_1 .


Analysis of structural, dynamic, and magnetic symmetry:
=====================================================================
 Subroutine PRICEL returns:
 Original cell was already a primitive cell.
 

 Routine SETGRP: Setting up the symmetry group for a 
 hexagonal supercell.


 Subroutine GETGRP returns: Found  1 space group operations
 (whereof  1 operations were pure point group operations)
 out of a pool of 24 trial point group operations.


The magnetic configuration has the point symmetry C_1 .


 Subroutine INISYM returns: Found  1 space group operations
 (whereof  1 operations are pure point group operations),
 and found     1 'primitive' translations

 
 
 KPOINTS: mesh auto                               

Automatic generation of k-mesh.
Space group operators:
 irot       det(A)        alpha          n_x          n_y          n_z        tau_x        tau_y        tau_z
    1     1.000000     0.000000     1.000000     0.000000     0.000000     0.000000     0.000000     0.000000
 
 Subroutine IBZKPT returns following result:
 ===========================================
 
 Found      4 irreducible k-points:
 
 Following reciprocal coordinates:
            Coordinates               Weight
  0.000000  0.000000  0.000000      1.000000
  0.500000 -0.000000  0.000000      1.000000
  0.000000  0.500000  0.000000      1.000000
  0.500000  0.500000  0.000000      1.000000
 
 Following cartesian coordinates:
            Coordinates               Weight
  0.000000  0.000000  0.000000      1.000000
  0.047348  0.027337  0.000000      1.000000
  0.000000  0.054673  0.000000      1.000000
  0.047348  0.082010  0.000000      1.000000
 
 TETIRR: Found     12 inequivalent tetrahedra from       24
 
 Subroutine IBZKPT_HF returns following result:
 ==============================================
 
 Found      4 k-points in 1st BZ
 the following      4 k-points will be used (e.g. in the exchange kernel)
 Following reciprocal coordinates:   # in IRBZ
  0.000000  0.000000  0.000000    0.25000000   1 t-inv F
  0.500000 -0.000000  0.000000    0.25000000   2 t-inv F
  0.000000  0.500000  0.000000    0.25000000   3 t-inv F
  0.500000  0.500000  0.000000    0.25000000   4 t-inv F


--------------------------------------------------------------------------------------------------------




 Dimension of arrays:
   k-points           NKPTS =      4   k-points in BZ     NKDIM =      4   number of bands    NBANDS=    480
   number of dos      NEDOS =    301   number of ions     NIONS =     65
   non local maximal  LDIM  =      6   non local SUM 2l+1 LMDIM =     18
   total plane-waves  NPLWV = ******
   max r-space proj   IRMAX =   8171   max aug-charges    IRDMAX=  35597
   dimension x,y,z NGX =    84 NGY =   84 NGZ =  160
   dimension x,y,z NGXF=   168 NGYF=  168 NGZF=  320
   support grid    NGXF=   168 NGYF=  168 NGZF=  320
   ions per type =              64   1
   NGX,Y,Z   is equivalent  to a cutoff of  13.22, 13.22, 13.30 a.u.
   NGXF,Y,Z  is equivalent  to a cutoff of  26.45, 26.45, 26.60 a.u.

 SYSTEM =  Pt111                                   
 POSCAR =  Pt111\(1\1\1)\(2)                       

 Startparameter for this run:
   NWRITE =      2    write-flag & timer
   PREC   = accura    normal or accurate (medium, high low for compatibility)
   ISTART =      0    job   : 0-new  1-cont  2-samecut
   ICHARG =      2    charge: 1-file 2-atom 10-const
   ISPIN  =      2    spin polarized calculation?
   LNONCOLLINEAR =      F non collinear calculations
   LSORBIT =      F    spin-orbit coupling
   INIWAV =      1    electr: 0-lowe 1-rand  2-diag
   LASPH  =      F    aspherical Exc in radial PAW
   METAGGA=      F    non-selfconsistent MetaGGA calc.

 Electronic Relaxation 1
   ENCUT  =  550.0 eV  40.42 Ry    6.36 a.u.  20.19 20.19 38.24*2*pi/ulx,y,z
   ENINI  =  550.0     initial cutoff
   ENAUG  =  400.0 eV  augmentation charge cutoff
   NELM   =    200;   NELMIN=  2; NELMDL= -5     # of ELM steps 
   EDIFF  = 0.1E-04   stopping-criterion for ELM
   LREAL  =      T    real-space projection
   NLSPLINE    = F    spline interpolate recip. space projectors
   LCOMPAT=      F    compatible to vasp.4.4
   GGA_COMPAT  = T    GGA compatible to vasp.4.4-vasp.4.6
   LMAXPAW     = -100 max onsite density
   LMAXMIX     =    2 max onsite mixed and CHGCAR
   VOSKOWN=      0    Vosko Wilk Nusair interpolation
   ROPT   =   -0.00025  -0.00025
 Ionic relaxation
   EDIFFG = -.5E-01   stopping-criterion for IOM
   NSW    =    817    number of steps for IOM
   NBLOCK =      1;   KBLOCK =    817    inner block; outer block 
   IBRION =      5    ionic relax: 0-MD 1-quasi-New 2-CG
   NFREE  =      2    steps in history (QN), initial steepest desc. (CG)
   ISIF   =      2    stress and relaxation
   IWAVPR =     11    prediction:  0-non 1-charg 2-wave 3-comb
   ISYM   =      2    0-nonsym 1-usesym 2-fastsym
   LCORR  =      T    Harris-Foulkes like correction to forces

   POTIM  = 0.5000    time-step for ionic-motion
   TEIN   =    0.0    initial temperature
   TEBEG  =    0.0;   TEEND  =   0.0 temperature during run
   SMASS  =  -3.00    Nose mass-parameter (am)
   estimated Nose-frequenzy (Omega)   =  0.10E-29 period in steps =****** mass=  -0.255E-26a.u.
   SCALEE = 1.0000    scale energy and forces
   NPACO  =    256;   APACO  = 16.0  distance and # of slots for P.C.
   PSTRESS=    0.0 pullay stress

  Mass of Ions in am
   POMASS = 195.08  1.00
  Ionic Valenz
   ZVAL   =  10.00  1.00
  Atomic Wigner-Seitz radii
   RWIGS  =  -1.00 -1.00
  virtual crystal weights 
   VCA    =   1.00  1.00
   NELECT =     641.0000    total number of electrons
   NUPDOWN=      -1.0000    fix difference up-down

 DOS related values:
   EMIN   =  10.00;   EMAX   =-10.00  energy-range for DOS
   EFERMI =   0.00
   ISMEAR =    -5;   SIGMA  =   0.10  broadening in eV -4-tet -1-fermi 0-gaus

 Electronic relaxation 2 (details)
   IALGO  =     68    algorithm
   LDIAG  =      T    sub-space diagonalisation (order eigenvalues)
   LSUBROT=      F    optimize rotation matrix (better conditioning)
   TURBO    =      0    0=normal 1=particle mesh
   IRESTART =      0    0=no restart 2=restart with 2 vectors
   NREBOOT  =      0    no. of reboots
   NMIN     =      0    reboot dimension
   EREF     =   0.00    reference energy to select bands
   IMIX   =      4    mixing-type and parameters
     AMIX     =   0.40;   BMIX     =  1.00
     AMIX_MAG =   1.60;   BMIX_MAG =  1.00
     AMIN     =   0.10
     WC   =   100.;   INIMIX=   1;  MIXPRE=   1;  MAXMIX= -45

 Intra band minimization:
   WEIMIN = 0.0010     energy-eigenvalue tresh-hold
   EBREAK =  0.52E-08  absolut break condition
   DEPER  =   0.30     relativ break condition  

   TIME   =   0.40     timestep for ELM

  volume/ion in A,a.u.               =      29.71       200.53
  Fermi-wavevector in a.u.,A,eV,Ry     =   1.133439  2.141888 17.479175  1.284683
  Thomas-Fermi vector in A             =   2.270141
 
 Write flags
   LWAVE        =      F    write WAVECAR
   LDOWNSAMPLE  =      F    k-point downsampling of WAVECAR
   LCHARG       =      F    write CHGCAR
   LVTOT        =      F    write LOCPOT, total local potential
   LVHAR        =      F    write LOCPOT, Hartree potential only
   LELF         =      F    write electronic localiz. function (ELF)
   LORBIT       =      0    0 simple, 1 ext, 2 COOP (PROOUT), +10 PAW based schemes


 Dipole corrections
   LMONO  =      F    monopole corrections only (constant potential shift)
   LDIPOL =      F    correct potential (dipole corrections)
   IDIPOL =      0    1-x, 2-y, 3-z, 4-all directions 
   EPSILON=  1.0000000 bulk dielectric constant

 Exchange correlation treatment:
   GGA     =    --    GGA type
   LEXCH   =     8    internal setting for exchange type
   VOSKOWN=      0    Vosko Wilk Nusair interpolation
   LHFCALC =     F    Hartree Fock is set to
   LHFONE  =     F    Hartree Fock one center treatment
   AEXX    =    0.0000 exact exchange contribution

 Linear response parameters
   LEPSILON=     F    determine dielectric tensor
   LRPA    =     F    only Hartree local field effects (RPA)
   LNABLA  =     F    use nabla operator in PAW spheres
   LVEL    =     F    velocity operator in full k-point grid
   LINTERFAST=   F  fast interpolation
   KINTER  =     0    interpolate to denser k-point grid
   CSHIFT  =0.1000    complex shift for real part using Kramers Kronig
   OMEGAMAX=  -1.0    maximum frequency
   DEG_THRESHOLD= 0.2000000E-02 threshold for treating states as degnerate
   RTIME   =   -0.100 relaxation time in fs
  (WPLASMAI=    0.000 imaginary part of plasma frequency in eV, 0.658/RTIME)
   DFIELD  = 0.0000000 0.0000000 0.0000000 field for delta impulse in time
 
 Orbital magnetization related:
   ORBITALMAG=     F  switch on orbital magnetization
   LCHIMAG   =     F  perturbation theory with respect to B field
   DQ        =  0.001000  dq finite difference perturbation B field
   LLRAUG    =     F  two centre corrections for induced B field



--------------------------------------------------------------------------------------------------------


 finite differences
   using selective dynamics as specified on POSCAR
   WARNING: If single coordinates had been selected the selection of coordinates
            is made according to the corresponding   d i r e c t   coordinates!
            Don't support selection of single cartesian coordinates -- sorry ...
  !
 charge density and potential will be updated during run
 spin polarized calculation
 RMM-DIIS sequential band-by-band and
  variant of blocked Davidson during initial phase
 perform sub-space diagonalisation
    before iterative eigenvector-optimisation
 modified Broyden-mixing scheme, WC =      100.0
 initial mixing is a Kerker type mixing with AMIX =  0.4000 and BMIX =      1.0000
 Hartree-type preconditioning will be used
 using additional bands          159
 real space projection scheme for non local part
 use partial core corrections
 calculate Harris-corrections to forces 
   (improved forces if not selfconsistent)
 use gradient corrections 
 use of overlap-Matrix (Vanderbilt PP)
 Fermi weights with tetrahedron method with Bloechl corrections


--------------------------------------------------------------------------------------------------------


  energy-cutoff  :      550.00
  volume of cell :     1931.47
      direct lattice vectors                 reciprocal lattice vectors
    10.560000420  0.000000000  0.000000000     0.094696966  0.054673319  0.000000000
    -5.280000210  9.145228627  0.000000000     0.000000000  0.109346638  0.000000000
     0.000000000  0.000000000 20.000000000     0.000000000  0.000000000  0.050000000

  length of vectors
    10.560000420 10.560000420 20.000000000     0.109346638  0.109346638  0.050000000


 
 k-points in units of 2pi/SCALE and weight: mesh auto                               
   0.00000000  0.00000000  0.00000000       0.250
   0.04734848  0.02733666  0.00000000       0.250
   0.00000000  0.05467332  0.00000000       0.250
   0.04734848  0.08200998  0.00000000       0.250
 
 k-points in reciprocal lattice and weights: mesh auto                               
   0.00000000  0.00000000  0.00000000       0.250
   0.50000000 -0.00000000  0.00000000       0.250
   0.00000000  0.50000000  0.00000000       0.250
   0.50000000  0.50000000  0.00000000       0.250
 
 position of ions in fractional coordinates (direct lattice) 
   0.99999844  0.00000156  0.05579229
   0.33331244  0.16891226  0.17939509
   0.16818471  0.33404833  0.31042453
   0.00052844  0.00075920  0.41528149
   0.99999844  0.25000155  0.05579229
   0.33334037  0.41667210  0.19297976
   0.16867291  0.08729980  0.29843304
   0.99979457  0.24982274  0.42163147
   0.24999844  0.25000155  0.05579229
   0.08561685  0.41668424  0.17936340
   0.41703566  0.08455107  0.29579559
   0.24797174  0.24589456  0.43878122
   0.24999844  0.00000156  0.05579229
   0.08560891  0.16891920  0.17938942
   0.41589991  0.33404757  0.31042422
   0.25027609  0.00075824  0.41527003
   0.49999844  0.00000156  0.05579229
   0.83430745  0.16714114  0.17664671
   0.66536592  0.33289042  0.29578005
   0.49996984  0.99992403  0.41713626
   0.49999843  0.25000155  0.05579229
   0.83317232  0.41635029  0.17514411
   0.66663705  0.08324374  0.29639179
   0.50007756  0.24982454  0.42162109
   0.74999841  0.25000155  0.05579229
   0.58106061  0.41667669  0.17936695
   0.91755607  0.08455208  0.29580571
   0.75000167  0.24995965  0.41713978
   0.74999842  0.00000156  0.05579229
   0.58282720  0.16713854  0.17664955
   0.91755681  0.33290225  0.29578202
   0.74998767  0.99992026  0.41715526
   0.99999844  0.50000154  0.05579229
   0.33332126  0.66439519  0.17938060
   0.16764207  0.83377131  0.29228866
   0.00052837  0.49963407  0.41526278
   0.99999843  0.75000151  0.05579229
   0.33365179  0.91682493  0.17515070
   0.16867849  0.58127562  0.29841214
   0.00000016  0.74995915  0.41042748
   0.24999843  0.75000151  0.05579229
   0.08402254  0.91803951  0.17475338
   0.41589665  0.58175272  0.31044577
   0.25028064  0.74938287  0.41528406
   0.24999844  0.50000154  0.05579229
   0.08402028  0.66598126  0.17475175
   0.41702234  0.83235725  0.29580984
   0.24795917  0.50192839  0.43878216
   0.49999844  0.50000154  0.05579229
   0.83196366  0.66598259  0.17475615
   0.66535171  0.83234478  0.29582620
   0.50402428  0.50193310  0.43878967
   0.49999843  0.75000151  0.05579229
   0.83317036  0.91682227  0.17515523
   0.66262717  0.58127171  0.29841782
   0.50009383  0.75012858  0.42166476
   0.74999841  0.75000151  0.05579229
   0.58283072  0.91567656  0.17667098
   0.91616611  0.58231318  0.29229043
   0.74915996  0.74938553  0.41530460
   0.74999839  0.50000154  0.05579229
   0.58106864  0.66439040  0.17938783
   0.91616878  0.83376971  0.29229731
   0.74915135  0.49963322  0.41525918
   0.33334573  0.41664826  0.48935920
 
 position of ions in cartesian coordinates  (Angst):
  10.55997578  0.00001422  1.11584590
   2.62792272  1.54474123  3.58790174
   0.01225536  3.05494834  6.20849066
   0.00157178  0.00694307  8.30562973
   9.23997574  2.28632132  1.11584590
   1.32004563  3.81056160  3.85959511
   1.32024305  0.79837662  5.96866081
   9.23876694  2.28468605  8.43262932
   1.31997542  2.28632132  1.11584590
  -1.29597885  3.81067259  3.58726805
   3.95746711  0.77323886  5.91591179
   1.32025837  2.24876193  8.77562436
   2.63997547  0.00001422  1.11584590
   0.01213670  1.54480472  3.58778837
   2.62813201  3.05494140  6.20848447
   2.63891211  0.00693432  8.30540058
   5.27997557  0.00001422  1.11584590
   7.92778180  1.52854397  3.53293427
   5.26860289  3.04435901  5.91560098
   0.00008263  9.14453382  8.34272519
   3.95997540  2.28632132  1.11584590
   6.59997045  3.80761857  3.50288227
   6.60016059  0.76128305  5.92783585
   3.96174564  2.28470258  8.43242176
   6.59997527  2.28632132  1.11584590
   3.93594730  3.81060360  3.58733902
   9.24295754  0.77324806  5.91611412
   6.60023097  2.28593819  8.34279562
   7.91997543  0.00001422  1.11584590
   5.27216397  1.52852018  3.53299104
   7.93167633  3.04446720  5.91564034
   2.64029099  9.14449936  8.34310517
   7.91997567  4.57262842  1.11584590
   0.01186591  6.07604591  3.58761202
  -2.63201237  7.62502930  5.84577319
  -2.63248834  4.56926775  8.30525568
   6.59997574  6.85893527  1.11584590
  -1.31747280  8.38457363  3.50301409
  -1.28789047  5.31589847  5.96824281
  -3.95978278  6.85854788  8.20854952
  -1.32002457  6.85893527  1.11584590
  -3.95997074  8.39568121  3.49506761
   1.32021434  5.32026162  6.20891532
  -1.31377806  6.85327770  8.30568120
  -0.00002464  4.57262842  1.11584590
  -2.62912695  6.09055087  3.49503500
   0.00890964  7.61209731  5.91619674
  -0.03173306  4.59024987  8.77564324
   2.63997546  4.57262842  1.11584590
   5.26914836  6.09056307  3.49512303
   2.63133374  7.61198329  5.91652399
   2.67228974  4.59029299  8.77579341
   1.31997553  6.85893527  1.11584590
   3.95745756  8.38454927  3.50310460
   3.92822845  5.31586269  5.96835643
   1.32031195  6.86009739  8.43329529
   3.95997540  6.85893527  1.11584590
   1.31992022  8.37407145  3.53341965
   6.60010080  5.32538716  5.84580861
   3.95437371  6.85330203  8.30609203
   5.27997509  4.57262842  1.11584590
   2.62810364  6.07600213  3.58775668
   5.27243848  7.62501460  5.84594621
   5.27297502  4.56926002  8.30518358
   1.32022819  3.81034358  9.78718398
 


--------------------------------------------------------------------------------------------------------


 k-point  1 :   0.0000 0.0000 0.0000  plane waves:   56579
 k-point  2 :   0.5000-0.0000 0.0000  plane waves:   56606
 k-point  3 :   0.0000 0.5000 0.0000  plane waves:   56606
 k-point  4 :   0.5000 0.5000 0.0000  plane waves:   56606

 maximum and minimum number of plane-waves per node :     56606    56579

 maximum number of plane-waves:     56606
 maximum index in each direction: 
   IXMAX=   20   IYMAX=   20   IZMAX=   38
   IXMIN=  -20   IYMIN=  -20   IZMIN=  -38


 serial   3D FFT for wavefunctions
 parallel 3D FFT for charge:
    minimum data exchange during FFTs selected (reduces bandwidth)


 total amount of memory used by VASP MPI-rank0   335548. kBytes
=======================================================================

   base      :      30000. kBytes
   nonlr-proj:      89259. kBytes
   fftplans  :      13334. kBytes
   grid      :     112154. kBytes
   one-center:       2021. kBytes
   wavefun   :      88780. kBytes
 
     INWAV:  cpu time    0.0000: real time    0.0000
 Broyden mixing: mesh for mixing (old mesh)
   NGX = 41   NGY = 41   NGZ = 77
  (NGX  =168   NGY  =168   NGZ  =320)
  gives a total of 129437 points

 initial charge density was supplied:
 charge density of overlapping atoms calculated
 number of electron     641.0000000 magnetization     129.0000000
 keeping initial charge density in first step


--------------------------------------------------------------------------------------------------------


 Maximum index for non-local projection operator         7915
 Maximum index for augmentation-charges         2177 (set IRDMAX)


--------------------------------------------------------------------------------------------------------


 First call to EWALD:  gamma=   0.142
 Maximum number of real-space cells 4x 4x 2
 Maximum number of reciprocal cells 2x 2x 4

    FEWALD:  cpu time    0.0032: real time    0.0033


--------------------------------------- Iteration      1(   1)  ---------------------------------------


    POTLOK:  cpu time    0.4574: real time    0.4793
    SETDIJ:  cpu time    0.0339: real time    0.0342
     EDDAV:  cpu time   43.1384: real time   43.6181
 BZINTS: Fermi energy: 13.979725;641.000000 electrons
         Band energy:4669.537710;  BLOECHL correction: -0.017321
       DOS:  cpu time    0.0157: real time    0.0160
    --------------------------------------------
      LOOP:  cpu time   43.6455: real time   44.1475

 eigenvalue-minimisations  :  7680
 total energy-change (2. order) : 0.4345932E+04  (-0.3117093E+05)
 number of electron     641.0000000 magnetization     129.0000000
 augmentation part      641.0000000 magnetization     129.0000000

 Free energy of the ion-electron system (eV)
  ---------------------------------------------------
  alpha Z        PSCENC =      2019.82280658
  Ewald energy   TEWEN  =    124354.49493128
  -Hartree energ DENC   =   -175443.39834693
  -exchange      EXHF   =         0.00000000
  -V(xc)+E(xc)   XCENC  =       260.54585413
  PAW double counting   =     44533.85912334   -42724.81290835
  entropy T*S    EENTRO =         0.00000000
  eigenvalues    EBANDS =      4669.53770971
  atomic energy  EATOM  =     46675.88275157
  Solvation  Ediel_sol  =         0.00000000
  ---------------------------------------------------
  free energy    TOTEN  =      4345.93192133 eV

  energy without entropy =     4345.93192133  energy(sigma->0) =     4345.93192133


--------------------------------------------------------------------------------------------------------




--------------------------------------- Iteration      1(   2)  ---------------------------------------


     EDDAV:  cpu time   45.9906: real time   46.1260
 BZINTS: Fermi energy:  4.248301;641.000000 electrons
         Band energy: 148.456846;  BLOECHL correction: -0.602114
       DOS:  cpu time    0.0152: real time    0.0152
    --------------------------------------------
      LOOP:  cpu time   46.0058: real time   46.1413

 eigenvalue-minimisations  :  8400
 total energy-change (2. order) :-0.4521081E+04  (-0.4140737E+04)
 number of electron     641.0000000 magnetization     129.0000000
 augmentation part      641.0000000 magnetization     129.0000000

 Free energy of the ion-electron system (eV)
  ---------------------------------------------------
  alpha Z        PSCENC =      2019.82280658
  Ewald energy   TEWEN  =    124354.49493128
  -Hartree energ DENC   =   -175443.39834693
  -exchange      EXHF   =         0.00000000
  -V(xc)+E(xc)   XCENC  =       260.54585413
  PAW double counting   =     44533.85912334   -42724.81290835
  entropy T*S    EENTRO =         0.00000000
  eigenvalues    EBANDS =       148.45684613
  atomic energy  EATOM  =     46675.88275157
  Solvation  Ediel_sol  =         0.00000000
  ---------------------------------------------------
  free energy    TOTEN  =      -175.14894226 eV

  energy without entropy =     -175.14894226  energy(sigma->0) =     -175.14894226


--------------------------------------------------------------------------------------------------------




--------------------------------------- Iteration      1(   3)  ---------------------------------------


     EDDAV:  cpu time   47.9782: real time   48.1086
 BZINTS: Fermi energy:  3.766293;641.000000 electrons
         Band energy: -44.552482;  BLOECHL correction: -0.756052
       DOS:  cpu time    0.0157: real time    0.0158
    --------------------------------------------
      LOOP:  cpu time   47.9940: real time   48.1243

 eigenvalue-minimisations  :  8800
 total energy-change (2. order) :-0.1930093E+03  (-0.1862413E+03)
 number of electron     641.0000000 magnetization     129.0000000
 augmentation part      641.0000000 magnetization     129.0000000

 Free energy of the ion-electron system (eV)
  ---------------------------------------------------
  alpha Z        PSCENC =      2019.82280658
  Ewald energy   TEWEN  =    124354.49493128
  -Hartree energ DENC   =   -175443.39834693
  -exchange      EXHF   =         0.00000000
  -V(xc)+E(xc)   XCENC  =       260.54585413
  PAW double counting   =     44533.85912334   -42724.81290835
  entropy T*S    EENTRO =         0.00000000
  eigenvalues    EBANDS =       -44.55248155
  atomic energy  EATOM  =     46675.88275157
  Solvation  Ediel_sol  =         0.00000000
  ---------------------------------------------------
  free energy    TOTEN  =      -368.15826993 eV

  energy without entropy =     -368.15826993  energy(sigma->0) =     -368.15826993


--------------------------------------------------------------------------------------------------------




--------------------------------------- Iteration      1(   4)  ---------------------------------------


     EDDAV:  cpu time   48.7138: real time   48.8295
 BZINTS: Fermi energy:  3.756446;641.000000 electrons
         Band energy: -47.830446;  BLOECHL correction: -0.753505
       DOS:  cpu time    0.0157: real time    0.0157
    --------------------------------------------
      LOOP:  cpu time   48.7295: real time   48.8452

 eigenvalue-minimisations  :  9040
 total energy-change (2. order) :-0.3277965E+01  (-0.3272142E+01)
 number of electron     641.0000000 magnetization     129.0000000
 augmentation part      641.0000000 magnetization     129.0000000

 Free energy of the ion-electron system (eV)
  ---------------------------------------------------
  alpha Z        PSCENC =      2019.82280658
  Ewald energy   TEWEN  =    124354.49493128
  -Hartree energ DENC   =   -175443.39834693
  -exchange      EXHF   =         0.00000000
  -V(xc)+E(xc)   XCENC  =       260.54585413
  PAW double counting   =     44533.85912334   -42724.81290835
  entropy T*S    EENTRO =         0.00000000
  eigenvalues    EBANDS =       -47.83044613
  atomic energy  EATOM  =     46675.88275157
  Solvation  Ediel_sol  =         0.00000000
  ---------------------------------------------------
  free energy    TOTEN  =      -371.43623452 eV

  energy without entropy =     -371.43623452  energy(sigma->0) =     -371.43623452


--------------------------------------------------------------------------------------------------------




--------------------------------------- Iteration      1(   5)  ---------------------------------------


     EDDAV:  cpu time   47.6799: real time   47.7932
 BZINTS: Fermi energy:  3.756182;641.000000 electrons
         Band energy: -47.913631;  BLOECHL correction: -0.753349
       DOS:  cpu time    0.0155: real time    0.0156
    CHARGE:  cpu time    2.2499: real time    2.2556
    MIXING:  cpu time    0.0099: real time    0.0109
    --------------------------------------------
      LOOP:  cpu time   49.9552: real time   50.0753

 eigenvalue-minimisations  :  8760
 total energy-change (2. order) :-0.8318502E-01  (-0.8321376E-01)
 number of electron     641.0000056 magnetization     116.6283169
 augmentation part      185.3846084 magnetization      92.6022509

 Broyden mixing:
  rms(total) = 0.11230E+02    rms(broyden)= 0.11230E+02
  rms(prec ) = 0.11326E+02
  weight for this iteration     100.00

 Free energy of the ion-electron system (eV)
  ---------------------------------------------------
  alpha Z        PSCENC =      2019.82280658
  Ewald energy   TEWEN  =    124354.49493128
  -Hartree energ DENC   =   -175443.39834693
  -exchange      EXHF   =         0.00000000
  -V(xc)+E(xc)   XCENC  =       260.54585413
  PAW double counting   =     44533.85912334   -42724.81290835
  entropy T*S    EENTRO =         0.00000000
  eigenvalues    EBANDS =       -47.91363116
  atomic energy  EATOM  =     46675.88275157
  Solvation  Ediel_sol  =         0.00000000
  ---------------------------------------------------
  free energy    TOTEN  =      -371.51941954 eV

  energy without entropy =     -371.51941954  energy(sigma->0) =     -371.51941954


--------------------------------------------------------------------------------------------------------




--------------------------------------- Iteration      1(   6)  ---------------------------------------


    POTLOK:  cpu time    0.4076: real time    0.4085
    SETDIJ:  cpu time    0.0333: real time    0.0334
    EDDIAG:  cpu time    6.7737: real time    6.7900
  RMM-DIIS:  cpu time   28.0180: real time   28.0863
    ORTHCH:  cpu time    0.8290: real time    0.8309
 BZINTS: Fermi energy:  2.841841;641.000000 electrons
         Band energy:-549.080601;  BLOECHL correction: -0.134708
       DOS:  cpu time    0.0175: real time    0.0175
    CHARGE:  cpu time    2.2360: real time    2.2414
    MIXING:  cpu time    0.0101: real time    0.0104
    --------------------------------------------
      LOOP:  cpu time   38.3252: real time   38.4186

 eigenvalue-minimisations  :  7716
 total energy-change (2. order) : 0.6453914E+02  (-0.1018448E+02)
 number of electron     641.0000056 magnetization     102.4685221
 augmentation part      196.5994957 magnetization      78.1358861

 Broyden mixing:
  rms(total) = 0.73221E+01    rms(broyden)= 0.73221E+01
  rms(prec ) = 0.76170E+01
  weight for this iteration     100.00

 eigenvalues of (default mixing * dielectric matrix)
  average eigenvalue GAMMA=   0.9929
  0.9929

 Free energy of the ion-electron system (eV)
  ---------------------------------------------------
  alpha Z        PSCENC =      2019.82280658
  Ewald energy   TEWEN  =    124354.49493128
  -Hartree energ DENC   =   -174776.20770050
  -exchange      EXHF   =         0.00000000
  -V(xc)+E(xc)   XCENC  =       267.26986494
  PAW double counting   =     50870.72674940   -49169.88908556
  entropy T*S    EENTRO =         0.00000000
  eigenvalues    EBANDS =      -549.08060089
  atomic energy  EATOM  =     46675.88275157
  Solvation  Ediel_sol  =         0.00000000
  ---------------------------------------------------
  free energy    TOTEN  =      -306.98028319 eV

  energy without entropy =     -306.98028319  energy(sigma->0) =     -306.98028319


--------------------------------------------------------------------------------------------------------




--------------------------------------- Iteration      1(   7)  ---------------------------------------


    POTLOK:  cpu time    0.4070: real time    0.4080
    SETDIJ:  cpu time    0.0334: real time    0.0335
    EDDIAG:  cpu time    7.0170: real time    7.0336
  RMM-DIIS:  cpu time   27.1776: real time   27.2420
    ORTHCH:  cpu time    1.0099: real time    1.0123
 BZINTS: Fermi energy:  4.483940;641.000000 electrons
         Band energy:   5.316770;  BLOECHL correction: -0.096694
       DOS:  cpu time    0.0170: real time    0.0170
    CHARGE:  cpu time    2.2379: real time    2.2432
    MIXING:  cpu time    0.0088: real time    0.0088
    --------------------------------------------
      LOOP:  cpu time   37.9086: real time   37.9983

 eigenvalue-minimisations  :  7683
 total energy-change (2. order) :-0.8441806E+02  (-0.8703957E+01)
 number of electron     641.0000064 magnetization      93.1278104
 augmentation part      193.9552164 magnetization      68.3499942

 Broyden mixing:
  rms(total) = 0.95054E+01    rms(broyden)= 0.95054E+01
  rms(prec ) = 0.11684E+02
  weight for this iteration     100.00

 eigenvalues of (default mixing * dielectric matrix)
  average eigenvalue GAMMA=   0.8687
  1.3399  0.3975

 Free energy of the ion-electron system (eV)
  ---------------------------------------------------
  alpha Z        PSCENC =      2019.82280658
  Ewald energy   TEWEN  =    124354.49493128
  -Hartree energ DENC   =   -175363.57526334
  -exchange      EXHF   =         0.00000000
  -V(xc)+E(xc)   XCENC  =       267.27445518
  PAW double counting   =     56063.63165826   -54414.24645037
  entropy T*S    EENTRO =         0.00000000
  eigenvalues    EBANDS =         5.31677039
  atomic energy  EATOM  =     46675.88275157
  Solvation  Ediel_sol  =         0.00000000
  ---------------------------------------------------
  free energy    TOTEN  =      -391.39834046 eV

  energy without entropy =     -391.39834046  energy(sigma->0) =     -391.39834046


--------------------------------------------------------------------------------------------------------




--------------------------------------- Iteration      1(   8)  ---------------------------------------


    POTLOK:  cpu time    0.4051: real time    0.4061
    SETDIJ:  cpu time    0.0333: real time    0.0334
    EDDIAG:  cpu time    6.7766: real time    6.7927
  RMM-DIIS:  cpu time   27.6258: real time   27.6911
    ORTHCH:  cpu time    0.8305: real time    0.8325
 BZINTS: Fermi energy:  3.290776;641.000000 electrons
         Band energy:-276.330124;  BLOECHL correction: -0.094487
       DOS:  cpu time    0.0169: real time    0.0170
    CHARGE:  cpu time    2.2263: real time    2.2316
    MIXING:  cpu time    0.0091: real time    0.0255
    --------------------------------------------
      LOOP:  cpu time   37.9237: real time   38.0298

 eigenvalue-minimisations  :  7709
 total energy-change (2. order) : 0.9272073E+02  (-0.4934440E+01)
 number of electron     641.0000059 magnetization      86.0389902
 augmentation part      198.4600418 magnetization      64.8921262

 Broyden mixing:
  rms(total) = 0.49449E+01    rms(broyden)= 0.49449E+01
  rms(prec ) = 0.60352E+01
  weight for this iteration     100.00

 eigenvalues of (default mixing * dielectric matrix)
  average eigenvalue GAMMA=   0.9132
  1.8569  0.6153  0.2676

 Free energy of the ion-electron system (eV)
  ---------------------------------------------------
  alpha Z        PSCENC =      2019.82280658
  Ewald energy   TEWEN  =    124354.49493128
  -Hartree energ DENC   =   -174965.53049436
  -exchange      EXHF   =         0.00000000
  -V(xc)+E(xc)   XCENC  =       275.94909437
  PAW double counting   =     58940.44535806   -57323.41193671
  entropy T*S    EENTRO =         0.00000000
  eigenvalues    EBANDS =      -276.33012373
  atomic energy  EATOM  =     46675.88275157
  Solvation  Ediel_sol  =         0.00000000
  ---------------------------------------------------
  free energy    TOTEN  =      -298.67761294 eV

  energy without entropy =     -298.67761294  energy(sigma->0) =     -298.67761294


--------------------------------------------------------------------------------------------------------




--------------------------------------- Iteration      1(   9)  ---------------------------------------


    POTLOK:  cpu time    0.4122: real time    0.4132
    SETDIJ:  cpu time    0.0333: real time    0.0334
    EDDIAG:  cpu time    6.7749: real time    6.7911
  RMM-DIIS:  cpu time   27.8317: real time   27.9041
    ORTHCH:  cpu time    0.8285: real time    0.8305
 BZINTS: Fermi energy:  3.639272;641.000000 electrons
         Band energy:-342.794326;  BLOECHL correction: -0.064582
       DOS:  cpu time    0.0172: real time    0.0173
    CHARGE:  cpu time    2.2140: real time    2.2193
    MIXING:  cpu time    0.0105: real time    0.0105
    --------------------------------------------
      LOOP:  cpu time   38.1225: real time   38.2194

 eigenvalue-minimisations  :  7702
 total energy-change (2. order) :-0.3671995E+02  (-0.2611237E+01)
 number of electron     641.0000054 magnetization      79.9672849
 augmentation part      198.0840459 magnetization      59.5575288

 Broyden mixing:
  rms(total) = 0.66793E+01    rms(broyden)= 0.66793E+01
  rms(prec ) = 0.10225E+02
  weight for this iteration     100.00

 eigenvalues of (default mixing * dielectric matrix)
  average eigenvalue GAMMA=   0.8349
  2.1723  0.7000  0.2986  0.1686

 Free energy of the ion-electron system (eV)
  ---------------------------------------------------
  alpha Z        PSCENC =      2019.82280658
  Ewald energy   TEWEN  =    124354.49493128
  -Hartree energ DENC   =   -174920.93702642
  -exchange      EXHF   =         0.00000000
  -V(xc)+E(xc)   XCENC  =       273.53808501
  PAW double counting   =     60302.86771888   -58698.27250308
  entropy T*S    EENTRO =         0.00000000
  eigenvalues    EBANDS =      -342.79432581
  atomic energy  EATOM  =     46675.88275157
  Solvation  Ediel_sol  =         0.00000000
  ---------------------------------------------------
  free energy    TOTEN  =      -335.39756199 eV

  energy without entropy =     -335.39756199  energy(sigma->0) =     -335.39756199


--------------------------------------------------------------------------------------------------------




--------------------------------------- Iteration      1(  10)  ---------------------------------------


    POTLOK:  cpu time    0.4071: real time    0.4081
    SETDIJ:  cpu time    0.0334: real time    0.0334
    EDDIAG:  cpu time    6.7730: real time    6.7891
  RMM-DIIS:  cpu time   27.7329: real time   27.7985
    ORTHCH:  cpu time    0.8296: real time    0.8316
 BZINTS: Fermi energy:  3.452707;641.000000 electrons
         Band energy:-156.396395;  BLOECHL correction: -0.127756
       DOS:  cpu time    0.0169: real time    0.0169
    CHARGE:  cpu time    2.2193: real time    2.2246
    MIXING:  cpu time    0.0113: real time    0.0113
    --------------------------------------------
      LOOP:  cpu time   38.0233: real time   38.1135

 eigenvalue-minimisations  :  7719
 total energy-change (2. order) : 0.2969988E+02  (-0.1550263E+01)
 number of electron     641.0000060 magnetization      73.7567377
 augmentation part      198.2196890 magnetization      52.9851257

 Broyden mixing:
  rms(total) = 0.44353E+01    rms(broyden)= 0.44353E+01
  rms(prec ) = 0.54394E+01
  weight for this iteration     100.00

 eigenvalues of (default mixing * dielectric matrix)
  average eigenvalue GAMMA=   0.7601
  2.3048  0.7436  0.3679  0.2527  0.1314

 Free energy of the ion-electron system (eV)
  ---------------------------------------------------
  alpha Z        PSCENC =      2019.82280658
  Ewald energy   TEWEN  =    124354.49493128
  -Hartree energ DENC   =   -175064.61398573
  -exchange      EXHF   =         0.00000000
  -V(xc)+E(xc)   XCENC  =       268.86446636
  PAW double counting   =     61292.87873325   -59696.63098746
  entropy T*S    EENTRO =         0.00000000
  eigenvalues    EBANDS =      -156.39639519
  atomic energy  EATOM  =     46675.88275157
  Solvation  Ediel_sol  =         0.00000000
  ---------------------------------------------------
  free energy    TOTEN  =      -305.69767935 eV

  energy without entropy =     -305.69767935  energy(sigma->0) =     -305.69767935


--------------------------------------------------------------------------------------------------------




--------------------------------------- Iteration      1(  11)  ---------------------------------------


    POTLOK:  cpu time    0.4043: real time    0.4053
    SETDIJ:  cpu time    0.0333: real time    0.0334
    EDDIAG:  cpu time    7.0135: real time    7.0303
  RMM-DIIS:  cpu time   27.8776: real time   27.9438
    ORTHCH:  cpu time    0.8302: real time    0.8322
 BZINTS: Fermi energy:  3.430283;641.000000 electrons
         Band energy:-111.455368;  BLOECHL correction: -0.247660
       DOS:  cpu time    0.0178: real time    0.0178
    CHARGE:  cpu time    2.2299: real time    2.2352
    MIXING:  cpu time    0.0098: real time    0.0098
    --------------------------------------------
      LOOP:  cpu time   38.4163: real time   38.5078

 eigenvalue-minimisations  :  7720
 total energy-change (2. order) : 0.3818739E+01  (-0.7919665E+00)
 number of electron     641.0000057 magnetization      71.1483537
 augmentation part      197.9168076 magnetization      51.7339520

 Broyden mixing:
  rms(total) = 0.23070E+01    rms(broyden)= 0.23070E+01
  rms(prec ) = 0.26129E+01
  weight for this iteration     100.00

 eigenvalues of (default mixing * dielectric matrix)
  average eigenvalue GAMMA=   0.7091
  2.1324  0.7224  0.7224  0.2749  0.2749  0.1276

 Free energy of the ion-electron system (eV)
  ---------------------------------------------------
  alpha Z        PSCENC =      2019.82280658
  Ewald energy   TEWEN  =    124354.49493128
  -Hartree energ DENC   =   -175095.24644268
  -exchange      EXHF   =         0.00000000
  -V(xc)+E(xc)   XCENC  =       263.26269255
  PAW double counting   =     61843.08604963   -60251.72636089
  entropy T*S    EENTRO =         0.00000000
  eigenvalues    EBANDS =      -111.45536834
  atomic energy  EATOM  =     46675.88275157
  Solvation  Ediel_sol  =         0.00000000
  ---------------------------------------------------
  free energy    TOTEN  =      -301.87894031 eV

  energy without entropy =     -301.87894031  energy(sigma->0) =     -301.87894031


--------------------------------------------------------------------------------------------------------




--------------------------------------- Iteration      1(  12)  ---------------------------------------


    POTLOK:  cpu time    0.4048: real time    0.4058
    SETDIJ:  cpu time    0.0333: real time    0.0334
    EDDIAG:  cpu time    6.7728: real time    6.7889
  RMM-DIIS:  cpu time   27.9393: real time   28.0056
    ORTHCH:  cpu time    0.8303: real time    0.8322
 BZINTS: Fermi energy:  3.330086;641.000000 electrons
         Band energy:-161.241349;  BLOECHL correction: -0.157364
       DOS:  cpu time    0.0173: real time    0.0174
    CHARGE:  cpu time    2.2255: real time    2.2308
    MIXING:  cpu time    0.0115: real time    0.0115
    --------------------------------------------
      LOOP:  cpu time   38.2348: real time   38.3256

 eigenvalue-minimisations  :  7723
 total energy-change (2. order) :-0.5500145E+01  (-0.2648215E+00)
 number of electron     641.0000056 magnetization      65.7935768
 augmentation part      197.6725747 magnetization      47.4452881

 Broyden mixing:
  rms(total) = 0.18807E+01    rms(broyden)= 0.18807E+01
  rms(prec ) = 0.19578E+01
  weight for this iteration     100.00

 eigenvalues of (default mixing * dielectric matrix)
  average eigenvalue GAMMA=   0.7183
  2.1548  0.7418  0.7418  0.7208  0.2709  0.2709  0.1270

 Free energy of the ion-electron system (eV)
  ---------------------------------------------------
  alpha Z        PSCENC =      2019.82280658
  Ewald energy   TEWEN  =    124354.49493128
  -Hartree energ DENC   =   -175055.27335398
  -exchange      EXHF   =         0.00000000
  -V(xc)+E(xc)   XCENC  =       260.29413573
  PAW double counting   =     61094.08015142   -59495.43915876
  entropy T*S    EENTRO =         0.00000000
  eigenvalues    EBANDS =      -161.24134870
  atomic energy  EATOM  =     46675.88275157
  Solvation  Ediel_sol  =         0.00000000
  ---------------------------------------------------
  free energy    TOTEN  =      -307.37908486 eV

  energy without entropy =     -307.37908486  energy(sigma->0) =     -307.37908486


--------------------------------------------------------------------------------------------------------




--------------------------------------- Iteration      1(  13)  ---------------------------------------


    POTLOK:  cpu time    0.4041: real time    0.4050
    SETDIJ:  cpu time    0.0333: real time    0.0334
    EDDIAG:  cpu time    6.7718: real time    6.7880
  RMM-DIIS:  cpu time   27.8887: real time   27.9547
    ORTHCH:  cpu time    0.8298: real time    0.8317
 BZINTS: Fermi energy:  3.341300;641.000000 electrons
         Band energy:-156.068065;  BLOECHL correction: -0.203493
       DOS:  cpu time    0.0175: real time    0.0176
    CHARGE:  cpu time    2.2206: real time    2.2259
    MIXING:  cpu time    0.0112: real time    0.0112
    --------------------------------------------
      LOOP:  cpu time   38.1770: real time   38.2676

 eigenvalue-minimisations  :  7724
 total energy-change (2. order) :-0.4422548E+01  (-0.1479114E+00)
 number of electron     641.0000057 magnetization      56.9177886
 augmentation part      197.6844079 magnetization      39.5243371

 Broyden mixing:
  rms(total) = 0.17638E+01    rms(broyden)= 0.17638E+01
  rms(prec ) = 0.18842E+01
  weight for this iteration     100.00

 eigenvalues of (default mixing * dielectric matrix)
  average eigenvalue GAMMA=   0.7245
  2.0863  0.9233  0.9233  0.8489  0.3397  0.2735  0.2735  0.1269

 Free energy of the ion-electron system (eV)
  ---------------------------------------------------
  alpha Z        PSCENC =      2019.82280658
  Ewald energy   TEWEN  =    124354.49493128
  -Hartree energ DENC   =   -175061.54120329
  -exchange      EXHF   =         0.00000000
  -V(xc)+E(xc)   XCENC  =       258.35770448
  PAW double counting   =     61115.96987582   -59518.72043409
  entropy T*S    EENTRO =         0.00000000
  eigenvalues    EBANDS =      -156.06806543
  atomic energy  EATOM  =     46675.88275157
  Solvation  Ediel_sol  =         0.00000000
  ---------------------------------------------------
  free energy    TOTEN  =      -311.80163308 eV

  energy without entropy =     -311.80163308  energy(sigma->0) =     -311.80163308


--------------------------------------------------------------------------------------------------------




--------------------------------------- Iteration      1(  14)  ---------------------------------------


    POTLOK:  cpu time    0.4041: real time    0.4051
    SETDIJ:  cpu time    0.0332: real time    0.0333
    EDDIAG:  cpu time    6.8945: real time    6.9111
  RMM-DIIS:  cpu time   27.9366: real time   28.0058
    ORTHCH:  cpu time    0.9100: real time    0.9122
 BZINTS: Fermi energy:  3.324109;641.000000 electrons
         Band energy:-160.770055;  BLOECHL correction: -0.154227
       DOS:  cpu time    0.0173: real time    0.0173
    CHARGE:  cpu time    2.2340: real time    2.2394
    MIXING:  cpu time    0.0140: real time    0.0140
    --------------------------------------------
      LOOP:  cpu time   38.4439: real time   38.5382

 eigenvalue-minimisations  :  7711
 total energy-change (2. order) :-0.1051631E+02  (-0.3242979E+00)
 number of electron     641.0000056 magnetization      43.6669873
 augmentation part      197.4937746 magnetization      28.0895165

 Broyden mixing:
  rms(total) = 0.14629E+01    rms(broyden)= 0.14629E+01
  rms(prec ) = 0.15624E+01
  weight for this iteration     100.00

 eigenvalues of (default mixing * dielectric matrix)
  average eigenvalue GAMMA=   0.7812
  1.9318  1.9318  0.8356  0.8356  0.5582  0.1269  0.2696  0.2696  0.2716

 Free energy of the ion-electron system (eV)
  ---------------------------------------------------
  alpha Z        PSCENC =      2019.82280658
  Ewald energy   TEWEN  =    124354.49493128
  -Hartree energ DENC   =   -175059.98297203
  -exchange      EXHF   =         0.00000000
  -V(xc)+E(xc)   XCENC  =       251.83686931
  PAW double counting   =     61057.69025691   -59461.29253412
  entropy T*S    EENTRO =         0.00000000
  eigenvalues    EBANDS =      -160.77005480
  atomic energy  EATOM  =     46675.88275157
  Solvation  Ediel_sol  =         0.00000000
  ---------------------------------------------------
  free energy    TOTEN  =      -322.31794531 eV

  energy without entropy =     -322.31794531  energy(sigma->0) =     -322.31794531


--------------------------------------------------------------------------------------------------------




--------------------------------------- Iteration      1(  15)  ---------------------------------------


    POTLOK:  cpu time    0.4253: real time    0.4263
    SETDIJ:  cpu time    0.0333: real time    0.0334
    EDDIAG:  cpu time    6.7629: real time    6.7791
  RMM-DIIS:  cpu time   27.9850: real time   28.0514
    ORTHCH:  cpu time    0.8298: real time    0.8317
 BZINTS: Fermi energy:  3.331687;641.000000 electrons
         Band energy:-152.414097;  BLOECHL correction: -0.116274
       DOS:  cpu time    0.0165: real time    0.0165
    CHARGE:  cpu time    2.1968: real time    2.2021
    MIXING:  cpu time    0.0135: real time    0.0135
    --------------------------------------------
      LOOP:  cpu time   38.2630: real time   38.3540

 eigenvalue-minimisations  :  7703
 total energy-change (2. order) :-0.1906127E+02  (-0.9442010E+00)
 number of electron     641.0000057 magnetization      34.2989351
 augmentation part      197.2924758 magnetization      22.2182936

 Broyden mixing:
  rms(total) = 0.13156E+01    rms(broyden)= 0.13156E+01
  rms(prec ) = 0.14399E+01
  weight for this iteration     100.00

 eigenvalues of (default mixing * dielectric matrix)
  average eigenvalue GAMMA=   0.8397
  2.3403  2.3403  0.8686  0.8686  0.6267  0.4579  0.1269  0.2685  0.2685  0.2309

 Free energy of the ion-electron system (eV)
  ---------------------------------------------------
  alpha Z        PSCENC =      2019.82280658
  Ewald energy   TEWEN  =    124354.49493128
  -Hartree energ DENC   =   -175075.10984689
  -exchange      EXHF   =         0.00000000
  -V(xc)+E(xc)   XCENC  =       239.78485565
  PAW double counting   =     60890.84313138   -59294.68374732
  entropy T*S    EENTRO =         0.00000000
  eigenvalues    EBANDS =      -152.41409720
  atomic energy  EATOM  =     46675.88275157
  Solvation  Ediel_sol  =         0.00000000
  ---------------------------------------------------
  free energy    TOTEN  =      -341.37921495 eV

  energy without entropy =     -341.37921495  energy(sigma->0) =     -341.37921495


--------------------------------------------------------------------------------------------------------




--------------------------------------- Iteration      1(  16)  ---------------------------------------


    POTLOK:  cpu time    0.4054: real time    0.4064
    SETDIJ:  cpu time    0.0338: real time    0.0339
    EDDIAG:  cpu time    6.7632: real time    6.7793
  RMM-DIIS:  cpu time   28.0028: real time   28.0690
    ORTHCH:  cpu time    0.8306: real time    0.8326
 BZINTS: Fermi energy:  3.281205;641.000000 electrons
         Band energy:-173.534673;  BLOECHL correction: -0.091997
       DOS:  cpu time    0.0172: real time    0.0172
    CHARGE:  cpu time    2.1943: real time    2.1995
    MIXING:  cpu time    0.0134: real time    0.0134
    --------------------------------------------
      LOOP:  cpu time   38.2606: real time   38.3513

 eigenvalue-minimisations  :  7708
 total energy-change (2. order) :-0.1174571E+02  (-0.7458159E+00)
 number of electron     641.0000057 magnetization      26.0119276
 augmentation part      196.9765590 magnetization      16.2924464

 Broyden mixing:
  rms(total) = 0.91839E+00    rms(broyden)= 0.91839E+00
  rms(prec ) = 0.10105E+01
  weight for this iteration     100.00

 eigenvalues of (default mixing * dielectric matrix)
  average eigenvalue GAMMA=   0.8969
  3.1953  2.3540  0.9155  0.9155  0.6398  0.6398  0.1269  0.2722  0.2722  0.3061
  0.2288

 Free energy of the ion-electron system (eV)
  ---------------------------------------------------
  alpha Z        PSCENC =      2019.82280658
  Ewald energy   TEWEN  =    124354.49493128
  -Hartree energ DENC   =   -175058.98889581
  -exchange      EXHF   =         0.00000000
  -V(xc)+E(xc)   XCENC  =       231.96398846
  PAW double counting   =     60666.47385452   -59069.23969133
  entropy T*S    EENTRO =         0.00000000
  eigenvalues    EBANDS =      -173.53467316
  atomic energy  EATOM  =     46675.88275157
  Solvation  Ediel_sol  =         0.00000000
  ---------------------------------------------------
  free energy    TOTEN  =      -353.12492789 eV

  energy without entropy =     -353.12492789  energy(sigma->0) =     -353.12492789


--------------------------------------------------------------------------------------------------------




--------------------------------------- Iteration      1(  17)  ---------------------------------------


    POTLOK:  cpu time    0.4040: real time    0.4049
    SETDIJ:  cpu time    0.0339: real time    0.0340
    EDDIAG:  cpu time    6.7789: real time    6.7950
  RMM-DIIS:  cpu time   27.8680: real time   27.9488
    ORTHCH:  cpu time    0.8257: real time    0.8278
 BZINTS: Fermi energy:  3.230669;641.000000 electrons
         Band energy:-190.776357;  BLOECHL correction: -0.124380
       DOS:  cpu time    0.0183: real time    0.0183
    CHARGE:  cpu time    2.1880: real time    2.1946
    MIXING:  cpu time    0.0136: real time    0.0137
    --------------------------------------------
      LOOP:  cpu time   38.1304: real time   38.2370

 eigenvalue-minimisations  :  7705
 total energy-change (2. order) :-0.7532203E+01  (-0.5053889E+00)
 number of electron     641.0000057 magnetization      19.5587303
 augmentation part      196.9513141 magnetization      11.4169712

 Broyden mixing:
  rms(total) = 0.77336E+00    rms(broyden)= 0.77336E+00
  rms(prec ) = 0.84958E+00
  weight for this iteration     100.00

 eigenvalues of (default mixing * dielectric matrix)
  average eigenvalue GAMMA=   1.0220
  4.8869  2.3333  1.0045  1.0045  0.7763  0.5782  0.5141  0.1269  0.2706  0.2706
  0.2667  0.2309

 Free energy of the ion-electron system (eV)
  ---------------------------------------------------
  alpha Z        PSCENC =      2019.82280658
  Ewald energy   TEWEN  =    124354.49493128
  -Hartree energ DENC   =   -175043.32810898
  -exchange      EXHF   =         0.00000000
  -V(xc)+E(xc)   XCENC  =       226.92623910
  PAW double counting   =     60617.54264962   -59021.22204283
  entropy T*S    EENTRO =         0.00000000
  eigenvalues    EBANDS =      -190.77635690
  atomic energy  EATOM  =     46675.88275157
  Solvation  Ediel_sol  =         0.00000000
  ---------------------------------------------------
  free energy    TOTEN  =      -360.65713056 eV

  energy without entropy =     -360.65713056  energy(sigma->0) =     -360.65713056


--------------------------------------------------------------------------------------------------------




--------------------------------------- Iteration      1(  18)  ---------------------------------------


    POTLOK:  cpu time    0.4040: real time    0.4049
    SETDIJ:  cpu time    0.0334: real time    0.0335
    EDDIAG:  cpu time    6.9998: real time    7.0203
  RMM-DIIS:  cpu time   27.7640: real time   27.8460
    ORTHCH:  cpu time    0.8315: real time    0.8340
 BZINTS: Fermi energy:  3.142690;641.000000 electrons
         Band energy:-238.028532;  BLOECHL correction: -0.108049
       DOS:  cpu time    0.0173: real time    0.0174
    CHARGE:  cpu time    2.1884: real time    2.1947
    MIXING:  cpu time    0.0137: real time    0.0137
    --------------------------------------------
      LOOP:  cpu time   38.2521: real time   38.3646

 eigenvalue-minimisations  :  7702
 total energy-change (2. order) :-0.4827210E+01  (-0.3803180E+00)
 number of electron     641.0000057 magnetization      15.3210229
 augmentation part      196.9428005 magnetization       8.5693137

 Broyden mixing:
  rms(total) = 0.59243E+00    rms(broyden)= 0.59242E+00
  rms(prec ) = 0.66133E+00
  weight for this iteration     100.00

 eigenvalues of (default mixing * dielectric matrix)
  average eigenvalue GAMMA=   1.0998
  6.3474  2.2934  1.0743  1.0743  0.8284  0.6001  0.6001  0.1269  0.3379  0.2703
  0.2703  0.2478  0.2257

 Free energy of the ion-electron system (eV)
  ---------------------------------------------------
  alpha Z        PSCENC =      2019.82280658
  Ewald energy   TEWEN  =    124354.49493128
  -Hartree energ DENC   =   -174997.96692130
  -exchange      EXHF   =         0.00000000
  -V(xc)+E(xc)   XCENC  =       223.51913556
  PAW double counting   =     60469.34384804   -58872.55236019
  entropy T*S    EENTRO =         0.00000000
  eigenvalues    EBANDS =      -238.02853207
  atomic energy  EATOM  =     46675.88275157
  Solvation  Ediel_sol  =         0.00000000
  ---------------------------------------------------
  free energy    TOTEN  =      -365.48434055 eV

  energy without entropy =     -365.48434055  energy(sigma->0) =     -365.48434055


--------------------------------------------------------------------------------------------------------




--------------------------------------- Iteration      1(  19)  ---------------------------------------


    POTLOK:  cpu time    0.4043: real time    0.4054
    SETDIJ:  cpu time    0.0337: real time    0.0338
    EDDIAG:  cpu time    6.7676: real time    6.7874
  RMM-DIIS:  cpu time   27.6711: real time   27.7524
    ORTHCH:  cpu time    0.8282: real time    0.8307
 BZINTS: Fermi energy:  3.075494;641.000000 electrons
         Band energy:-272.471017;  BLOECHL correction: -0.096710
       DOS:  cpu time    0.0176: real time    0.0177
    CHARGE:  cpu time    2.1863: real time    2.1925
    MIXING:  cpu time    0.0143: real time    0.0143
    --------------------------------------------
      LOOP:  cpu time   37.9231: real time   38.0343

 eigenvalue-minimisations  :  7701
 total energy-change (2. order) :-0.1979366E+01  (-0.1463778E+00)
 number of electron     641.0000057 magnetization      13.2908714
 augmentation part      197.0253053 magnetization       7.5016887

 Broyden mixing:
  rms(total) = 0.50760E+00    rms(broyden)= 0.50760E+00
  rms(prec ) = 0.56826E+00
  weight for this iteration     100.00

 eigenvalues of (default mixing * dielectric matrix)
  average eigenvalue GAMMA=   1.1104
  6.9611  2.2781  1.1882  1.1882  0.7296  0.6621  0.6621  0.4498  0.1269  0.2703
  0.2703  0.3018  0.2332  0.2236

 Free energy of the ion-electron system (eV)
  ---------------------------------------------------
  alpha Z        PSCENC =      2019.82280658
  Ewald energy   TEWEN  =    124354.49493128
  -Hartree energ DENC   =   -174963.88990097
  -exchange      EXHF   =         0.00000000
  -V(xc)+E(xc)   XCENC  =       221.85214586
  PAW double counting   =     60411.48322702   -58814.63865124
  entropy T*S    EENTRO =         0.00000000
  eigenvalues    EBANDS =      -272.47101708
  atomic energy  EATOM  =     46675.88275157
  Solvation  Ediel_sol  =         0.00000000
  ---------------------------------------------------
  free energy    TOTEN  =      -367.46370698 eV

  energy without entropy =     -367.46370698  energy(sigma->0) =     -367.46370698


--------------------------------------------------------------------------------------------------------




[...]
              65X         65Y         65Z 
 65X    -0.986136   -0.004060   -0.009832
 65Y    -0.017078   -0.952677    0.006506
 65Z     0.007210   -0.014083   -5.822387
 
 
 Eigenvectors and eigenvalues of the dynamical matrix
 ----------------------------------------------------
 
 
   1 f  =   37.722580 THz   237.017960 2PiTHz 1258.289786 cm-1   156.008106 meV
             X         Y         Z           dx          dy          dz
     10.559976  0.000014  1.115846            0           0           0  
      2.627923  1.544741  3.587902            0           0           0  
      0.012255  3.054948  6.208491            0           0           0  
      0.001572  0.006943  8.305630            0           0           0  
      9.239976  2.286321  1.115846            0           0           0  
      1.320046  3.810562  3.859595            0           0           0  
      1.320243  0.798377  5.968661            0           0           0  
      9.238767  2.284686  8.432629            0           0           0  
      1.319975  2.286321  1.115846            0           0           0  
     -1.295979  3.810673  3.587268            0           0           0  
      3.957467  0.773239  5.915912            0           0           0  
      1.320258  2.248762  8.775624            0           0           0  
      2.639975  0.000014  1.115846            0           0           0  
      0.012137  1.544805  3.587788            0           0           0  
      2.628132  3.054941  6.208484            0           0           0  
      2.638912  0.006934  8.305401            0           0           0  
      5.279976  0.000014  1.115846            0           0           0  
      7.927782  1.528544  3.532934            0           0           0  
      5.268603  3.044359  5.915601            0           0           0  
      0.000083  9.144534  8.342725            0           0           0  
      3.959975  2.286321  1.115846            0           0           0  
      6.599970  3.807619  3.502882            0           0           0  
      6.600161  0.761283  5.927836            0           0           0  
      3.961746  2.284703  8.432422            0           0           0  
      6.599975  2.286321  1.115846            0           0           0  
      3.935947  3.810604  3.587339            0           0           0  
      9.242958  0.773248  5.916114            0           0           0  
      6.600231  2.285938  8.342796            0           0           0  
      7.919975  0.000014  1.115846            0           0           0  
      5.272164  1.528520  3.532991            0           0           0  
      7.931676  3.044467  5.915640            0           0           0  
      2.640291  9.144499  8.343105            0           0           0  
      7.919976  4.572628  1.115846            0           0           0  
      0.011866  6.076046  3.587612            0           0           0  
     -2.632012  7.625029  5.845773            0           0           0  
     -2.632488  4.569268  8.305256            0           0           0  
      6.599976  6.858935  1.115846            0           0           0  
     -1.317473  8.384574  3.503014            0           0           0  
     -1.287890  5.315898  5.968243            0           0           0  
     -3.959783  6.858548  8.208550            0           0           0  
     -1.320025  6.858935  1.115846            0           0           0  
     -3.959971  8.395681  3.495068            0           0           0  
      1.320214  5.320262  6.208915            0           0           0  
     -1.313778  6.853278  8.305681            0           0           0  
     -0.000025  4.572628  1.115846            0           0           0  
     -2.629127  6.090551  3.495035            0           0           0  
      0.008910  7.612097  5.916197            0           0           0  
     -0.031733  4.590250  8.775643            0           0           0  
      2.639975  4.572628  1.115846            0           0           0  
      5.269148  6.090563  3.495123            0           0           0  
      2.631334  7.611983  5.916524            0           0           0  
      2.672290  4.590293  8.775793            0           0           0  
      1.319976  6.858935  1.115846            0           0           0  
      3.957458  8.384549  3.503105            0           0           0  
      3.928228  5.315863  5.968356            0           0           0  
      1.320312  6.860097  8.433295            0           0           0  
      3.959975  6.858935  1.115846            0           0           0  
      1.319920  8.374071  3.533420            0           0           0  
      6.600101  5.325387  5.845809            0           0           0  
      3.954374  6.853302  8.306092            0           0           0  
      5.279975  4.572628  1.115846            0           0           0  
      2.628104  6.076002  3.587757            0           0           0  
      5.272438  7.625015  5.845946            0           0           0  
      5.272975  4.569260  8.305184            0           0           0  
      1.320228  3.810344  9.787184     0.000273    0.000779    1.000000  
 
   2 f  =   15.548608 THz    97.694786 2PiTHz  518.645722 cm-1    64.303897 meV
             X         Y         Z           dx          dy          dz
     10.559976  0.000014  1.115846            0           0           0  
      2.627923  1.544741  3.587902            0           0           0  
      0.012255  3.054948  6.208491            0           0           0  
      0.001572  0.006943  8.305630            0           0           0  
      9.239976  2.286321  1.115846            0           0           0  
      1.320046  3.810562  3.859595            0           0           0  
      1.320243  0.798377  5.968661            0           0           0  
      9.238767  2.284686  8.432629            0           0           0  
      1.319975  2.286321  1.115846            0           0           0  
     -1.295979  3.810673  3.587268            0           0           0  
      3.957467  0.773239  5.915912            0           0           0  
      1.320258  2.248762  8.775624            0           0           0  
      2.639975  0.000014  1.115846            0           0           0  
      0.012137  1.544805  3.587788            0           0           0  
      2.628132  3.054941  6.208484            0           0           0  
      2.638912  0.006934  8.305401            0           0           0  
      5.279976  0.000014  1.115846            0           0           0  
      7.927782  1.528544  3.532934            0           0           0  
      5.268603  3.044359  5.915601            0           0           0  
      0.000083  9.144534  8.342725            0           0           0  
      3.959975  2.286321  1.115846            0           0           0  
      6.599970  3.807619  3.502882            0           0           0  
      6.600161  0.761283  5.927836            0           0           0  
      3.961746  2.284703  8.432422            0           0           0  
      6.599975  2.286321  1.115846            0           0           0  
      3.935947  3.810604  3.587339            0           0           0  
      9.242958  0.773248  5.916114            0           0           0  
      6.600231  2.285938  8.342796            0           0           0  
      7.919975  0.000014  1.115846            0           0           0  
      5.272164  1.528520  3.532991            0           0           0  
      7.931676  3.044467  5.915640            0           0           0  
      2.640291  9.144499  8.343105            0           0           0  
      7.919976  4.572628  1.115846            0           0           0  
      0.011866  6.076046  3.587612            0           0           0  
     -2.632012  7.625029  5.845773            0           0           0  
     -2.632488  4.569268  8.305256            0           0           0  
      6.599976  6.858935  1.115846            0           0           0  
     -1.317473  8.384574  3.503014            0           0           0  
     -1.287890  5.315898  5.968243            0           0           0  
     -3.959783  6.858548  8.208550            0           0           0  
     -1.320025  6.858935  1.115846            0           0           0  
     -3.959971  8.395681  3.495068            0           0           0  
      1.320214  5.320262  6.208915            0           0           0  
     -1.313778  6.853278  8.305681            0           0           0  
     -0.000025  4.572628  1.115846            0           0           0  
     -2.629127  6.090551  3.495035            0           0           0  
      0.008910  7.612097  5.916197            0           0           0  
     -0.031733  4.590250  8.775643            0           0           0  
      2.639975  4.572628  1.115846            0           0           0  
      5.269148  6.090563  3.495123            0           0           0  
      2.631334  7.611983  5.916524            0           0           0  
      2.672290  4.590293  8.775793            0           0           0  
      1.319976  6.858935  1.115846            0           0           0  
      3.957458  8.384549  3.503105            0           0           0  
      3.928228  5.315863  5.968356            0           0           0  
      1.320312  6.860097  8.433295            0           0           0  
      3.959975  6.858935  1.115846            0           0           0  
      1.319920  8.374071  3.533420            0           0           0  
      6.600101  5.325387  5.845809            0           0           0  
      3.954374  6.853302  8.306092            0           0           0  
      5.279975  4.572628  1.115846            0           0           0  
      2.628104  6.076002  3.587757            0           0           0  
      5.272438  7.625015  5.845946            0           0           0  
      5.272975  4.569260  8.305184            0           0           0  
      1.320228  3.810344  9.787184     0.960588    0.277975   -0.000479  
 
   3 f  =   15.234376 THz    95.720405 2PiTHz  508.164058 cm-1    63.004336 meV
             X         Y         Z           dx          dy          dz
     10.559976  0.000014  1.115846            0           0           0  
      2.627923  1.544741  3.587902            0           0           0  
      0.012255  3.054948  6.208491            0           0           0  
      0.001572  0.006943  8.305630            0           0           0  
      9.239976  2.286321  1.115846            0           0           0  
      1.320046  3.810562  3.859595            0           0           0  
      1.320243  0.798377  5.968661            0           0           0  
      9.238767  2.284686  8.432629            0           0           0  
      1.319975  2.286321  1.115846            0           0           0  
     -1.295979  3.810673  3.587268            0           0           0  
      3.957467  0.773239  5.915912            0           0           0  
      1.320258  2.248762  8.775624            0           0           0  
      2.639975  0.000014  1.115846            0           0           0  
      0.012137  1.544805  3.587788            0           0           0  
      2.628132  3.054941  6.208484            0           0           0  
      2.638912  0.006934  8.305401            0           0           0  
      5.279976  0.000014  1.115846            0           0           0  
      7.927782  1.528544  3.532934            0           0           0  
      5.268603  3.044359  5.915601            0           0           0  
      0.000083  9.144534  8.342725            0           0           0  
      3.959975  2.286321  1.115846            0           0           0  
      6.599970  3.807619  3.502882            0           0           0  
      6.600161  0.761283  5.927836            0           0           0  
      3.961746  2.284703  8.432422            0           0           0  
      6.599975  2.286321  1.115846            0           0           0  
      3.935947  3.810604  3.587339            0           0           0  
      9.242958  0.773248  5.916114            0           0           0  
      6.600231  2.285938  8.342796            0           0           0  
      7.919975  0.000014  1.115846            0           0           0  
      5.272164  1.528520  3.532991            0           0           0  
      7.931676  3.044467  5.915640            0           0           0  
      2.640291  9.144499  8.343105            0           0           0  
      7.919976  4.572628  1.115846            0           0           0  
      0.011866  6.076046  3.587612            0           0           0  
     -2.632012  7.625029  5.845773            0           0           0  
     -2.632488  4.569268  8.305256            0           0           0  
      6.599976  6.858935  1.115846            0           0           0  
     -1.317473  8.384574  3.503014            0           0           0  
     -1.287890  5.315898  5.968243            0           0           0  
     -3.959783  6.858548  8.208550            0           0           0  
     -1.320025  6.858935  1.115846            0           0           0  
     -3.959971  8.395681  3.495068            0           0           0  
      1.320214  5.320262  6.208915            0           0           0  
     -1.313778  6.853278  8.305681            0           0           0  
     -0.000025  4.572628  1.115846            0           0           0  
     -2.629127  6.090551  3.495035            0           0           0  
      0.008910  7.612097  5.916197            0           0           0  
     -0.031733  4.590250  8.775643            0           0           0  
      2.639975  4.572628  1.115846            0           0           0  
      5.269148  6.090563  3.495123            0           0           0  
      2.631334  7.611983  5.916524            0           0           0  
      2.672290  4.590293  8.775793            0           0           0  
      1.319976  6.858935  1.115846            0           0           0  
      3.957458  8.384549  3.503105            0           0           0  
      3.928228  5.315863  5.968356            0           0           0  
      1.320312  6.860097  8.433295            0           0           0  
      3.959975  6.858935  1.115846            0           0           0  
      1.319920  8.374071  3.533420            0           0           0  
      6.600101  5.325387  5.845809            0           0           0  
      3.954374  6.853302  8.306092            0           0           0  
      5.279975  4.572628  1.115846            0           0           0  
      2.628104  6.076002  3.587757            0           0           0  
      5.272438  7.625015  5.845946            0           0           0  
      5.272975  4.569260  8.305184            0           0           0  
      1.320228  3.810344  9.787184    -0.277975    0.960588   -0.000672  
 
 Finite differences POTIM=  1.500000000000000E-002
  LATTYP: Found a hexagonal cell.
 ALAT       =    10.5600004196
 C/A-ratio  =     1.8939393187
  
  Lattice vectors:
  
 A1 = (  10.5600004196,   0.0000000000,   0.0000000000)
 A2 = (  -5.2800002098,   9.1452286274,   0.0000000000)
 A3 = (   0.0000000000,   0.0000000000,  20.0000000000)


Analysis of symmetry for initial positions (statically):
=====================================================================
 Subroutine PRICEL returns:
 Original cell was already a primitive cell.
 

 Routine SETGRP: Setting up the symmetry group for a 
 hexagonal supercell.


 Subroutine GETGRP returns: Found  1 space group operations
 (whereof  1 operations were pure point group operations)
 out of a pool of 24 trial point group operations.


The static configuration has the point symmetry C_1 .


Analysis of symmetry for dynamics (positions and initial velocities):
=====================================================================
 Subroutine PRICEL returns:
 Original cell was already a primitive cell.
 

 Routine SETGRP: Setting up the symmetry group for a 
 hexagonal supercell.


 Subroutine GETGRP returns: Found  1 space group operations
 (whereof  1 operations were pure point group operations)
 out of a pool of 24 trial point group operations.


The dynamic configuration has the point symmetry C_1 .


Analysis of constrained symmetry for selective dynamics:
=====================================================================
 Subroutine PRICEL returns:
 Original cell was already a primitive cell.
 

 Routine SETGRP: Setting up the symmetry group for a 
 hexagonal supercell.


 Subroutine GETGRP returns: Found  1 space group operations
 (whereof  1 operations were pure point group operations)
 out of a pool of 24 trial point group operations.


The constrained configuration has the point symmetry C_1 .


Analysis of structural, dynamic, and magnetic symmetry:
=====================================================================
 Subroutine PRICEL returns:
 Original cell was already a primitive cell.
 

 Routine SETGRP: Setting up the symmetry group for a 
 hexagonal supercell.


 Subroutine GETGRP returns: Found  1 space group operations
 (whereof  1 operations were pure point group operations)
 out of a pool of 24 trial point group operations.


The magnetic configuration has the point symmetry C_1 .


 Subroutine INISYM returns: Found  1 space group operations
 (whereof  1 operations are pure point group operations),
 and found     1 'primitive' translations

 
 KPOINTS: mesh auto                               

Automatic generation of k-mesh.
Space group operators:
 irot       det(A)        alpha          n_x          n_y          n_z        tau_x        tau_y        tau_z
    1     1.000000     0.000000     1.000000     0.000000     0.000000     0.000000     0.000000     0.000000
 
 Subroutine IBZKPT returns following result:
 ===========================================
 
 Found      4 irreducible k-points:
 
 Following reciprocal coordinates:
            Coordinates               Weight
  0.000000  0.000000  0.000000      1.000000
  0.500000 -0.000000  0.000000      1.000000
  0.000000  0.500000  0.000000      1.000000
  0.500000  0.500000  0.000000      1.000000
 
 Following cartesian coordinates:
            Coordinates               Weight
  0.000000  0.000000  0.000000      1.000000
  0.047348  0.027337  0.000000      1.000000
  0.000000  0.054673  0.000000      1.000000
  0.047348  0.082010  0.000000      1.000000
 
 TETIRR: Found     12 inequivalent tetrahedra from       24
     LOOP+:  cpu time  340.3584: real time  341.3531
    4ORBIT:  cpu time    0.0000: real time    0.0000
 BZINTS: Fermi energy:  2.696802;641.000000 electrons
         Band energy:-505.777208;  BLOECHL correction: -0.062416

 total amount of memory used by VASP MPI-rank0   335548. kBytes
=======================================================================

   base      :      30000. kBytes
   nonlr-proj:      89259. kBytes
   fftplans  :      13334. kBytes
   grid      :     112154. kBytes
   one-center:       2021. kBytes
   wavefun   :      88780. kBytes
 
  
  
 General timing and accounting informations for this job:
 ========================================================
  
                  Total CPU time used (sec):     4048.700
                            User time (sec):     4038.785
                          System time (sec):        9.914
                         Elapsed time (sec):     4061.741
  
                   Maximum memory used (kb):      951816.
                   Average memory used (kb):           0.
  
                          Minor page faults:      1469572
                          Major page faults:            0
                 Voluntary context switches:         3837
