 vasp.5.4.4.18Apr17-6-g9f103f2a35 (build Nov 30 2020 22:55:02) complex          
  
 executed on             LinuxIFC date 2023.08.04  22:11:16
 running on   40 total cores
 distrk:  each k-point on   40 cores,    1 groups
 distr:  one band on NCORES_PER_BAND=   4 cores,   10 groups


--------------------------------------------------------------------------------------------------------


 INCAR:
 POTCAR:    PAW_PBE Pt 04Feb2005                  
 POTCAR:    PAW_PBE Cu 22Jun2005                  
 POTCAR:    PAW_PBE Ni 02Aug2007                  
 POTCAR:    PAW_PBE Fe 06Sep2000                  
 POTCAR:    PAW_PBE Co 02Aug2007                  
 POTCAR:    PAW_PBE H 15Jun2001                   
 POTCAR:    PAW_PBE Pt 04Feb2005                  
   VRHFIN =Pt: s1d9                                                             
   LEXCH  = PE                                                                  
   EATOM  =   729.1176 eV,   53.5886 Ry                                         
                                                                                
   TITEL  = PAW_PBE Pt 04Feb2005                                                
   LULTRA =        F    use ultrasoft PP ?                                      
   IUNSCR =        1    unscreen: 0-lin 1-nonlin 2-no                           
   RPACOR =    2.330    partial core radius                                     
   POMASS =  195.080; ZVAL   =   10.000    mass and valenz                      
   RCORE  =    2.600    outmost cutoff radius                                   
   RWIGS  =    2.750; RWIGS  =    1.455    wigner-seitz radius (au A)           
   ENMAX  =  230.283; ENMIN  =  172.712 eV                                      
   ICORE  =        3    local potential                                         
   LCOR   =        T    correct aug charges                                     
   LPAW   =        T    paw PP                                                  
   EAUG   =  358.966                                                            
   DEXC   =    0.000                                                            
   RMAX   =    2.658    core radius for proj-oper                               
   RAUG   =    1.300    factor for augmentation sphere                          
   RDEP   =    2.761    radius for radial grids                                 
   RDEPT  =    2.203    core radius for aug-charge                              
                                                                                
   Atomic configuration                                                         
   16 entries                                                                   
     n  l   j            E        occ.                                          
     1  0  0.50    -78401.1885   2.0000                                         
     2  0  0.50    -13770.7750   2.0000                                         
     2  1  1.50    -11931.0468   6.0000                                         
     3  0  0.50     -3234.7234   2.0000                                         
     3  1  1.50     -2699.2216   6.0000                                         
     3  2  2.50     -2119.5714  10.0000                                         
     4  0  0.50      -695.1528   2.0000                                         
     4  1  1.50      -519.6034   6.0000                                         
     4  2  2.50      -306.6786  10.0000                                         
     4  3  3.50       -70.1041  14.0000                                         
     5  0  0.50      -101.7747   2.0000                                         
     5  1  1.50       -55.9873   6.0000                                         
     5  2  2.50        -6.1423   9.0000                                         
     6  0  0.50        -5.6573   1.0000                                         
     6  1  1.50        -6.8029   0.0000                                         
     5  3  2.50        -1.3606   0.0000                                         
   Description                                                                  
     l       E           TYP  RCUT    TYP  RCUT                                 
     2     -6.1423404     23  2.500                                             
     2     -7.5029230     23  2.500                                             
     0     -5.6573207     23  2.500                                             
     0      0.7416693     23  2.500                                             
     1     -2.7211652     23  2.600                                             
     1     20.4087390     23  2.600                                             
     3     -1.3605826     23  2.500                                             
  local pseudopotential read in
  partial core-charges read in
  partial kinetic energy density read in
  atomic valenz-charges read in
  non local Contribution for L=           2  read in
    real space projection operators read in
  non local Contribution for L=           2  read in
    real space projection operators read in
  non local Contribution for L=           0  read in
    real space projection operators read in
  non local Contribution for L=           0  read in
    real space projection operators read in
  non local Contribution for L=           1  read in
    real space projection operators read in
  non local Contribution for L=           1  read in
    real space projection operators read in
    PAW grid and wavefunctions read in
 
   number of l-projection  operators is LMAX  =           6
   number of lm-projection operators is LMMAX =          18
 
 POTCAR:    PAW_PBE Cu 22Jun2005                  
   VRHFIN =Cu: d10 p1                                                           
   LEXCH  = PE                                                                  
   EATOM  =  1390.9808 eV,  102.2342 Ry                                         
                                                                                
   TITEL  = PAW_PBE Cu 22Jun2005                                                
   LULTRA =        F    use ultrasoft PP ?                                      
   IUNSCR =        1    unscreen: 0-lin 1-nonlin 2-no                           
   RPACOR =    2.000    partial core radius                                     
   POMASS =   63.546; ZVAL   =   11.000    mass and valenz                      
   RCORE  =    2.300    outmost cutoff radius                                   
   RWIGS  =    2.200; RWIGS  =    1.164    wigner-seitz radius (au A)           
   ENMAX  =  295.446; ENMIN  =  221.585 eV                                      
   ICORE  =        3    local potential                                         
   LCOR   =        T    correct aug charges                                     
   LPAW   =        T    paw PP                                                  
   EAUG   =  586.980                                                            
   DEXC   =    0.000                                                            
   RMAX   =    2.344    core radius for proj-oper                               
   RAUG   =    1.300    factor for augmentation sphere                          
   RDEP   =    2.302    radius for radial grids                                 
   RDEPT  =    1.771    core radius for aug-charge                              
                                                                                
   Atomic configuration                                                         
    9 entries                                                                   
     n  l   j            E        occ.                                          
     1  0  0.50     -8850.2468   2.0000                                         
     2  0  0.50     -1062.3498   2.0000                                         
     2  1  1.50      -916.8226   6.0000                                         
     3  0  0.50      -114.6929   2.0000                                         
     3  1  1.50       -72.1325   6.0000                                         
     3  2  2.50        -5.0394  10.0000                                         
     4  0  0.50        -4.6097   1.0000                                         
     4  1  0.50        -4.0817   0.0000                                         
     4  3  2.50        -1.3606   0.0000                                         
   Description                                                                  
     l       E           TYP  RCUT    TYP  RCUT                                 
     2     -5.0393973     23  2.200                                             
     2     10.8846608     23  2.200                                             
     0     -4.6097109     23  2.200                                             
     0      8.2520465     23  2.200                                             
     1     -2.7211652     23  2.200                                             
     1     21.7055443     23  2.200                                             
     3      2.7211652     23  2.300                                             
  local pseudopotential read in
  partial core-charges read in
  partial kinetic energy density read in
  atomic valenz-charges read in
  non local Contribution for L=           2  read in
    real space projection operators read in
  non local Contribution for L=           2  read in
    real space projection operators read in
  non local Contribution for L=           0  read in
    real space projection operators read in
  non local Contribution for L=           0  read in
    real space projection operators read in
  non local Contribution for L=           1  read in
    real space projection operators read in
  non local Contribution for L=           1  read in
    real space projection operators read in
    PAW grid and wavefunctions read in
 
   number of l-projection  operators is LMAX  =           6
   number of lm-projection operators is LMMAX =          18
 
 POTCAR:    PAW_PBE Ni 02Aug2007                  
   VRHFIN =Ni:                                                                  
   LEXCH  = PE                                                                  
   EATOM  =  1077.6739 eV,   79.2068 Ry                                         
                                                                                
   TITEL  = PAW_PBE Ni 02Aug2007                                                
   LULTRA =        F    use ultrasoft PP ?                                      
   IUNSCR =        1    unscreen: 0-lin 1-nonlin 2-no                           
   RPACOR =    2.000    partial core radius                                     
   POMASS =   58.690; ZVAL   =   10.000    mass and valenz                      
   RCORE  =    2.300    outmost cutoff radius                                   
   RWIGS  =    2.430; RWIGS  =    1.286    wigner-seitz radius (au A)           
   ENMAX  =  269.532; ENMIN  =  202.149 eV                                      
   RCLOC  =    1.201    cutoff for local pot                                    
   LCOR   =        T    correct aug charges                                     
   LPAW   =        T    paw PP                                                  
   EAUG   =  544.565                                                            
   DEXC   =    0.000                                                            
   RMAX   =    2.357    core radius for proj-oper                               
   RAUG   =    1.300    factor for augmentation sphere                          
   RDEP   =    2.390    radius for radial grids                                 
   RDEPT  =    1.838    core radius for aug-charge                              
                                                                                
   Atomic configuration                                                         
    9 entries                                                                   
     n  l   j            E        occ.                                          
     1  0  0.50     -8206.4253   2.0000                                         
     2  0  0.50      -976.1748   2.0000                                         
     2  1  1.50      -839.0571   6.0000                                         
     3  0  0.50      -105.9991   2.0000                                         
     3  1  1.50       -66.4603   6.0000                                         
     3  2  2.50        -4.6458   9.0000                                         
     4  0  0.50        -4.4926   1.0000                                         
     4  1  1.50        -4.0817   0.0000                                         
     4  3  2.50        -1.3606   0.0000                                         
   Description                                                                  
     l       E           TYP  RCUT    TYP  RCUT                                 
     2     -4.6457903     23  2.300                                             
     2     -6.0063729     23  2.300                                             
     0     -4.4925590     23  2.300                                             
     0      5.0102601     23  2.300                                             
     1     -2.7211652     23  2.300                                             
     1     16.5183231     23  2.300                                             
  local pseudopotential read in
  partial core-charges read in
  partial kinetic energy density read in
  atomic valenz-charges read in
  non local Contribution for L=           2  read in
    real space projection operators read in
  non local Contribution for L=           2  read in
    real space projection operators read in
  non local Contribution for L=           0  read in
    real space projection operators read in
  non local Contribution for L=           0  read in
    real space projection operators read in
  non local Contribution for L=           1  read in
    real space projection operators read in
  non local Contribution for L=           1  read in
    real space projection operators read in
    PAW grid and wavefunctions read in
 
   number of l-projection  operators is LMAX  =           6
   number of lm-projection operators is LMMAX =          18
 
 POTCAR:    PAW_PBE Fe 06Sep2000                  
   VRHFIN =Fe:  d7 s1                                                           
   LEXCH  = PE                                                                  
   EATOM  =   594.3153 eV,   43.6809 Ry                                         
                                                                                
   TITEL  = PAW_PBE Fe 06Sep2000                                                
   LULTRA =        F    use ultrasoft PP ?                                      
   IUNSCR =        1    unscreen: 0-lin 1-nonlin 2-no                           
   RPACOR =    2.000    partial core radius                                     
   POMASS =   55.847; ZVAL   =    8.000    mass and valenz                      
   RCORE  =    2.300    outmost cutoff radius                                   
   RWIGS  =    2.460; RWIGS  =    1.302    wigner-seitz radius (au A)           
   ENMAX  =  267.882; ENMIN  =  200.911 eV                                      
   RCLOC  =    1.701    cutoff for local pot                                    
   LCOR   =        T    correct aug charges                                     
   LPAW   =        T    paw PP                                                  
   EAUG   =  511.368                                                            
   DEXC   =    0.000                                                            
   RMAX   =    2.356    core radius for proj-oper                               
   RAUG   =    1.300    factor for augmentation sphere                          
   RDEP   =    2.442    radius for radial grids                                 
   RDEPT  =    1.890    core radius for aug-charge                              
                                                                                
   Atomic configuration                                                         
    9 entries                                                                   
     n  l   j            E        occ.                                          
     1  0  0.50     -6993.8440   2.0000                                         
     2  0  0.50      -814.6047   2.0000                                         
     2  1  1.50      -693.3689   6.0000                                         
     3  0  0.50       -89.4732   2.0000                                         
     3  1  1.50       -55.6373   6.0000                                         
     3  2  2.50        -3.8151   7.0000                                         
     4  0  0.50        -4.2551   1.0000                                         
     4  1  1.50        -3.4015   0.0000                                         
     4  3  2.50        -1.3606   0.0000                                         
   Description                                                                  
     l       E           TYP  RCUT    TYP  RCUT                                 
     2     -3.8151135     23  2.300                                             
     2     -5.1756961     23  2.300                                             
     0     -4.2550963     23  2.300                                             
     0      7.2035603     23  2.300                                             
     1     -2.7211652     23  2.300                                             
     1     18.4316424     23  2.300                                             
  local pseudopotential read in
  partial core-charges read in
  partial kinetic energy density read in
  atomic valenz-charges read in
  non local Contribution for L=           2  read in
    real space projection operators read in
  non local Contribution for L=           2  read in
    real space projection operators read in
  non local Contribution for L=           0  read in
    real space projection operators read in
  non local Contribution for L=           0  read in
    real space projection operators read in
  non local Contribution for L=           1  read in
    real space projection operators read in
  non local Contribution for L=           1  read in
    real space projection operators read in
    PAW grid and wavefunctions read in
 
   number of l-projection  operators is LMAX  =           6
   number of lm-projection operators is LMMAX =          18
 
 POTCAR:    PAW_PBE Co 02Aug2007                  
   VRHFIN =Co: d8 s1                                                            
   LEXCH  = PE                                                                  
   EATOM  =   813.3670 eV,   59.7808 Ry                                         
                                                                                
   TITEL  = PAW_PBE Co 02Aug2007                                                
   LULTRA =        F    use ultrasoft PP ?                                      
   IUNSCR =        1    unscreen: 0-lin 1-nonlin 2-no                           
   RPACOR =    2.000    partial core radius                                     
   POMASS =   58.933; ZVAL   =    9.000    mass and valenz                      
   RCORE  =    2.300    outmost cutoff radius                                   
   RWIGS  =    2.460; RWIGS  =    1.302    wigner-seitz radius (au A)           
   ENMAX  =  267.968; ENMIN  =  200.976 eV                                      
   RCLOC  =    1.203    cutoff for local pot                                    
   LCOR   =        T    correct aug charges                                     
   LPAW   =        T    paw PP                                                  
   EAUG   =  477.818                                                            
   DEXC   =    0.000                                                            
   RMAX   =    2.360    core radius for proj-oper                               
   RAUG   =    1.300    factor for augmentation sphere                          
   RDEP   =    2.393    radius for radial grids                                 
   RDEPT  =    1.864    core radius for aug-charge                              
                                                                                
   Atomic configuration                                                         
    9 entries                                                                   
     n  l   j            E        occ.                                          
     1  0  0.50     -7587.6674   2.0000                                         
     2  0  0.50      -893.6084   2.0000                                         
     2  1  1.50      -764.5805   6.0000                                         
     3  0  0.50       -97.5973   2.0000                                         
     3  1  1.50       -60.9648   6.0000                                         
     3  2  2.50        -4.2382   8.0000                                         
     4  0  0.50        -4.3746   1.0000                                         
     4  1  1.50        -4.0817   0.0000                                         
     4  3  2.50        -1.3606   0.0000                                         
   Description                                                                  
     l       E           TYP  RCUT    TYP  RCUT                                 
     2     -4.2382362     23  2.300                                             
     2     -5.5988188     23  2.300                                             
     0     -4.3745797     23  2.300                                             
     0      5.7660125     23  2.300                                             
     1     -2.7211652     23  2.300                                             
     1     16.9860234     23  2.300                                             
  local pseudopotential read in
  partial core-charges read in
  partial kinetic energy density read in
  atomic valenz-charges read in
  non local Contribution for L=           2  read in
    real space projection operators read in
  non local Contribution for L=           2  read in
    real space projection operators read in
  non local Contribution for L=           0  read in
    real space projection operators read in
  non local Contribution for L=           0  read in
    real space projection operators read in
  non local Contribution for L=           1  read in
    real space projection operators read in
  non local Contribution for L=           1  read in
    real space projection operators read in
    PAW grid and wavefunctions read in
 
   number of l-projection  operators is LMAX  =           6
   number of lm-projection operators is LMMAX =          18
 
 POTCAR:    PAW_PBE H 15Jun2001                   
   VRHFIN =H: ultrasoft test                                                    
   LEXCH  = PE                                                                  
   EATOM  =    12.4884 eV,    0.9179 Ry                                         
                                                                                
   TITEL  = PAW_PBE H 15Jun2001                                                 
   LULTRA =        F    use ultrasoft PP ?                                      
   IUNSCR =        0    unscreen: 0-lin 1-nonlin 2-no                           
   RPACOR =    0.000    partial core radius                                     
   POMASS =    1.000; ZVAL   =    1.000    mass and valenz                      
   RCORE  =    1.100    outmost cutoff radius                                   
   RWIGS  =    0.700; RWIGS  =    0.370    wigner-seitz radius (au A)           
   ENMAX  =  250.000; ENMIN  =  200.000 eV                                      
   RCLOC  =    0.701    cutoff for local pot                                    
   LCOR   =        T    correct aug charges                                     
   LPAW   =        T    paw PP                                                  
   EAUG   =  400.000                                                            
   RMAX   =    1.123    core radius for proj-oper                               
   RAUG   =    1.200    factor for augmentation sphere                          
   RDEP   =    1.112    radius for radial grids                                 
   RDEPT  =    0.926    core radius for aug-charge                              
                                                                                
   Atomic configuration                                                         
    2 entries                                                                   
     n  l   j            E        occ.                                          
     1  0  0.50        -6.4927   1.0000                                         
     2  1  0.50        -3.4015   0.0000                                         
   Description                                                                  
     l       E           TYP  RCUT    TYP  RCUT                                 
     0     -6.4927494     23  1.100                                             
     0      6.8029130     23  1.100                                             
     1     -4.0817478     23  1.100                                             
  local pseudopotential read in
  atomic valenz-charges read in
  non local Contribution for L=           0  read in
    real space projection operators read in
  non local Contribution for L=           0  read in
    real space projection operators read in
  non local Contribution for L=           1  read in
    real space projection operators read in
    PAW grid and wavefunctions read in
 
   number of l-projection  operators is LMAX  =           3
   number of lm-projection operators is LMMAX =           5
 
 Optimization of the real space projectors (new method)

 maximal supplied QI-value         = 14.36
 optimisation between [QCUT,QGAM] = [ 11.92, 23.98] = [ 39.79,161.09] Ry 
 Optimized for a Real-space Cutoff    1.49 Angstroem

   l    n(q)    QCUT    max X(q) W(low)/X(q) W(high)/X(q)  e(spline) 
   2     10    11.920    66.195    0.79E-04    0.18E-03    0.24E-06
   2     10    11.920    64.643    0.81E-04    0.19E-03    0.24E-06
   0     11    11.920    95.520    0.28E-04    0.54E-04    0.18E-06
   0     11    11.920    63.403    0.27E-04    0.52E-04    0.17E-06
   1     10    11.920    19.961    0.18E-04    0.11E-03    0.23E-06
   1     10    11.920    13.289    0.25E-04    0.87E-04    0.19E-06
 Optimization of the real space projectors (new method)

 maximal supplied QI-value         = 16.25
 optimisation between [QCUT,QGAM] = [ 11.86, 23.89] = [ 39.41,159.82] Ry 
 Optimized for a Real-space Cutoff    1.49 Angstroem

   l    n(q)    QCUT    max X(q) W(low)/X(q) W(high)/X(q)  e(spline) 
   2     10    11.864     4.610    0.10E-03    0.20E-03    0.29E-06
   2     10    11.864     8.522    0.17E-03    0.33E-03    0.50E-06
   0     11    11.864    51.609    0.52E-04    0.55E-04    0.33E-06
   0     11    11.864    27.747    0.46E-04    0.52E-04    0.31E-06
   1     10    11.864    20.408    0.54E-04    0.25E-04    0.21E-06
   1     10    11.864    13.425    0.48E-04    0.22E-04    0.18E-06
 Optimization of the real space projectors (new method)

 maximal supplied QI-value         = 16.25
 optimisation between [QCUT,QGAM] = [ 11.86, 23.89] = [ 39.41,159.82] Ry 
 Optimized for a Real-space Cutoff    1.33 Angstroem

   l    n(q)    QCUT    max X(q) W(low)/X(q) W(high)/X(q)  e(spline) 
   2      9    11.864    60.317    0.21E-03    0.51E-03    0.25E-06
   2      9    11.864    55.921    0.21E-03    0.51E-03    0.26E-06
   0      9    11.864    51.690    0.22E-03    0.30E-04    0.17E-06
   0      9    11.864    30.015    0.20E-03    0.28E-04    0.15E-06
   1      9    11.864    18.849    0.76E-04    0.33E-03    0.17E-06
   1      9    11.864    14.624    0.60E-04    0.28E-03    0.15E-06
 Optimization of the real space projectors (new method)

 maximal supplied QI-value         = 16.25
 optimisation between [QCUT,QGAM] = [ 11.86, 23.89] = [ 39.41,159.82] Ry 
 Optimized for a Real-space Cutoff    1.49 Angstroem

   l    n(q)    QCUT    max X(q) W(low)/X(q) W(high)/X(q)  e(spline) 
   2     10    11.864    80.901    0.13E-03    0.23E-03    0.37E-06
   2     10    11.864    75.754    0.13E-03    0.23E-03    0.38E-06
   0     11    11.864    58.752    0.44E-04    0.11E-04    0.20E-06
   0     11    11.864    30.679    0.36E-04    0.10E-04    0.18E-06
   1     10    11.864    17.977    0.31E-04    0.45E-04    0.10E-06
   1     10    11.864    13.559    0.25E-04    0.37E-04    0.89E-07
 Optimization of the real space projectors (new method)

 maximal supplied QI-value         = 16.25
 optimisation between [QCUT,QGAM] = [ 11.86, 23.89] = [ 39.41,159.82] Ry 
 Optimized for a Real-space Cutoff    1.33 Angstroem

   l    n(q)    QCUT    max X(q) W(low)/X(q) W(high)/X(q)  e(spline) 
   2      9    11.864    65.824    0.22E-03    0.53E-03    0.26E-06
   2      9    11.864    61.429    0.22E-03    0.53E-03    0.26E-06
   0      9    11.864    56.174    0.21E-03    0.32E-04    0.15E-06
   0      9    11.864    31.263    0.19E-03    0.30E-04    0.14E-06
   1      9    11.864    19.828    0.63E-04    0.30E-03    0.16E-06
   1      9    11.864    15.139    0.49E-04    0.25E-03    0.13E-06
 Optimization of the real space projectors (new method)

 maximal supplied QI-value         = 34.20
 optimisation between [QCUT,QGAM] = [ 11.97, 23.94] = [ 40.13,160.53] Ry 
 Optimized for a Real-space Cutoff    1.18 Angstroem

   l    n(q)    QCUT    max X(q) W(low)/X(q) W(high)/X(q)  e(spline) 
   0      8    11.971    19.460    0.15E-03    0.31E-03    0.25E-06
   0      8    11.971    12.209    0.13E-03    0.29E-03    0.25E-06
   1      8    11.971     4.655    0.22E-03    0.24E-03    0.21E-06
  PAW_PBE Pt 04Feb2005                  :
 energy of atom  1       EATOM= -729.1176
 kinetic energy error for atom=    0.0021 (will be added to EATOM!!)
  PAW_PBE Cu 22Jun2005                  :
 energy of atom  2       EATOM=-1390.9808
 kinetic energy error for atom=    0.0036 (will be added to EATOM!!)
  PAW_PBE Ni 02Aug2007                  :
 energy of atom  3       EATOM=-1077.6739
 kinetic energy error for atom=    0.0027 (will be added to EATOM!!)
  PAW_PBE Fe 06Sep2000                  :
 energy of atom  4       EATOM= -594.3153
 kinetic energy error for atom=    0.0024 (will be added to EATOM!!)
  PAW_PBE Co 02Aug2007                  :
 energy of atom  5       EATOM= -813.3670
 kinetic energy error for atom=    0.0026 (will be added to EATOM!!)
  PAW_PBE H 15Jun2001                   :
 energy of atom  6       EATOM=  -12.4884
 kinetic energy error for atom=    0.0008 (will be added to EATOM!!)
 
 
 POSCAR: 10.56                                   
  positions in direct lattice
  velocities in cartesian coordinates
 exchange correlation table for  LEXCH =        8
   RHO(1)=    0.500       N(1)  =     2000
   RHO(2)=  100.500       N(2)  =     4000
 


--------------------------------------------------------------------------------------------------------


 ion  position               nearest neighbor table
   1  0.790  0.874  0.317-  49 2.56  59 2.59  19 2.63  33 2.64  61 2.65  29 2.67  60 2.68  28 2.70
                             2 2.72   4 2.82  11 2.86  12 2.98
   2  0.044  0.881  0.316-  79 2.55  77 2.57  60 2.61  30 2.64  28 2.65  22 2.66  52 2.68   1 2.72
                            33 2.73   6 2.75   4 2.81  16 2.89
   3  0.288  0.378  0.320-  64 2.57  39 2.60  33 2.61  68 2.63  31 2.65  19 2.68  43 2.70  30 2.71
                             5 2.76  18 2.78  25 2.82  13 2.82
   4  0.879  0.958  0.423-   9 2.63  16 2.63   6 2.64  12 2.65  17 2.65  11 2.67  60 2.69   2 2.81
                             1 2.82
   5  0.129  0.457  0.426-  13 2.61  12 2.63  25 2.63  10 2.64   7 2.65  16 2.65  33 2.76   3 2.76
                            39 2.77
   6  0.129  0.958  0.421-   8 2.61  14 2.62  10 2.63   4 2.64  16 2.64   9 2.65   2 2.75  52 2.81
                            22 2.88
   7  0.881  0.451  0.424-  82 1.74   9 2.59  10 2.60  15 2.64   5 2.65  12 2.71  39 2.72  27 2.73
                            29 2.77  75 2.79
   8  0.376  0.957  0.418-   6 2.61  27 2.62  10 2.62  43 2.62  14 2.63  11 2.65  13 2.66  52 2.66
                            61 2.66
   9  0.877  0.208  0.422-   7 2.59  17 2.63   4 2.63  15 2.64  60 2.65   6 2.65  10 2.66  75 2.72
                            22 2.82
  10  0.129  0.207  0.422-   7 2.60  13 2.61   8 2.62   6 2.63   5 2.64   9 2.66  43 2.72  39 2.74
                            22 2.82
  11  0.623  0.964  0.427-  81 1.67  13 2.60  17 2.61   8 2.65   4 2.67  27 2.70  12 2.72  19 2.84
                             1 2.86  61 2.88
  12  0.881  0.707  0.433-  82 1.86  81 2.02  16 2.61   5 2.63   4 2.65   7 2.71  11 2.72  27 2.74
                            33 2.84  29 2.96   1 2.98
  13  0.375  0.209  0.427-  11 2.60  10 2.61   5 2.61   8 2.66  25 2.66  17 2.67   3 2.82  43 2.85
                            19 2.88
  14  0.377  0.709  0.427-  27 2.58   6 2.62   8 2.63  25 2.63  16 2.63  15 2.65  44 2.75  30 2.79
                            52 2.88
  15  0.627  0.458  0.423-  27 2.62  17 2.63  25 2.64   9 2.64   7 2.64  14 2.65  44 2.73  18 2.75
                            75 2.79
  16  0.128  0.708  0.426-  12 2.61  25 2.63  14 2.63   4 2.63   6 2.64   5 2.65  33 2.77  30 2.80
                             2 2.89
  17  0.628  0.208  0.424-  11 2.61   9 2.63  15 2.63   4 2.65  25 2.65  13 2.67  60 2.71  18 2.78
                            19 2.88
  18  0.555  0.370  0.317-  67 2.53  75 2.55  60 2.57  68 2.60  26 2.68  44 2.69  19 2.72  15 2.75
                            30 2.76   3 2.78  17 2.78  25 2.90
  19  0.539  0.121  0.316-  59 2.54  80 2.56  68 2.56  43 2.60  61 2.62   1 2.63   3 2.68  18 2.72
                            60 2.73  11 2.84  13 2.88  17 2.88
  20  0.547  0.122  0.038-  57 2.54  37 2.59  48 2.60  62 2.60  47 2.60  34 2.65  45 2.68  63 2.71
                            56 2.75
  21  0.124  0.462  0.127-  36 2.55  47 2.57  40 2.58  58 2.61  42 2.61  64 2.63  31 2.66  69 2.66
                            50 2.67  74 2.69  70 2.69  57 2.69
  22  0.041  0.134  0.313-  65 2.47  55 2.54  75 2.54  77 2.57  39 2.59  43 2.60  60 2.65   2 2.66
                            52 2.74  10 2.82   9 2.82   6 2.88
  23  0.032  0.135  0.034-  70 2.57  62 2.59  40 2.59  41 2.60  76 2.63  45 2.70  24 2.70  35 2.71
                            53 2.86
  24  0.127  0.955  0.132-  79 2.52  55 2.55  53 2.61  35 2.62  77 2.62  58 2.62  73 2.64  70 2.65
                            38 2.67  66 2.68  23 2.70  41 2.74
  25  0.377  0.459  0.426-  16 2.63  14 2.63   5 2.63  15 2.64  17 2.65  13 2.66   3 2.82  30 2.83
                            18 2.90
  26  0.458  0.546  0.220-  73 2.50  74 2.51  51 2.53  79 2.60  64 2.61  30 2.65  68 2.66  18 2.68
                            32 2.69  78 2.71  44 2.72  67 2.74
  27  0.621  0.709  0.429-  82 1.99  81 2.02  14 2.58   8 2.62  15 2.62  11 2.70   7 2.73  12 2.74
                            44 2.76  29 2.84  61 2.87
  28  0.964  0.793  0.218-  66 2.54  50 2.56  58 2.58  77 2.63  42 2.64   2 2.65  64 2.65  79 2.68
                             1 2.70  59 2.70  49 2.75  33 2.77
  29  0.789  0.622  0.320-  44 2.58  39 2.61  42 2.62  32 2.63  75 2.63  61 2.64  33 2.66   1 2.67
                            49 2.68   7 2.77  27 2.84  12 2.96
  30  0.294  0.631  0.319-  79 2.56  64 2.61  44 2.61  52 2.62   2 2.64  26 2.65   3 2.71  33 2.71
                            18 2.76  14 2.79  16 2.80  25 2.83
  31  0.211  0.284  0.223-  57 2.55  70 2.55  65 2.59  43 2.60  55 2.61  80 2.64   3 2.65  21 2.66
                            39 2.66  68 2.67  42 2.71  64 2.72
  32  0.717  0.537  0.221-  69 2.51  54 2.56  51 2.57  65 2.60  42 2.61  29 2.63  75 2.63  67 2.64
                            49 2.68  26 2.69  44 2.75  78 2.78
  33  0.040  0.625  0.322-  39 2.59  42 2.59   3 2.61   1 2.64  29 2.66  64 2.67  30 2.71   2 2.73
                             5 2.76  28 2.77  16 2.77  12 2.84
  34  0.797  0.870  0.037-  50 2.48  66 2.50  36 2.54  48 2.61  35 2.62  63 2.64  71 2.65  20 2.65
                            62 2.72
  35  0.044  0.872  0.035-  58 2.56  36 2.57  66 2.61  24 2.62  34 2.62  72 2.70  23 2.71  62 2.72
                            53 2.74
  36  0.039  0.631  0.035-  58 2.54  34 2.54  21 2.55  35 2.57  50 2.59  40 2.68  71 2.72  72 2.76
                            47 2.78
  37  0.626  0.214  0.133-  68 2.52  59 2.52  67 2.52  41 2.56  51 2.57  56 2.58  66 2.59  20 2.59
                            74 2.60  62 2.60  57 2.64  48 2.76
  38  0.376  0.961  0.131-  80 2.47  53 2.51  55 2.53  78 2.53  63 2.53  45 2.55  54 2.58  48 2.61
                            57 2.62  24 2.67  70 2.69  73 2.69
  39  0.041  0.379  0.320-  33 2.59  22 2.59  42 2.60   3 2.60  29 2.61  75 2.63  31 2.66  65 2.66
                            43 2.71   7 2.72  10 2.74   5 2.77
  40  0.040  0.377  0.033-  69 2.55  21 2.58  23 2.59  76 2.61  70 2.61  45 2.66  71 2.67  36 2.68
                            47 2.81
  41  0.868  0.215  0.131-  67 2.47  65 2.53  76 2.53  77 2.53  37 2.56  51 2.56  62 2.57  69 2.59
                            23 2.60  70 2.61  66 2.63  24 2.74
  42  0.960  0.545  0.225-  33 2.59  39 2.60  50 2.61  32 2.61  21 2.61  29 2.62  28 2.64  64 2.65
                            69 2.68  65 2.69  49 2.70  31 2.71
  43  0.293  0.119  0.319-  52 2.54  55 2.56  22 2.60  31 2.60  19 2.60  61 2.61   8 2.62  80 2.64
                             3 2.70  39 2.71  10 2.72  13 2.85
  44  0.541  0.631  0.322-  61 2.55  52 2.56  29 2.58  30 2.61  78 2.65  18 2.69  26 2.72  75 2.73
                            15 2.73  14 2.75  32 2.75  27 2.76
  45  0.292  0.126  0.037-  38 2.55  57 2.57  70 2.59  40 2.66  53 2.66  20 2.68  23 2.70  47 2.70
                            63 2.74
  46  0.545  0.626  0.042-  73 2.43  51 2.44  54 2.47  71 2.53  53 2.54  76 2.54  63 2.55  72 2.56
                            56 2.56
  47  0.307  0.374  0.039-  74 2.45  57 2.52  56 2.54  21 2.57  20 2.60  72 2.62  45 2.70  36 2.78
                            40 2.81
  48  0.628  0.952  0.133-  49 2.43  80 2.48  59 2.50  63 2.52  50 2.54  54 2.54  20 2.60  34 2.61
                            66 2.61  38 2.61  57 2.66  37 2.76
  49  0.701  0.798  0.223-  48 2.43  54 2.51  80 2.51  61 2.56  78 2.56   1 2.56  50 2.57  59 2.60
                            32 2.68  29 2.68  42 2.70  28 2.75
  50  0.866  0.710  0.128-  71 2.42  34 2.48  48 2.54  28 2.56  49 2.57  54 2.58  36 2.59  42 2.61
                            69 2.64  21 2.67  66 2.71  58 2.84
  51  0.625  0.458  0.128-  56 2.42  76 2.43  46 2.44  26 2.53  41 2.56  37 2.57  32 2.57  74 2.58
                            73 2.62  69 2.63  67 2.64  54 2.70
  52  0.301  0.875  0.316-  78 2.45  55 2.49  79 2.51  61 2.51  43 2.54  44 2.56  30 2.62   8 2.66
                             2 2.68  22 2.74   6 2.81  14 2.88
  53  0.306  0.867  0.039-  73 2.44  38 2.51  46 2.54  63 2.56  72 2.59  24 2.61  45 2.66  35 2.74
                            23 2.86
  54  0.619  0.716  0.132-  63 2.41  71 2.47  46 2.47  49 2.51  78 2.53  48 2.54  32 2.56  38 2.58
                            50 2.58  73 2.61  51 2.70  69 2.72
  55  0.216  0.035  0.224-  52 2.49  78 2.50  79 2.52  38 2.53  22 2.54  24 2.55  43 2.56  80 2.59
                            31 2.61  70 2.62  65 2.68  77 2.79
  56  0.541  0.385  0.039-  51 2.42  74 2.47  72 2.50  47 2.54  46 2.56  37 2.58  76 2.61  62 2.65
                            20 2.75
  57  0.379  0.208  0.130-  47 2.52  20 2.54  31 2.55  68 2.55  80 2.56  45 2.57  38 2.62  37 2.64
                            74 2.66  48 2.66  21 2.69  70 2.75
  58  0.140  0.700  0.126-  72 2.40  74 2.53  36 2.54  73 2.54  35 2.56  28 2.58  21 2.61  64 2.62
                            24 2.62  79 2.68  50 2.84  66 2.84
  59  0.703  0.043  0.222-  48 2.50  37 2.52  19 2.54  66 2.57  77 2.58   1 2.59  49 2.60  80 2.61
                            68 2.61  67 2.65  28 2.70  60 2.72
  60  0.795  0.125  0.323-  18 2.57  77 2.57  75 2.59   2 2.61  67 2.62   9 2.65  22 2.65   1 2.68
                             4 2.69  17 2.71  59 2.72  19 2.73
  61  0.540  0.872  0.318-  78 2.47  52 2.51  44 2.55  49 2.56  80 2.58  43 2.61  19 2.62  29 2.64
                             1 2.65   8 2.66  27 2.87  11 2.88
  62  0.789  0.132  0.036-  66 2.52  41 2.57  23 2.59  20 2.60  37 2.60  56 2.65  76 2.70  35 2.72
                            34 2.72
  63  0.550  0.865  0.041-  54 2.41  71 2.50  48 2.52  38 2.53  46 2.55  53 2.56  34 2.64  20 2.71
                            45 2.74
  64  0.213  0.540  0.225-   3 2.57  74 2.59  68 2.60  30 2.61  26 2.61  58 2.62  21 2.63  42 2.65
                            28 2.65  33 2.67  79 2.71  31 2.72
  65  0.963  0.290  0.222-  70 2.46  22 2.47  41 2.53  69 2.59  31 2.59  32 2.60  67 2.61  75 2.61
                            77 2.63  39 2.66  55 2.68  42 2.69
  66  0.867  0.966  0.127-  34 2.50  62 2.52  28 2.54  59 2.57  77 2.58  37 2.59  35 2.61  48 2.61
                            41 2.63  24 2.68  50 2.71  58 2.84
  67  0.718  0.287  0.225-  77 2.44  41 2.47  37 2.52  18 2.53  75 2.53  65 2.61  60 2.62  51 2.64
                            32 2.64  59 2.65  68 2.70  26 2.74
  68  0.459  0.293  0.224-  37 2.52  57 2.55  19 2.56  74 2.58  18 2.60  64 2.60  59 2.61   3 2.63
                            26 2.66  31 2.67  67 2.70  80 2.73
  69  0.874  0.457  0.127-  76 2.36  71 2.40  32 2.51  40 2.55  65 2.59  70 2.59  41 2.59  51 2.63
                            50 2.64  21 2.66  42 2.68  54 2.72
  70  0.117  0.210  0.130-  65 2.46  31 2.55  23 2.57  69 2.59  45 2.59  41 2.61  40 2.61  55 2.62
                            24 2.65  38 2.69  21 2.69  57 2.75
  71  0.785  0.626  0.043-  69 2.40  50 2.42  54 2.47  76 2.50  63 2.50  46 2.53  34 2.65  40 2.67
                            36 2.72
  72  0.304  0.623  0.041-  73 2.38  58 2.40  74 2.44  56 2.50  46 2.56  53 2.59  47 2.62  35 2.70
                            36 2.76
  73  0.377  0.706  0.128-  72 2.38  46 2.43  53 2.44  26 2.50  58 2.54  74 2.59  79 2.60  54 2.61
                            51 2.62  24 2.64  78 2.68  38 2.69
  74  0.379  0.460  0.129-  72 2.44  47 2.45  56 2.47  26 2.51  58 2.53  51 2.58  68 2.58  73 2.59
                            64 2.59  37 2.60  57 2.66  21 2.69
  75  0.797  0.370  0.318-  67 2.53  22 2.54  18 2.55  60 2.59  65 2.61  39 2.63  32 2.63  29 2.63
                             9 2.72  44 2.73  15 2.79   7 2.79
  76  0.788  0.388  0.041-  69 2.36  51 2.43  71 2.50  41 2.53  46 2.54  40 2.61  56 2.61  23 2.63
                            62 2.70
  77  0.944  0.051  0.223-  67 2.44  41 2.53   2 2.57  60 2.57  22 2.57  66 2.58  59 2.58  24 2.62
                            65 2.63  28 2.63  55 2.79  79 2.79
  78  0.457  0.803  0.225-  52 2.45  80 2.47  61 2.47  55 2.50  38 2.53  54 2.53  49 2.56  79 2.58
                            44 2.65  73 2.68  26 2.71  32 2.78
  79  0.216  0.795  0.225-  52 2.51  24 2.52  55 2.52   2 2.55  30 2.56  78 2.58  73 2.60  26 2.60
                            58 2.68  28 2.68  64 2.71  77 2.79
  80  0.461  0.034  0.222-  78 2.47  38 2.47  48 2.48  49 2.51  19 2.56  57 2.56  61 2.58  55 2.59
                            59 2.61  43 2.64  31 2.64  68 2.73
  81  0.689  0.827  0.477-  11 1.67  12 2.02  27 2.02
  82  0.811  0.600  0.473-   7 1.74  12 1.86  27 1.99
 
  LATTYP: Found a hexagonal cell.
 ALAT       =    10.5600004196
 C/A-ratio  =     2.0833332505
  
  Lattice vectors:
  
 A1 = (   5.2800002098,  -9.1452286274,   0.0000000000)
 A2 = ( -10.5600004196,   0.0000000000,   0.0000000000)
 A3 = (   0.0000000000,   0.0000000000, -22.0000000000)


Analysis of symmetry for initial positions (statically):
=====================================================================
 Subroutine PRICEL returns:
 Original cell was already a primitive cell.
 

 Routine SETGRP: Setting up the symmetry group for a 
 hexagonal supercell.


 Subroutine GETGRP returns: Found  1 space group operations
 (whereof  1 operations were pure point group operations)
 out of a pool of 24 trial point group operations.


The static configuration has the point symmetry C_1 .


Analysis of symmetry for dynamics (positions and initial velocities):
=====================================================================
 Subroutine PRICEL returns:
 Original cell was already a primitive cell.
 

 Routine SETGRP: Setting up the symmetry group for a 
 hexagonal supercell.


 Subroutine GETGRP returns: Found  1 space group operations
 (whereof  1 operations were pure point group operations)
 out of a pool of 24 trial point group operations.


The dynamic configuration has the point symmetry C_1 .


Analysis of constrained symmetry for selective dynamics:
=====================================================================
 Subroutine PRICEL returns:
 Original cell was already a primitive cell.
 

 Routine SETGRP: Setting up the symmetry group for a 
 hexagonal supercell.


 Subroutine GETGRP returns: Found  1 space group operations
 (whereof  1 operations were pure point group operations)
 out of a pool of 24 trial point group operations.


The constrained configuration has the point symmetry C_1 .


Analysis of structural, dynamic, and magnetic symmetry:
=====================================================================
 Subroutine PRICEL returns:
 Original cell was already a primitive cell.
 

 Routine SETGRP: Setting up the symmetry group for a 
 hexagonal supercell.


 Subroutine GETGRP returns: Found  1 space group operations
 (whereof  1 operations were pure point group operations)
 out of a pool of 24 trial point group operations.


The magnetic configuration has the point symmetry C_1 .


 Subroutine INISYM returns: Found  1 space group operations
 (whereof  1 operations are pure point group operations),
 and found     1 'primitive' translations

 
 
 KPOINTS: mesh auto                               

Automatic generation of k-mesh.
Space group operators:
 irot       det(A)        alpha          n_x          n_y          n_z        tau_x        tau_y        tau_z
    1     1.000000     0.000001     1.000000     0.000000     0.000000     0.000000     0.000000     0.000000
 
 Subroutine IBZKPT returns following result:
 ===========================================
 
 Found      4 irreducible k-points:
 
 Following reciprocal coordinates:
            Coordinates               Weight
  0.000000  0.000000  0.000000      1.000000
  0.500000  0.000000  0.000000      1.000000
  0.000000  0.500000  0.000000      1.000000
  0.500000  0.500000  0.000000      1.000000
 
 Following cartesian coordinates:
            Coordinates               Weight
  0.000000  0.000000  0.000000      1.000000
  0.047348 -0.027337  0.000000      1.000000
  0.000000  0.054673  0.000000      1.000000
  0.047348  0.027337  0.000000      1.000000
 


--------------------------------------------------------------------------------------------------------




 Dimension of arrays:
   k-points           NKPTS =      4   k-points in BZ     NKDIM =      4   number of bands    NBANDS=    590
   number of dos      NEDOS =    301   number of ions     NIONS =     82
   non local maximal  LDIM  =      6   non local SUM 2l+1 LMDIM =     18
   total plane-waves  NPLWV = ******
   max r-space proj   IRMAX =   7802   max aug-charges    IRDMAX=  33988
   dimension x,y,z NGX =    84 NGY =   84 NGZ =  168
   dimension x,y,z NGXF=   168 NGYF=  168 NGZF=  336
   support grid    NGXF=   168 NGYF=  168 NGZF=  336
   ions per type =              32  13  10  13  12   2
   NGX,Y,Z   is equivalent  to a cutoff of  13.22, 13.22, 12.70 a.u.
   NGXF,Y,Z  is equivalent  to a cutoff of  26.45, 26.45, 25.39 a.u.

 SYSTEM =  Pt111                                   
 POSCAR =  10.56                                   

 Startparameter for this run:
   NWRITE =      2    write-flag & timer
   PREC   = accura    normal or accurate (medium, high low for compatibility)
   ISTART =      0    job   : 0-new  1-cont  2-samecut
   ICHARG =      2    charge: 1-file 2-atom 10-const
   ISPIN  =      2    spin polarized calculation?
   LNONCOLLINEAR =      F non collinear calculations
   LSORBIT =      F    spin-orbit coupling
   INIWAV =      1    electr: 0-lowe 1-rand  2-diag
   LASPH  =      F    aspherical Exc in radial PAW
   METAGGA=      F    non-selfconsistent MetaGGA calc.

 Electronic Relaxation 1
   ENCUT  =  550.0 eV  40.42 Ry    6.36 a.u.  20.19 20.19 42.07*2*pi/ulx,y,z
   ENINI  =  550.0     initial cutoff
   ENAUG  =  587.0 eV  augmentation charge cutoff
   NELM   =    200;   NELMIN=  2; NELMDL= -5     # of ELM steps 
   EDIFF  = 0.1E-04   stopping-criterion for ELM
   LREAL  =      T    real-space projection
   NLSPLINE    = F    spline interpolate recip. space projectors
   LCOMPAT=      F    compatible to vasp.4.4
   GGA_COMPAT  = T    GGA compatible to vasp.4.4-vasp.4.6
   LMAXPAW     = -100 max onsite density
   LMAXMIX     =    2 max onsite mixed and CHGCAR
   VOSKOWN=      0    Vosko Wilk Nusair interpolation
   ROPT   =   -0.00025  -0.00025  -0.00025  -0.00025
   ROPT   =   -0.00025  -0.00025
 Ionic relaxation
   EDIFFG = -.1E+00   stopping-criterion for IOM
   NSW    =    300    number of steps for IOM
   NBLOCK =      1;   KBLOCK =    300    inner block; outer block 
   IBRION =      1    ionic relax: 0-MD 1-quasi-New 2-CG
   NFREE  =      0    steps in history (QN), initial steepest desc. (CG)
   ISIF   =      2    stress and relaxation
   IWAVPR =     11    prediction:  0-non 1-charg 2-wave 3-comb
   ISYM   =      2    0-nonsym 1-usesym 2-fastsym
   LCORR  =      T    Harris-Foulkes like correction to forces

   POTIM  = 0.5000    time-step for ionic-motion
   TEIN   =    0.0    initial temperature
   TEBEG  =    0.0;   TEEND  =   0.0 temperature during run
   SMASS  =  -3.00    Nose mass-parameter (am)
   estimated Nose-frequenzy (Omega)   =  0.10E-29 period in steps =****** mass=  -0.255E-26a.u.
   SCALEE = 1.0000    scale energy and forces
   NPACO  =    256;   APACO  = 16.0  distance and # of slots for P.C.
   PSTRESS=    0.0 pullay stress

  Mass of Ions in am
   POMASS = 195.08 63.55 58.69 55.85 58.93  1.00
  Ionic Valenz
   ZVAL   =  10.00 11.00 10.00  8.00  9.00  1.00
  Atomic Wigner-Seitz radii
   RWIGS  =  -1.00 -1.00 -1.00 -1.00 -1.00 -1.00
  virtual crystal weights 
   VCA    =   1.00  1.00  1.00  1.00  1.00  1.00
   NELECT =     777.0000    total number of electrons
   NUPDOWN=      -1.0000    fix difference up-down

 DOS related values:
   EMIN   =  10.00;   EMAX   =-10.00  energy-range for DOS
   EFERMI =   0.00
   ISMEAR =     1;   SIGMA  =   0.10  broadening in eV -4-tet -1-fermi 0-gaus

 Electronic relaxation 2 (details)
   IALGO  =     68    algorithm
   LDIAG  =      T    sub-space diagonalisation (order eigenvalues)
   LSUBROT=      F    optimize rotation matrix (better conditioning)
   TURBO    =      0    0=normal 1=particle mesh
   IRESTART =      0    0=no restart 2=restart with 2 vectors
   NREBOOT  =      0    no. of reboots
   NMIN     =      0    reboot dimension
   EREF     =   0.00    reference energy to select bands
   IMIX   =      4    mixing-type and parameters
     AMIX     =   0.40;   BMIX     =  1.00
     AMIX_MAG =   1.60;   BMIX_MAG =  1.00
     AMIN     =   0.10
     WC   =   100.;   INIMIX=   1;  MIXPRE=   1;  MAXMIX= -45

 Intra band minimization:
   WEIMIN = 0.0010     energy-eigenvalue tresh-hold
   EBREAK =  0.42E-08  absolut break condition
   DEPER  =   0.30     relativ break condition  

   TIME   =   0.40     timestep for ELM

  volume/ion in A,a.u.               =      25.91       174.85
  Fermi-wavevector in a.u.,A,eV,Ry     =   1.170725  2.212349 18.648095  1.370596
  Thomas-Fermi vector in A             =   2.307179
 
 Write flags
   LWAVE        =      F    write WAVECAR
   LDOWNSAMPLE  =      F    k-point downsampling of WAVECAR
   LCHARG       =      F    write CHGCAR
   LVTOT        =      F    write LOCPOT, total local potential
   LVHAR        =      F    write LOCPOT, Hartree potential only
   LELF         =      F    write electronic localiz. function (ELF)
   LORBIT       =      0    0 simple, 1 ext, 2 COOP (PROOUT), +10 PAW based schemes


 Dipole corrections
   LMONO  =      F    monopole corrections only (constant potential shift)
   LDIPOL =      F    correct potential (dipole corrections)
   IDIPOL =      0    1-x, 2-y, 3-z, 4-all directions 
   EPSILON=  1.0000000 bulk dielectric constant

 Exchange correlation treatment:
   GGA     =    --    GGA type
   LEXCH   =     8    internal setting for exchange type
   VOSKOWN=      0    Vosko Wilk Nusair interpolation
   LHFCALC =     F    Hartree Fock is set to
   LHFONE  =     F    Hartree Fock one center treatment
   AEXX    =    0.0000 exact exchange contribution

 Linear response parameters
   LEPSILON=     F    determine dielectric tensor
   LRPA    =     F    only Hartree local field effects (RPA)
   LNABLA  =     F    use nabla operator in PAW spheres
   LVEL    =     F    velocity operator in full k-point grid
   LINTERFAST=   F  fast interpolation
   KINTER  =     0    interpolate to denser k-point grid
   CSHIFT  =0.1000    complex shift for real part using Kramers Kronig
   OMEGAMAX=  -1.0    maximum frequency
   DEG_THRESHOLD= 0.2000000E-02 threshold for treating states as degnerate
   RTIME   =   -0.100 relaxation time in fs
  (WPLASMAI=    0.000 imaginary part of plasma frequency in eV, 0.658/RTIME)
   DFIELD  = 0.0000000 0.0000000 0.0000000 field for delta impulse in time
 
 Orbital magnetization related:
   ORBITALMAG=     F  switch on orbital magnetization
   LCHIMAG   =     F  perturbation theory with respect to B field
   DQ        =  0.001000  dq finite difference perturbation B field
   LLRAUG    =     F  two centre corrections for induced B field



--------------------------------------------------------------------------------------------------------


 quasi-Newton-method for relaxation of ions
   using selective dynamics as specified on POSCAR
 charge density and potential will be updated during run
 spin polarized calculation
 RMM-DIIS sequential band-by-band and
  variant of blocked Davidson during initial phase
 perform sub-space diagonalisation
    before iterative eigenvector-optimisation
 modified Broyden-mixing scheme, WC =      100.0
 initial mixing is a Kerker type mixing with AMIX =  0.4000 and BMIX =      1.0000
 Hartree-type preconditioning will be used
 using additional bands          201
 real space projection scheme for non local part
 use partial core corrections
 calculate Harris-corrections to forces 
   (improved forces if not selfconsistent)
 use gradient corrections 
 use of overlap-Matrix (Vanderbilt PP)
 Methfessel and Paxton  Order N= 1 SIGMA  =   0.10


--------------------------------------------------------------------------------------------------------


  energy-cutoff  :      550.00
  volume of cell :     2124.62
      direct lattice vectors                 reciprocal lattice vectors
    10.560000420  0.000000000  0.000000000     0.094696966 -0.054673319  0.000000000
     5.280000210  9.145228627  0.000000000     0.000000000  0.109346638  0.000000000
     0.000000000  0.000000000 22.000000000     0.000000000  0.000000000  0.045454545

  length of vectors
    10.560000420 10.560000420 22.000000000     0.109346638  0.109346638  0.045454545


 
 k-points in units of 2pi/SCALE and weight: mesh auto                               
   0.00000000  0.00000000  0.00000000       0.250
   0.04734848 -0.02733666  0.00000000       0.250
   0.00000000  0.05467332  0.00000000       0.250
   0.04734848  0.02733666  0.00000000       0.250
 
 k-points in reciprocal lattice and weights: mesh auto                               
   0.00000000  0.00000000  0.00000000       0.250
   0.50000000  0.00000000  0.00000000       0.250
   0.00000000  0.50000000  0.00000000       0.250
   0.50000000  0.50000000  0.00000000       0.250
 
 position of ions in fractional coordinates (direct lattice) 
   0.79037481  0.87427894  0.31677438
   0.04428330  0.88078305  0.31584821
   0.28799468  0.37755504  0.31971547
   0.87860653  0.95798500  0.42332726
   0.12854825  0.45676046  0.42603134
   0.12899203  0.95750763  0.42144447
   0.88058982  0.45108244  0.42446127
   0.37611476  0.95740493  0.41758181
   0.87675164  0.20781704  0.42160678
   0.12913572  0.20664095  0.42238017
   0.62268220  0.96371356  0.42670012
   0.88128159  0.70690016  0.43295226
   0.37481639  0.20874716  0.42714491
   0.37666913  0.70871166  0.42689249
   0.62695920  0.45761771  0.42318122
   0.12758680  0.70812865  0.42593582
   0.62771969  0.20822679  0.42438153
   0.55489754  0.36999210  0.31742668
   0.53864294  0.12112374  0.31560689
   0.54745577  0.12241455  0.03835403
   0.12360644  0.46198687  0.12740666
   0.04065175  0.13420609  0.31315808
   0.03235129  0.13482511  0.03441534
   0.12671306  0.95484959  0.13162708
   0.37653736  0.45944743  0.42648053
   0.45779299  0.54562474  0.22008560
   0.62141793  0.70854982  0.42911967
   0.96413863  0.79272622  0.21761397
   0.78946431  0.62234384  0.32038029
   0.29382875  0.63098896  0.31918975
   0.21123592  0.28374023  0.22269626
   0.71709822  0.53685317  0.22058810
   0.04007853  0.62454639  0.32200304
   0.79720004  0.86975892  0.03740235
   0.04406258  0.87221915  0.03450723
   0.03926108  0.63118460  0.03512204
   0.62574752  0.21423502  0.13267817
   0.37608349  0.96104394  0.13055742
   0.04064723  0.37935446  0.32040912
   0.03961706  0.37680314  0.03348892
   0.86761936  0.21521963  0.13097207
   0.95962679  0.54542694  0.22473188
   0.29325869  0.11920954  0.31904850
   0.54086982  0.63092095  0.32204635
   0.29178315  0.12606023  0.03725420
   0.54545151  0.62597825  0.04206242
   0.30678791  0.37356804  0.03912988
   0.62788283  0.95185769  0.13263039
   0.70142059  0.79820208  0.22280830
   0.86633517  0.71047377  0.12834734
   0.62467538  0.45773867  0.12814478
   0.30116408  0.87501236  0.31581967
   0.30615091  0.86696452  0.03949459
   0.61892989  0.71603521  0.13157826
   0.21580132  0.03462027  0.22396955
   0.54130035  0.38549347  0.03924212
   0.37935969  0.20774149  0.13048593
   0.13970060  0.70042731  0.12601187
   0.70329280  0.04306983  0.22237866
   0.79524300  0.12485947  0.32256431
   0.54038935  0.87229004  0.31766482
   0.78866377  0.13163117  0.03568706
   0.55002307  0.86477454  0.04096764
   0.21334288  0.54014670  0.22460931
   0.96280137  0.28964998  0.22158834
   0.86740749  0.96641026  0.12740667
   0.71753219  0.28687300  0.22453182
   0.45915719  0.29304584  0.22376919
   0.87387308  0.45689803  0.12677291
   0.11726506  0.21049175  0.13008946
   0.78478084  0.62565658  0.04309165
   0.30446760  0.62284293  0.04138738
   0.37746416  0.70582480  0.12774454
   0.37902910  0.46003850  0.12899471
   0.79650195  0.36977146  0.31792564
   0.78782398  0.38752064  0.04111567
   0.94385566  0.05104212  0.22344851
   0.45702340  0.80263442  0.22502694
   0.21629647  0.79533135  0.22474012
   0.46108857  0.03393525  0.22161390
   0.68939578  0.82709800  0.47713030
   0.81076694  0.60042376  0.47333062
 
 position of ions in cartesian coordinates  (Angst):
  12.96255128  7.99548075  6.96903626
   5.11816631  8.05496233  6.94866054
   5.03471468  3.45282719  7.03374038
  14.33624636  8.76099182  9.31319969
   3.76916494  4.17717888  9.37268954
   6.41779636  8.75662620  9.27177833
  11.68074428  4.12525203  9.33814800
   9.02687026  8.75568701  9.18679987
  10.35577169  1.90053430  9.27534915
   2.45473746  1.88977872  9.29236367
  11.66393204  8.81338082  9.38740258
  13.03876698  6.46476358  9.52494969
   5.06024628  1.90904051  9.39718808
   7.71962389  6.48133013  9.39163469
   9.03691102  4.18501857  9.30998684
   5.08623604  6.47599842  9.37058795
   7.72815763  1.90428158  9.33639369
   7.81327659  3.38366236  6.98338686
   6.32760304  1.10770433  6.94335149
   6.42748199  1.11950902  0.84378857
   3.74457485  4.22497551  2.80294662
   1.13789071  1.22734538  6.88947769
   1.05350625  1.23300646  0.75713746
   6.37969601  8.73231780  2.89579587
   6.40211717  4.20175178  9.38257174
   7.71519296  4.98986301  4.84188323
  10.30331682  6.47985013  9.44063266
  14.36689896  7.24966250  4.78750741
  11.62271907  5.69147671  7.04836645
   6.43445356  5.77053833  7.02217439
   3.72879985  2.59486929  4.89931774
  10.40714241  4.90964500  4.85293829
   3.72083438  5.71161949  7.08406690
  13.01076010  7.95414421  0.82285169
   5.07061818  7.97664351  0.75915899
   3.74725186  5.77232751  0.77268479
   7.73905501  1.95922823  2.91891969
   9.04575401  8.78896659  2.87226322
   2.43222638  3.46928327  7.04900073
   2.40787681  3.44595088  0.73675630
  10.29842047  1.96823277  2.88138548
  13.01351367  4.98805409  4.94410139
   3.72623832  1.09019848  7.01906702
   9.04284827  5.76991634  7.08501973
   3.74682824  1.15284966  0.81959249
   9.06513349  5.72471418  0.92537331
   5.21211980  3.41636512  0.86085731
  11.65625177  8.70495616  2.91786869
  11.62150883  7.29974048  4.90178269
  12.89980144  6.49744505  2.82364142
   9.01343253  4.18612478  2.81918506
   7.80035828  8.00218810  6.94803272
   7.81052654  7.92858872  0.86888091
  10.31656596  6.54830568  2.89472164
   2.46165709  0.31661030  4.92733016
   7.75153750  3.52542591  0.86332671
   5.10291361  1.89984346  2.87069041
   5.17349471  6.40556785  2.77226120
   7.65418102  0.39388344  4.89233061
   9.05702445  1.14186837  7.09641489
  10.31220335  7.97729184  6.98862598
   9.02330237  1.20379713  0.78511532
  10.37425363  7.90856090  0.90128811
   5.10487562  4.93976509  4.94140483
  11.69653478  2.64891530  4.87494337
  14.26246981  8.83804282  2.80294666
   9.09182970  2.62351917  4.93970002
   6.39598222  2.67997121  4.92292219
  11.64052176  4.17843690  2.78900405
   2.34971562  1.92499520  2.86196808
  11.59075286  5.72177244  0.94801637
   6.50378879  5.69604102  0.91052233
   7.71277679  6.45492912  2.81037998
   6.43155077  4.20715724  2.83788366
  10.36345427  3.38164452  6.99436406
  10.36553066  3.54396488  0.90454481
  10.23661853  0.46679185  4.91586728
   9.06407717  7.34027527  4.95059278
   6.48344052  7.27348698  4.94428261
   5.04827358  0.31034563  4.87550584
  11.64709729  7.56400031 10.49686650
  11.73193674  5.49101251 10.41327373
 


--------------------------------------------------------------------------------------------------------


 k-point  1 :   0.0000 0.0000 0.0000  plane waves:   62167
 k-point  2 :   0.5000 0.0000 0.0000  plane waves:   62242
 k-point  3 :   0.0000 0.5000 0.0000  plane waves:   62242
 k-point  4 :   0.5000 0.5000 0.0000  plane waves:   62242

 maximum and minimum number of plane-waves per node :     15586    15521

 maximum number of plane-waves:     62242
 maximum index in each direction: 
   IXMAX=   20   IYMAX=   20   IZMAX=   42
   IXMIN=  -20   IYMIN=  -20   IZMIN=  -42


 real space projection operators:
  total allocation   :      77953.14 KBytes
  max/ min on nodes  :      19507.23      19461.21


 parallel 3D FFT for wavefunctions:
    minimum data exchange during FFTs selected (reduces bandwidth)
 parallel 3D FFT for charge:
    minimum data exchange during FFTs selected (reduces bandwidth)


 total amount of memory used by VASP MPI-rank0   259329. kBytes
=======================================================================

   base      :      30000. kBytes
   nonlr-proj:      34875. kBytes
   fftplans  :      17962. kBytes
   grid      :      55536. kBytes
   one-center:        653. kBytes
   wavefun   :     120303. kBytes
 
     INWAV:  cpu time    0.0000: real time    0.0000
 Broyden mixing: mesh for mixing (old mesh)
   NGX = 41   NGY = 41   NGZ = 85
  (NGX  =168   NGY  =168   NGZ  =336)
  gives a total of 142885 points

 initial charge density was supplied:
 charge density of overlapping atoms calculated
 number of electron     777.0000000 magnetization     233.0000000
 keeping initial charge density in first step


--------------------------------------------------------------------------------------------------------


 Maximum index for non-local projection operator         1903
 Maximum index for augmentation-charges         2130 (set IRDMAX)


--------------------------------------------------------------------------------------------------------


 First call to EWALD:  gamma=   0.138
 Maximum number of real-space cells 4x 4x 2
 Maximum number of reciprocal cells 2x 2x 4

    FEWALD:  cpu time    0.0035: real time    0.0035


--------------------------------------- Iteration      1(   1)  ---------------------------------------


    POTLOK:  cpu time    0.4201: real time    0.4263
    SETDIJ:  cpu time    0.0321: real time    0.0325
     EDDAV:  cpu time   67.6730: real time   67.8551
       DOS:  cpu time    0.0018: real time    0.0018
    --------------------------------------------
      LOOP:  cpu time   68.1270: real time   68.3159

 eigenvalue-minimisations  :  9440
 total energy-change (2. order) : 0.7898219E+04  (-0.3287007E+05)
 number of electron     777.0000000 magnetization     233.0000000
 augmentation part      777.0000000 magnetization     233.0000000

 Free energy of the ion-electron system (eV)
  ---------------------------------------------------
  alpha Z        PSCENC =      2234.09968810
  Ewald energy   TEWEN  =    216822.39679560
  -Hartree energ DENC   =   -288570.16413993
  -exchange      EXHF   =         0.00000000
  -V(xc)+E(xc)   XCENC  =      1362.71200395
  PAW double counting   =     63653.44143483   -65527.67614270
  entropy T*S    EENTRO =         0.00326429
  eigenvalues    EBANDS =      8220.87788260
  atomic energy  EATOM  =     69702.52868514
  Solvation  Ediel_sol  =         0.00000000
  ---------------------------------------------------
  free energy    TOTEN  =      7898.21947189 eV

  energy without entropy =     7898.21620760  energy(sigma->0) =     7898.21838379


--------------------------------------------------------------------------------------------------------




--------------------------------------- Iteration      1(   2)  ---------------------------------------


     EDDAV:  cpu time   67.6244: real time   67.7933
       DOS:  cpu time    0.0019: real time    0.0019
    --------------------------------------------
      LOOP:  cpu time   67.6263: real time   67.7952

 eigenvalue-minimisations  :  9440
 total energy-change (2. order) :-0.7054457E+04  (-0.6302324E+04)
 number of electron     777.0000000 magnetization     233.0000000
 augmentation part      777.0000000 magnetization     233.0000000

 Free energy of the ion-electron system (eV)
  ---------------------------------------------------
  alpha Z        PSCENC =      2234.09968810
  Ewald energy   TEWEN  =    216822.39679560
  -Hartree energ DENC   =   -288570.16413993
  -exchange      EXHF   =         0.00000000
  -V(xc)+E(xc)   XCENC  =      1362.71200395
  PAW double counting   =     63653.44143483   -65527.67614270
  entropy T*S    EENTRO =         0.00694156
  eigenvalues    EBANDS =      1166.41683785
  atomic energy  EATOM  =     69702.52868514
  Solvation  Ediel_sol  =         0.00000000
  ---------------------------------------------------
  free energy    TOTEN  =       843.76210441 eV

  energy without entropy =      843.75516285  energy(sigma->0) =      843.75979056


--------------------------------------------------------------------------------------------------------




--------------------------------------- Iteration      1(   3)  ---------------------------------------


     EDDAV:  cpu time   67.4304: real time   67.5928
       DOS:  cpu time    0.0021: real time    0.0021
    --------------------------------------------
      LOOP:  cpu time   67.4325: real time   67.5950

 eigenvalue-minimisations  :  9440
 total energy-change (2. order) :-0.1224213E+04  (-0.9912665E+03)
 number of electron     777.0000000 magnetization     233.0000000
 augmentation part      777.0000000 magnetization     233.0000000

 Free energy of the ion-electron system (eV)
  ---------------------------------------------------
  alpha Z        PSCENC =      2234.09968810
  Ewald energy   TEWEN  =    216822.39679560
  -Hartree energ DENC   =   -288570.16413993
  -exchange      EXHF   =         0.00000000
  -V(xc)+E(xc)   XCENC  =      1362.71200395
  PAW double counting   =     63653.44143483   -65527.67614270
  entropy T*S    EENTRO =         0.00002179
  eigenvalues    EBANDS =       -57.78888199
  atomic energy  EATOM  =     69702.52868514
  Solvation  Ediel_sol  =         0.00000000
  ---------------------------------------------------
  free energy    TOTEN  =      -380.45053519 eV

  energy without entropy =     -380.45055699  energy(sigma->0) =     -380.45054246


--------------------------------------------------------------------------------------------------------




--------------------------------------- Iteration      1(   4)  ---------------------------------------


     EDDAV:  cpu time   79.8592: real time   80.0627
       DOS:  cpu time    0.0021: real time    0.0021
    --------------------------------------------
      LOOP:  cpu time   79.8613: real time   80.0648

 eigenvalue-minimisations  : 11740
 total energy-change (2. order) :-0.1179386E+03  (-0.1084958E+03)
 number of electron     777.0000000 magnetization     233.0000000
 augmentation part      777.0000000 magnetization     233.0000000

 Free energy of the ion-electron system (eV)
  ---------------------------------------------------
  alpha Z        PSCENC =      2234.09968810
  Ewald energy   TEWEN  =    216822.39679560
  -Hartree energ DENC   =   -288570.16413993
  -exchange      EXHF   =         0.00000000
  -V(xc)+E(xc)   XCENC  =      1362.71200395
  PAW double counting   =     63653.44143483   -65527.67614270
  entropy T*S    EENTRO =         0.00489851
  eigenvalues    EBANDS =      -175.73233706
  atomic energy  EATOM  =     69702.52868514
  Solvation  Ediel_sol  =         0.00000000
  ---------------------------------------------------
  free energy    TOTEN  =      -498.38911355 eV

  energy without entropy =     -498.39401206  energy(sigma->0) =     -498.39074639


--------------------------------------------------------------------------------------------------------




--------------------------------------- Iteration      1(   5)  ---------------------------------------


     EDDAV:  cpu time   76.8010: real time   77.0025
       DOS:  cpu time    0.0021: real time    0.0021
    CHARGE:  cpu time    4.2941: real time    4.3068
    MIXING:  cpu time    0.0099: real time    0.0108
    --------------------------------------------
      LOOP:  cpu time   81.1072: real time   81.3223

 eigenvalue-minimisations  : 11160
 total energy-change (2. order) :-0.4413225E+01  (-0.4379229E+01)
 number of electron     777.0000027 magnetization     218.1643154
 augmentation part      332.9635591 magnetization     186.9728414

 Broyden mixing:
  rms(total) = 0.11886E+02    rms(broyden)= 0.11886E+02
  rms(prec ) = 0.12186E+02
  weight for this iteration     100.00

 Free energy of the ion-electron system (eV)
  ---------------------------------------------------
  alpha Z        PSCENC =      2234.09968810
  Ewald energy   TEWEN  =    216822.39679560
  -Hartree energ DENC   =   -288570.16413993
  -exchange      EXHF   =         0.00000000
  -V(xc)+E(xc)   XCENC  =      1362.71200395
  PAW double counting   =     63653.44143483   -65527.67614270
  entropy T*S    EENTRO =         0.00495766
  eigenvalues    EBANDS =      -180.14562118
  atomic energy  EATOM  =     69702.52868514
  Solvation  Ediel_sol  =         0.00000000
  ---------------------------------------------------
  free energy    TOTEN  =      -502.80233853 eV

  energy without entropy =     -502.80729618  energy(sigma->0) =     -502.80399108


--------------------------------------------------------------------------------------------------------




--------------------------------------- Iteration      1(   6)  ---------------------------------------


    POTLOK:  cpu time    0.4042: real time    0.4054
    SETDIJ:  cpu time    0.0327: real time    0.0328
    EDDIAG:  cpu time   11.6477: real time   11.6780
  RMM-DIIS:  cpu time   40.7862: real time   40.8840
    ORTHCH:  cpu time    1.3157: real time    1.3190
       DOS:  cpu time    0.0020: real time    0.0020
    CHARGE:  cpu time    4.2083: real time    4.2185
    MIXING:  cpu time    0.0095: real time    0.0099
    --------------------------------------------
      LOOP:  cpu time   58.4064: real time   58.5497

 eigenvalue-minimisations  :  9539
 total energy-change (2. order) :-0.1281987E+03  (-0.8706948E+02)
 number of electron     777.0000036 magnetization     213.8154881
 augmentation part      401.3622804 magnetization     180.0222251

 Broyden mixing:
  rms(total) = 0.18045E+02    rms(broyden)= 0.18045E+02
  rms(prec ) = 0.23806E+02
  weight for this iteration     100.00

 eigenvalues of (default mixing * dielectric matrix)
  average eigenvalue GAMMA=   0.2595
  0.2595

 Free energy of the ion-electron system (eV)
  ---------------------------------------------------
  alpha Z        PSCENC =      2234.09968810
  Ewald energy   TEWEN  =    216822.39679560
  -Hartree energ DENC   =   -286998.33544129
  -exchange      EXHF   =         0.00000000
  -V(xc)+E(xc)   XCENC  =      1315.03663944
  PAW double counting   =     68847.21913361   -70512.67023343
  entropy T*S    EENTRO =         0.00113926
  eigenvalues    EBANDS =     -2041.27749240
  atomic energy  EATOM  =     69702.52868514
  Solvation  Ediel_sol  =         0.00000000
  ---------------------------------------------------
  free energy    TOTEN  =      -631.00108597 eV

  energy without entropy =     -631.00222522  energy(sigma->0) =     -631.00146572


--------------------------------------------------------------------------------------------------------




--------------------------------------- Iteration      1(   7)  ---------------------------------------


    POTLOK:  cpu time    0.4034: real time    0.4044
    SETDIJ:  cpu time    0.0327: real time    0.0328
    EDDIAG:  cpu time   11.6388: real time   11.6666
  RMM-DIIS:  cpu time   40.4996: real time   40.5962
    ORTHCH:  cpu time    1.3128: real time    1.3160
       DOS:  cpu time    0.0020: real time    0.0020
    CHARGE:  cpu time    4.2095: real time    4.2196
    MIXING:  cpu time    0.0093: real time    0.0093
    --------------------------------------------
      LOOP:  cpu time   58.1081: real time   58.2468

 eigenvalue-minimisations  :  9451
 total energy-change (2. order) : 0.7288957E+02  (-0.1679966E+02)
 number of electron     777.0000030 magnetization     208.1573737
 augmentation part      360.0803207 magnetization     164.9030832

 Broyden mixing:
  rms(total) = 0.15492E+02    rms(broyden)= 0.15492E+02
  rms(prec ) = 0.20563E+02
  weight for this iteration     100.00

 eigenvalues of (default mixing * dielectric matrix)
  average eigenvalue GAMMA=   0.3154
  0.4782  0.1527

 Free energy of the ion-electron system (eV)
  ---------------------------------------------------
  alpha Z        PSCENC =      2234.09968810
  Ewald energy   TEWEN  =    216822.39679560
  -Hartree energ DENC   =   -287744.13751392
  -exchange      EXHF   =         0.00000000
  -V(xc)+E(xc)   XCENC  =      1334.73930115
  PAW double counting   =     69983.60569145   -71820.58679901
  entropy T*S    EENTRO =        -0.00061117
  eigenvalues    EBANDS =     -1070.75675592
  atomic energy  EATOM  =     69702.52868514
  Solvation  Ediel_sol  =         0.00000000
  ---------------------------------------------------
  free energy    TOTEN  =      -558.11151858 eV

  energy without entropy =     -558.11090741  energy(sigma->0) =     -558.11131485


--------------------------------------------------------------------------------------------------------




--------------------------------------- Iteration      1(   8)  ---------------------------------------


    POTLOK:  cpu time    0.4042: real time    0.4051
    SETDIJ:  cpu time    0.0327: real time    0.0328
    EDDIAG:  cpu time   11.6407: real time   11.6689
  RMM-DIIS:  cpu time   40.5506: real time   40.6530
    ORTHCH:  cpu time    1.3376: real time    1.3408
       DOS:  cpu time    0.0021: real time    0.0021
    CHARGE:  cpu time    4.1470: real time    4.1569
    MIXING:  cpu time    0.0110: real time    0.0110
    --------------------------------------------
      LOOP:  cpu time   58.1258: real time   58.2706

 eigenvalue-minimisations  :  9453
 total energy-change (2. order) : 0.5181965E+02  (-0.1183322E+02)
 number of electron     777.0000033 magnetization     202.2111418
 augmentation part      365.2020913 magnetization     160.1689689

 Broyden mixing:
  rms(total) = 0.16647E+02    rms(broyden)= 0.16647E+02
  rms(prec ) = 0.19487E+02
  weight for this iteration     100.00

 eigenvalues of (default mixing * dielectric matrix)
  average eigenvalue GAMMA=   0.3187
  0.6265  0.2402  0.0894

 Free energy of the ion-electron system (eV)
  ---------------------------------------------------
  alpha Z        PSCENC =      2234.09968810
  Ewald energy   TEWEN  =    216822.39679560
  -Hartree energ DENC   =   -288023.29198698
  -exchange      EXHF   =         0.00000000
  -V(xc)+E(xc)   XCENC  =      1341.96337373
  PAW double counting   =     71507.15930881   -73430.42111790
  entropy T*S    EENTRO =        -0.01196678
  eigenvalues    EBANDS =      -660.71464858
  atomic energy  EATOM  =     69702.52868514
  Solvation  Ediel_sol  =         0.00000000
  ---------------------------------------------------
  free energy    TOTEN  =      -506.29186885 eV

  energy without entropy =     -506.27990207  energy(sigma->0) =     -506.28787992


--------------------------------------------------------------------------------------------------------




--------------------------------------- Iteration      1(   9)  ---------------------------------------


    POTLOK:  cpu time    0.4049: real time    0.4058
    SETDIJ:  cpu time    0.0329: real time    0.0330
    EDDIAG:  cpu time   11.6374: real time   11.6654
  RMM-DIIS:  cpu time   40.5265: real time   40.6227
    ORTHCH:  cpu time    1.4989: real time    1.5025
       DOS:  cpu time    0.0022: real time    0.0022
    CHARGE:  cpu time    4.1709: real time    4.1808
    MIXING:  cpu time    0.0100: real time    0.0101
    --------------------------------------------
      LOOP:  cpu time   58.2837: real time   58.4225

 eigenvalue-minimisations  :  9474
 total energy-change (2. order) : 0.1157403E+03  (-0.1257153E+02)
 number of electron     777.0000026 magnetization     194.7420281
 augmentation part      368.0651694 magnetization     152.2651813

 Broyden mixing:
  rms(total) = 0.12951E+02    rms(broyden)= 0.12951E+02
  rms(prec ) = 0.15185E+02
  weight for this iteration     100.00

 eigenvalues of (default mixing * dielectric matrix)
  average eigenvalue GAMMA=   0.3818
  0.9695  0.3209  0.0988  0.1380

 Free energy of the ion-electron system (eV)
  ---------------------------------------------------
  alpha Z        PSCENC =      2234.09968810
  Ewald energy   TEWEN  =    216822.39679560
  -Hartree energ DENC   =   -287673.85013936
  -exchange      EXHF   =         0.00000000
  -V(xc)+E(xc)   XCENC  =      1357.00073337
  PAW double counting   =     72786.54457252   -74745.88061695
  entropy T*S    EENTRO =        -0.01501499
  eigenvalues    EBANDS =      -873.37628709
  atomic energy  EATOM  =     69702.52868514
  Solvation  Ediel_sol  =         0.00000000
[...]
   -.111E+03 0.227E+01 -.143E+04   0.111E+03 -.217E+01 0.143E+04   0.276E+00 -.967E-01 0.295E+01   -.128E-01 -.216E-02 0.217E-01
   0.452E+01 -.208E+02 -.284E+04   -.427E+01 0.211E+02 0.284E+04   -.262E+00 -.270E+00 0.114E+01   0.648E-02 -.720E-02 0.852E-02
   -.273E+02 0.202E+01 -.293E+04   0.276E+02 -.213E+01 0.293E+04   -.326E+00 0.142E+00 0.101E+01   -.819E-02 0.516E-02 0.113E-01
   0.349E+02 -.102E+02 -.288E+04   -.348E+02 0.101E+02 0.288E+04   -.407E-01 0.129E+00 0.850E+00   -.267E-02 0.261E-02 0.102E-01
   0.294E+02 0.195E+02 -.289E+04   -.295E+02 -.202E+02 0.289E+04   0.516E-01 0.685E+00 0.254E-01   0.731E-02 -.102E-02 0.106E-01
   -.164E+02 0.154E+01 -.287E+04   0.161E+02 -.170E+01 0.287E+04   0.244E+00 0.207E+00 0.175E+01   -.528E-02 0.144E-02 0.954E-02
   0.243E+02 0.283E+02 -.287E+04   -.247E+02 -.281E+02 0.286E+04   0.261E+00 -.248E+00 0.163E+01   0.911E-02 -.977E-02 0.714E-02
   0.255E+02 0.218E+02 -.292E+04   -.254E+02 -.218E+02 0.292E+04   -.935E-01 0.300E-01 0.739E+00   -.466E-02 -.422E-02 0.854E-02
   -.262E+02 -.292E+02 -.284E+04   0.259E+02 0.292E+02 0.284E+04   0.233E+00 0.372E-01 -.121E+01   0.133E-02 -.902E-02 0.860E-02
   -.144E+02 -.429E+02 -.291E+04   0.162E+02 0.424E+02 0.291E+04   -.180E+01 0.481E+00 0.550E+00   0.476E-02 0.157E-02 0.955E-02
   -.453E+02 0.259E+00 -.292E+04   0.452E+02 -.161E+00 0.292E+04   0.918E-01 -.108E+00 0.714E+00   -.108E-01 -.500E-02 0.100E-01
   0.301E+02 0.237E+01 -.294E+04   -.300E+02 -.242E+01 0.294E+04   -.768E-01 0.404E-01 0.936E+00   -.341E-02 0.122E-01 0.121E-01
   0.165E+02 0.393E+02 -.288E+04   -.167E+02 -.394E+02 0.288E+04   0.175E+00 0.132E+00 0.104E+01   0.839E-02 0.172E-02 0.113E-01
   -.127E+02 -.249E+02 -.289E+04   0.127E+02 0.247E+02 0.289E+04   -.420E-01 0.119E+00 0.785E+00   -.702E-02 0.944E-02 0.122E-01
   0.473E+00 0.769E+01 -.285E+04   -.168E+00 -.776E+01 0.285E+04   -.340E+00 0.677E-01 0.122E+01   0.622E-02 -.108E-01 0.904E-02
   0.470E+02 0.458E+02 -.140E+04   -.453E+02 -.468E+02 0.140E+04   -.177E+01 0.110E+01 0.275E+01   0.106E-01 -.639E-02 0.151E-01
   -.900E+02 -.313E+02 -.141E+04   0.897E+02 0.300E+02 0.141E+04   0.228E+00 0.128E+01 0.327E+01   0.376E-03 -.130E-01 0.152E-01
   -.228E+02 -.236E+02 0.300E+04   0.228E+02 0.239E+02 -.300E+04   -.270E-01 -.291E+00 -.198E+01   0.485E-02 -.245E-02 -.595E-02
   -.723E+02 0.214E+02 0.148E+04   0.728E+02 -.210E+02 -.148E+04   -.592E+00 -.319E+00 -.888E-01   0.770E-02 -.422E-02 -.155E-01
   0.996E+02 0.250E+02 -.139E+04   -.100E+03 -.238E+02 0.139E+04   0.600E+00 -.111E+01 0.330E+01   0.227E-02 -.360E-02 0.145E-01
   0.349E+02 0.500E+02 0.303E+04   -.355E+02 -.488E+02 -.303E+04   0.674E+00 -.118E+01 -.221E+01   -.169E-02 -.748E-02 0.138E-02
   0.908E+02 0.348E+01 0.147E+04   -.909E+02 -.473E+01 -.147E+04   0.640E-01 0.125E+01 -.114E+01   -.419E-02 0.718E-02 -.131E-01
   -.168E+02 0.242E+02 -.288E+04   0.167E+02 -.242E+02 0.288E+04   0.175E+00 -.112E+00 0.613E+00   -.768E-02 0.760E-02 0.130E-01
   0.504E+02 0.601E+02 0.259E+02   -.515E+02 -.601E+02 -.276E+02   0.110E+01 -.413E-01 0.170E+01   0.485E-02 0.291E-02 0.111E-01
   -.769E+01 -.140E+02 -.291E+04   0.549E+01 0.141E+02 0.291E+04   0.223E+01 -.132E+00 0.129E+01   0.525E-02 0.539E-02 0.977E-02
   -.612E+02 -.364E+02 0.115E+03   0.616E+02 0.364E+02 -.117E+03   -.432E+00 -.716E-01 0.179E+01   0.442E-02 0.862E-02 -.338E-02
   0.109E+02 -.482E+02 -.152E+04   -.113E+02 0.483E+02 0.152E+04   0.500E+00 -.964E-01 0.251E+01   0.392E-02 0.144E-02 0.228E-01
   0.392E+02 0.554E+02 -.144E+04   -.392E+02 -.545E+02 0.144E+04   0.328E-01 -.801E+00 0.272E+01   -.401E-02 0.757E-02 0.252E-01
   -.794E+02 -.509E+02 0.850E+02   0.796E+02 0.501E+02 -.860E+02   -.181E+00 0.725E+00 0.104E+01   -.152E-01 -.162E-01 -.331E-02
   0.449E+02 0.463E+02 0.120E+02   -.442E+02 -.474E+02 -.129E+02   -.676E+00 0.119E+01 0.105E+01   -.126E-02 -.534E-02 0.246E-01
   -.618E+02 -.786E+02 -.164E+04   0.615E+02 0.783E+02 0.163E+04   0.356E+00 0.414E+00 0.110E+01   -.529E-02 0.503E-02 0.259E-01
   0.103E+02 -.904E+02 0.332E+04   -.107E+02 0.905E+02 -.331E+04   0.332E+00 -.159E-01 -.234E+01   0.166E-01 0.936E-02 -.107E-01
   -.328E+02 -.506E+02 0.329E+04   0.322E+02 0.502E+02 -.328E+04   0.730E+00 0.491E+00 -.291E+01   -.328E-02 -.834E-03 0.281E-02
   -.545E+02 0.438E+02 0.331E+04   0.546E+02 -.435E+02 -.331E+04   -.183E+00 -.316E+00 -.359E+01   0.149E-01 0.829E-02 -.522E-02
   0.519E+02 0.291E+02 0.158E+04   -.519E+02 -.291E+02 -.158E+04   -.778E-01 -.207E-01 -.134E+01   0.101E-01 -.233E-01 -.157E-01
   0.210E+02 -.655E+02 0.168E+04   -.204E+02 0.652E+02 -.168E+04   -.630E+00 0.165E+00 -.928E+00   -.137E-01 0.245E-01 -.622E-02
   0.158E+02 0.117E+02 -.161E+04   -.163E+02 -.119E+02 0.161E+04   0.551E+00 0.120E+00 0.123E+01   -.165E-02 -.608E-02 0.204E-01
   -.319E+02 0.349E+01 0.335E+04   0.303E+02 -.378E+01 -.335E+04   0.155E+01 0.337E+00 -.325E+01   0.118E-01 -.117E-01 -.974E-02
   0.368E+01 0.812E+02 0.163E+04   -.398E+01 -.809E+02 -.163E+04   0.351E+00 -.397E+00 -.113E+01   0.194E-02 -.291E-01 -.115E-01
   -.559E+02 0.110E+02 0.355E+02   0.557E+02 -.107E+02 -.357E+02   0.117E+00 -.291E+00 0.101E+00   0.102E-01 -.327E-02 0.178E-01
   -.728E+02 -.389E+02 -.162E+04   0.727E+02 0.382E+02 0.162E+04   0.192E+00 0.816E+00 0.176E+01   -.104E-01 -.537E-02 0.119E-01
   0.358E+01 0.683E+02 -.164E+04   -.325E+01 -.674E+02 0.163E+04   -.357E+00 -.988E+00 0.929E+00   0.591E-02 0.675E-02 0.210E-01
   -.374E+02 -.244E+01 0.331E+04   0.379E+02 0.194E+01 -.330E+04   -.449E+00 0.482E+00 -.279E+01   -.757E-02 0.264E-02 0.355E-02
   0.203E+02 0.215E+02 0.304E+04   -.203E+02 -.214E+02 -.304E+04   -.987E-01 -.108E+00 -.634E+00   -.717E-02 0.753E-02 -.229E-01
   -.197E+02 0.565E+01 0.297E+04   0.213E+02 -.576E+01 -.297E+04   -.168E+01 0.114E+00 -.211E+01   -.861E-02 0.785E-03 -.115E-01
   -.669E+02 -.114E+03 0.148E+04   0.670E+02 0.114E+03 -.148E+04   -.106E+00 0.505E+00 -.918E+00   0.555E-02 0.155E-01 -.101E-01
   -.687E+02 -.125E+02 -.556E+02   0.680E+02 0.131E+02 0.550E+02   0.754E+00 -.768E+00 0.602E+00   0.451E-02 0.129E-01 0.172E-01
   -.110E+03 -.208E+00 0.148E+04   0.110E+03 0.594E+00 -.148E+04   0.373E-01 -.430E+00 -.460E+00   0.265E-01 0.129E-01 -.152E-01
   0.419E+02 0.322E+02 0.148E+04   -.418E+02 -.317E+02 -.148E+04   -.341E-01 -.365E+00 0.601E-01   -.590E-02 -.135E-01 -.819E-02
   0.713E+02 0.248E+02 -.146E+04   -.710E+02 -.250E+02 0.146E+04   -.448E+00 0.250E+00 0.169E+01   0.255E-02 0.147E-01 0.181E-01
   0.456E+02 -.349E+02 0.303E+04   -.448E+02 0.336E+02 -.303E+04   -.860E+00 0.132E+01 -.198E+01   -.104E-01 0.902E-02 -.786E-02
   0.166E+02 0.362E+02 0.146E+04   -.161E+02 -.361E+02 -.146E+04   -.444E+00 -.158E+00 -.408E+00   -.422E-02 0.174E-01 -.102E-01
   0.800E+02 -.484E+02 0.482E+02   -.798E+02 0.481E+02 -.481E+02   -.203E+00 0.310E+00 -.186E+00   0.125E-02 0.127E-01 -.173E-02
   0.868E+01 0.563E+02 0.244E+04   -.838E+01 -.558E+02 -.244E+04   -.318E+00 -.542E+00 -.281E+01   -.283E-02 -.897E-02 -.152E-01
   -.199E+02 -.500E+02 0.117E+04   0.200E+02 0.504E+02 -.116E+04   -.881E-01 -.325E+00 -.759E+00   -.139E-01 -.722E-02 -.111E-01
   0.223E+02 -.149E+02 0.118E+04   -.219E+02 0.146E+02 -.117E+04   -.402E+00 0.355E+00 -.775E+00   -.568E-02 0.102E-01 -.175E-01
   -.508E+02 -.409E+02 -.208E+02   0.509E+02 0.414E+02 0.205E+02   -.145E+00 -.595E+00 0.307E+00   0.855E-02 -.270E-02 0.296E-02
   0.439E+02 0.144E+02 -.117E+04   -.436E+02 -.142E+02 0.117E+04   -.253E+00 -.157E+00 0.123E+01   0.558E-02 -.511E-02 0.866E-02
   -.820E+02 -.711E+01 -.120E+04   0.819E+02 0.728E+01 0.120E+04   0.115E+00 -.156E+00 0.167E+01   -.118E-02 0.381E-02 0.149E-01
   0.160E+02 -.145E+02 0.243E+04   -.163E+02 0.149E+02 -.243E+04   0.238E+00 -.377E+00 -.327E+01   0.304E-02 -.944E-02 -.490E-02
   -.137E+02 -.507E+02 0.245E+04   0.136E+02 0.496E+02 -.245E+04   0.119E+00 0.116E+01 -.278E+01   -.107E-02 0.937E-02 -.115E-01
   -.299E+02 0.261E+01 0.306E+02   0.305E+02 -.272E+01 -.308E+02   -.556E+00 0.688E-01 0.959E-01   -.110E-01 0.798E-02 -.136E-02
   0.256E+02 0.344E+01 0.377E+02   -.261E+02 -.397E+01 -.377E+02   0.495E+00 0.544E+00 -.535E-01   0.623E-02 -.174E-01 0.672E-02
   -.377E+02 0.646E+01 0.120E+04   0.374E+02 -.620E+01 -.120E+04   0.205E+00 -.277E+00 -.110E+01   0.798E-02 0.469E-03 -.125E-01
   0.507E+02 0.183E+02 -.625E+02   -.505E+02 -.190E+02 0.632E+02   -.130E+00 0.824E+00 -.796E+00   0.595E-02 -.137E-01 0.851E-02
   -.443E+01 -.121E+02 -.306E+01   0.460E+01 0.117E+02 0.253E+01   -.157E+00 0.392E+00 0.458E+00   -.276E-03 -.123E-01 0.305E-02
   -.409E+02 0.276E+02 0.135E+04   0.409E+02 -.275E+02 -.135E+04   0.106E-01 -.224E-01 -.134E+00   0.128E-01 -.173E-01 -.106E-01
   -.237E+02 -.794E+01 0.134E+04   0.240E+02 0.852E+01 -.134E+04   -.257E+00 -.581E+00 -.978E+00   0.759E-02 -.160E-01 -.572E-02
   -.680E+01 -.107E+01 0.272E+04   0.563E+01 0.154E+01 -.271E+04   0.111E+01 -.449E+00 -.236E+01   0.956E-02 0.609E-02 -.256E-01
   0.349E+02 0.198E+02 0.270E+04   -.340E+02 -.201E+02 -.269E+04   -.815E+00 0.320E+00 -.277E+01   -.169E-01 0.125E-01 -.858E-02
   0.710E+02 0.300E+01 0.132E+04   -.712E+02 -.320E+01 -.132E+04   0.270E+00 0.228E+00 0.447E-02   -.181E-01 0.151E-01 -.153E-01
   0.640E+02 0.287E+02 0.130E+04   -.642E+02 -.286E+02 -.130E+04   0.217E+00 -.119E+00 -.825E-01   -.142E-01 0.741E-02 -.192E-01
   0.526E+02 0.251E+02 -.128E+04   -.528E+02 -.255E+02 0.128E+04   0.224E+00 0.418E+00 0.120E+01   0.398E-02 -.875E-02 0.137E-01
   0.498E+02 0.555E+02 0.274E+04   -.505E+02 -.549E+02 -.274E+04   0.653E+00 -.566E+00 -.182E+01   -.217E-03 -.172E-01 -.202E-01
   0.491E+02 0.316E+02 0.427E+01   -.497E+02 -.310E+02 -.430E+01   0.615E+00 -.616E+00 -.270E-01   -.525E-03 0.235E-02 0.178E-02
   0.189E+02 0.789E+02 -.131E+02   -.188E+02 -.780E+02 0.134E+02   -.435E-01 -.103E+01 -.428E+00   -.213E-02 0.171E-01 0.116E-01
   0.102E+03 0.474E+02 0.366E+02   -.101E+03 -.472E+02 -.368E+02   -.591E+00 -.219E+00 0.709E-01   -.496E-02 0.143E-01 -.252E-02
   -.800E+02 -.104E+03 0.148E+02   0.805E+02 0.104E+03 -.150E+02   -.433E+00 0.355E+00 0.141E+00   -.107E-01 0.123E-02 0.321E-02
   0.551E+00 0.204E+01 -.346E+03   -.598E+00 -.290E+01 0.347E+03   0.332E-01 0.868E+00 -.186E+01   0.542E-03 -.365E-03 -.332E-03
   0.358E+01 0.422E+00 -.346E+03   -.372E+01 -.908E-01 0.348E+03   0.236E+00 -.349E+00 -.174E+01   0.820E-03 0.393E-03 -.210E-03
 -----------------------------------------------------------------------------------------------
   -.687E+00 -.207E+01 0.692E+00   0.665E-12 0.799E-14 0.426E-11   0.696E+00 0.204E+01 -.872E+00   0.112E-02 0.182E-01 0.199E+00
 
 
 POSITION                                       TOTAL-FORCE (eV/Angst)
 -----------------------------------------------------------------------------------
     12.96255      7.99548      6.96904        -0.000948      0.000378      0.001209
      5.11817      8.05496      6.94866        -0.001106      0.000247     -0.000787
      5.03471      3.45283      7.03374        -0.001320     -0.000024     -0.000583
     14.33625      8.76099      9.31320        -0.001948     -0.001445     -0.001053
      3.76916      4.17718      9.37269         0.002294     -0.000447     -0.001972
      6.41780      8.75663      9.27178         0.000744      0.001596     -0.000291
     11.68074      4.12525      9.33815        -0.010136      0.006849      0.007690
      9.02687      8.75569      9.18680        -0.002166      0.000517      0.002951
     10.35577      1.90053      9.27535         0.003127      0.002646     -0.004285
      2.45474      1.88978      9.29236        -0.000212     -0.003410      0.000953
     11.66393      8.81338      9.38740        -0.002302     -0.003772      0.005570
     13.03877      6.46476      9.52495        -0.008231      0.003934      0.013075
      5.06025      1.90904      9.39719        -0.002003      0.000776     -0.000603
      7.71962      6.48133      9.39163         0.002789      0.001164      0.002027
      9.03691      4.18502      9.30999         0.004920      0.005378      0.003259
      5.08624      6.47600      9.37059         0.002022      0.000550     -0.000868
      7.72816      1.90428      9.33639        -0.003337     -0.001520     -0.001527
      7.81328      3.38366      6.98339        -0.000404     -0.000297     -0.000432
      6.32760      1.10770      6.94335        -0.000529     -0.001369      0.001683
      6.42748      1.11951      0.84379        -0.000231      0.036461      0.011131
      3.74457      4.22498      2.80295        -0.006801      0.009710     -0.039608
      1.13789      1.22735      6.88948        -0.000046      0.000427      0.000830
      1.05351      1.23301      0.75714         0.007160      0.009280      0.003933
      6.37970      8.73232      2.89580        -0.009664      0.012880      0.002148
      6.40212      4.20175      9.38257        -0.002135      0.000440      0.000956
      7.71519      4.98986      4.84188         0.011492     -0.029940     -0.013342
     10.30332      6.47985      9.44063         0.002408     -0.000041     -0.011939
     14.36690      7.24966      4.78751        -0.035019     -0.038090     -0.050727
     11.62272      5.69148      7.04837        -0.000308     -0.001300     -0.000382
      6.43445      5.77054      7.02217        -0.000006      0.000581     -0.001036
      3.72880      2.59487      4.89932         0.013029     -0.022818     -0.058782
     10.40714      4.90964      4.85294         0.072336      0.080790      0.141300
      3.72083      5.71162      7.08407         0.000235     -0.000290     -0.000664
     13.01076      7.95414      0.82285        -0.014582      0.028443     -0.014497
      5.07062      7.97664      0.75916        -0.002823      0.008832     -0.002547
      3.74725      5.77233      0.77268         0.007776      0.008050     -0.017847
      7.73906      1.95923      2.91892         0.003752     -0.006228     -0.000822
      9.04575      8.78897      2.87226        -0.004644     -0.011991      0.007980
      2.43223      3.46928      7.04900        -0.000524      0.000373      0.000212
      2.40788      3.44595      0.73676        -0.010266      0.029988      0.001479
     10.29842      1.96823      2.88139         0.023753     -0.015927     -0.006679
     13.01351      4.98805      4.94410        -0.006390      0.021182      0.064737
      3.72624      1.09020      7.01907        -0.000375     -0.000549      0.000121
      9.04285      5.76992      7.08502        -0.000049      0.000431      0.000223
      3.74683      1.15285      0.81959        -0.000097      0.005496      0.007636
      9.06513      5.72471      0.92537        -0.015505      0.023348     -0.006592
      5.21212      3.41637      0.86086        -0.000879      0.009800     -0.008002
     11.65625      8.70496      2.91787        -0.026362     -0.015963      0.020442
     11.62151      7.29974      4.90178         0.035671     -0.043723      0.038716
     12.89980      6.49745      2.82364         0.011642     -0.016101     -0.008915
      9.01343      4.18612      2.81919         0.025227      0.014763      0.000944
      7.80036      8.00219      6.94803        -0.000553      0.000525      0.000654
      7.81053      7.92859      0.86888        -0.012325     -0.004249      0.020691
     10.31657      6.54831      2.89472         0.020184      0.012073     -0.020074
      2.46166      0.31661      4.92733        -0.007324     -0.020579     -0.041044
      7.75154      3.52543      0.86333         0.000360      0.003617      0.017631
      5.10291      1.89984      2.87069        -0.009839      0.037261     -0.015030
      5.17349      6.40557      2.77226        -0.038069      0.040163      0.023179
      7.65418      0.39388      4.89233        -0.019189     -0.076642      0.053228
      9.05702      1.14187      7.09641        -0.001012     -0.000899      0.001797
     10.31220      7.97729      6.98863        -0.000575     -0.002037      0.002943
      9.02330      1.20380      0.78512        -0.020764     -0.013942      0.017484
     10.37425      7.90856      0.90129        -0.040570      0.008864      0.007034
      5.10488      4.93977      4.94140         0.003370      0.011077     -0.015161
     11.69653      2.64892      4.87494        -0.022768      0.008445     -0.026773
     14.26247      8.83804      2.80295        -0.027964      0.009587     -0.034529
      9.09183      2.62352      4.93970         0.001178      0.001089     -0.030049
      6.39598      2.67997      4.92292         0.011217     -0.046581     -0.075411
     11.64052      4.17844      2.78900        -0.007675      0.011573      0.009833
      2.34972      1.92500      2.86197         0.008288      0.002252     -0.023735
     11.59075      5.72177      0.94802        -0.025082      0.007241     -0.012607
      6.50379      5.69604      0.91052         0.001976      0.009590     -0.002091
      7.71278      6.45493      2.81038        -0.008834      0.013954      0.042086
      6.43155      4.20716      2.83788         0.001892     -0.011412      0.002043
     10.36345      3.38164      6.99436         0.000538      0.000837     -0.000011
     10.36553      3.54396      0.90454        -0.007557      0.012293     -0.022597
     10.23662      0.46679      4.91587        -0.037885     -0.019883      0.025373
      9.06408      7.34028      4.95059         0.037811     -0.069813     -0.005299
      6.48344      7.27349      4.94428         0.019064     -0.028226     -0.058558
      5.04827      0.31035      4.87551         0.044138      0.001769      0.041043
     11.64710      7.56400     10.49687        -0.013208      0.010886      0.010243
     11.73194      5.49101     10.41327         0.092147     -0.018897      0.021282
 -----------------------------------------------------------------------------------
    total drift:                                0.010113     -0.016983      0.018627


--------------------------------------------------------------------------------------------------------



  FREE ENERGIE OF THE ION-ELECTRON SYSTEM (eV)
  ---------------------------------------------------
  free  energy   TOTEN  =      -518.15025248 eV

  energy  without entropy=     -518.15638096  energy(sigma->0) =     -518.15229531
 


--------------------------------------------------------------------------------------------------------


    POTLOK:  cpu time    0.4419: real time    0.4430


--------------------------------------------------------------------------------------------------------


 Quasi-Newton relaxation of ions (Broydens 2nd method)
  g(Force)  = 0.511E-03   g(Stress)= 0.000E+00

 Reset! Starting new Quasi-Newton update for ions 


--------------------------------------------------------------------------------------------------------


  
 reached required accuracy - stopping structural energy minimisation
     LOOP+:  cpu time 4449.8525: real time 4461.0264
    4ORBIT:  cpu time    0.0000: real time    0.0000

 total amount of memory used by VASP MPI-rank0   259329. kBytes
=======================================================================

   base      :      30000. kBytes
   nonlr-proj:      34875. kBytes
   fftplans  :      17962. kBytes
   grid      :      55536. kBytes
   one-center:        653. kBytes
   wavefun   :     120303. kBytes
 
  
  
 General timing and accounting informations for this job:
 ========================================================
  
                  Total CPU time used (sec):     4474.152
                            User time (sec):     4466.501
                          System time (sec):        7.651
                         Elapsed time (sec):     4487.393
  
                   Maximum memory used (kb):      719860.
                   Average memory used (kb):           0.
  
                          Minor page faults:      1302989
                          Major page faults:            0
                 Voluntary context switches:         6092
