 vasp.5.4.4.18Apr17-6-g9f103f2a35 (build Nov 30 2020 22:55:02) complex          
  
 executed on             LinuxIFC date 2023.09.08  21:36:37
 running on   40 total cores
 distrk:  each k-point on   40 cores,    1 groups
 distr:  one band on NCORES_PER_BAND=   4 cores,   10 groups


--------------------------------------------------------------------------------------------------------


 INCAR:
 POTCAR:    PAW_PBE Pt 04Feb2005                  
 POTCAR:    PAW_PBE Pt 04Feb2005                  
   VRHFIN =Pt: s1d9                                                             
   LEXCH  = PE                                                                  
   EATOM  =   729.1176 eV,   53.5886 Ry                                         
                                                                                
   TITEL  = PAW_PBE Pt 04Feb2005                                                
   LULTRA =        F    use ultrasoft PP ?                                      
   IUNSCR =        1    unscreen: 0-lin 1-nonlin 2-no                           
   RPACOR =    2.330    partial core radius                                     
   POMASS =  195.080; ZVAL   =   10.000    mass and valenz                      
   RCORE  =    2.600    outmost cutoff radius                                   
   RWIGS  =    2.750; RWIGS  =    1.455    wigner-seitz radius (au A)           
   ENMAX  =  230.283; ENMIN  =  172.712 eV                                      
   ICORE  =        3    local potential                                         
   LCOR   =        T    correct aug charges                                     
   LPAW   =        T    paw PP                                                  
   EAUG   =  358.966                                                            
   DEXC   =    0.000                                                            
   RMAX   =    2.658    core radius for proj-oper                               
   RAUG   =    1.300    factor for augmentation sphere                          
   RDEP   =    2.761    radius for radial grids                                 
   RDEPT  =    2.203    core radius for aug-charge                              
                                                                                
   Atomic configuration                                                         
   16 entries                                                                   
     n  l   j            E        occ.                                          
     1  0  0.50    -78401.1885   2.0000                                         
     2  0  0.50    -13770.7750   2.0000                                         
     2  1  1.50    -11931.0468   6.0000                                         
     3  0  0.50     -3234.7234   2.0000                                         
     3  1  1.50     -2699.2216   6.0000                                         
     3  2  2.50     -2119.5714  10.0000                                         
     4  0  0.50      -695.1528   2.0000                                         
     4  1  1.50      -519.6034   6.0000                                         
     4  2  2.50      -306.6786  10.0000                                         
     4  3  3.50       -70.1041  14.0000                                         
     5  0  0.50      -101.7747   2.0000                                         
     5  1  1.50       -55.9873   6.0000                                         
     5  2  2.50        -6.1423   9.0000                                         
     6  0  0.50        -5.6573   1.0000                                         
     6  1  1.50        -6.8029   0.0000                                         
     5  3  2.50        -1.3606   0.0000                                         
   Description                                                                  
     l       E           TYP  RCUT    TYP  RCUT                                 
     2     -6.1423404     23  2.500                                             
     2     -7.5029230     23  2.500                                             
     0     -5.6573207     23  2.500                                             
     0      0.7416693     23  2.500                                             
     1     -2.7211652     23  2.600                                             
     1     20.4087390     23  2.600                                             
     3     -1.3605826     23  2.500                                             
  local pseudopotential read in
  partial core-charges read in
  partial kinetic energy density read in
  atomic valenz-charges read in
  non local Contribution for L=           2  read in
    real space projection operators read in
  non local Contribution for L=           2  read in
    real space projection operators read in
  non local Contribution for L=           0  read in
    real space projection operators read in
  non local Contribution for L=           0  read in
    real space projection operators read in
  non local Contribution for L=           1  read in
    real space projection operators read in
  non local Contribution for L=           1  read in
    real space projection operators read in
    PAW grid and wavefunctions read in
 
   number of l-projection  operators is LMAX  =           6
   number of lm-projection operators is LMMAX =          18
 
 Optimization of the real space projectors (new method)

 maximal supplied QI-value         = 14.36
 optimisation between [QCUT,QGAM] = [ 11.92, 23.98] = [ 39.79,161.09] Ry 
 Optimized for a Real-space Cutoff    1.49 Angstroem

   l    n(q)    QCUT    max X(q) W(low)/X(q) W(high)/X(q)  e(spline) 
   2     10    11.920    66.195    0.79E-04    0.18E-03    0.24E-06
   2     10    11.920    64.643    0.81E-04    0.19E-03    0.24E-06
   0     11    11.920    95.520    0.28E-04    0.54E-04    0.18E-06
   0     11    11.920    63.403    0.27E-04    0.52E-04    0.17E-06
   1     10    11.920    19.961    0.18E-04    0.11E-03    0.23E-06
   1     10    11.920    13.289    0.25E-04    0.87E-04    0.19E-06
  PAW_PBE Pt 04Feb2005                  :
 energy of atom  1       EATOM= -729.1176
 kinetic energy error for atom=    0.0021 (will be added to EATOM!!)
 
 
 POSCAR: Pt111                                   
  positions in direct lattice
  velocities in cartesian coordinates
 exchange correlation table for  LEXCH =        8
   RHO(1)=    0.500       N(1)  =     2000
   RHO(2)=  100.500       N(2)  =     4000
 


--------------------------------------------------------------------------------------------------------


 ion  position               nearest neighbor table
   1  0.785  0.869  0.333-  72 2.69   2 2.69  73 2.69  56 2.69  43 2.69   3 2.69  20 2.81  71 2.81
                            55 2.81  27 2.84  35 2.84  34 2.85
   2  0.035  0.869  0.333-  57 2.69  47 2.69   1 2.69  23 2.69  72 2.69   3 2.69  55 2.81  65 2.81
                            68 2.81  29 2.84  39 2.84  27 2.85
   3  0.035  0.619  0.333-  15 2.69  57 2.69   9 2.69  56 2.69   1 2.69   2 2.69  12 2.81  55 2.81
                            76 2.81  39 2.84  35 2.84  28 2.85
   4  0.787  0.868  0.012-  44 2.69  75 2.69  74 2.69  58 2.69   5 2.69   6 2.69  78 2.84  21 2.84
                            19 2.85
   5  0.037  0.868  0.012-  59 2.69   6 2.69  24 2.69  48 2.69   4 2.69  74 2.69  70 2.84  49 2.84
                            78 2.85
   6  0.037  0.618  0.012-  59 2.69   5 2.69  10 2.69  58 2.69  18 2.69   4 2.69  46 2.84  70 2.84
                            21 2.85
   7  0.619  0.202  0.120-  11 2.69  78 2.69  61 2.69  22 2.69  19 2.69  53 2.69  71 2.80  79 2.80
                            80 2.81  42 2.84  44 2.84  74 2.85
   8  0.370  0.952  0.120-  19 2.69  53 2.69  60 2.69  25 2.69  54 2.69  49 2.69  66 2.80  69 2.80
                            26 2.81  16 2.84  24 2.84  75 2.85
   9  0.034  0.369  0.333-  47 2.69  15 2.69   3 2.69  56 2.69  63 2.69  13 2.69  12 2.81  77 2.81
                            62 2.81  33 2.84  28 2.84  30 2.84
  10  0.037  0.368  0.012-  16 2.69  18 2.69   6 2.69  48 2.69  58 2.69  64 2.69  54 2.84  46 2.84
                            45 2.85
  11  0.869  0.202  0.120-  78 2.69  22 2.69   7 2.69  49 2.69  45 2.69  54 2.69  65 2.81  77 2.81
                            79 2.81  64 2.84  74 2.84  48 2.85
  12  0.952  0.536  0.227-  62 2.69  67 2.69  77 2.69  20 2.69  55 2.69  76 2.69   9 2.81   3 2.81
                            21 2.81  45 2.81  56 2.81  46 2.81
  13  0.284  0.119  0.333-  23 2.69  47 2.69   9 2.69  15 2.69  43 2.69  73 2.69  62 2.80  26 2.81
                            69 2.81  31 2.84  36 2.84  33 2.85
  14  0.534  0.619  0.333-  23 2.69  73 2.69  56 2.69  63 2.69  57 2.69  41 2.69  51 2.80  66 2.80
                            67 2.81  52 2.84  38 2.84  37 2.85
  15  0.284  0.370  0.333-   3 2.69   9 2.69  57 2.69  13 2.69  41 2.69  43 2.69  76 2.81  62 2.81
                            80 2.82  36 2.84  50 2.84  28 2.85
  16  0.287  0.118  0.012-  10 2.69  48 2.69  18 2.69  24 2.69  44 2.69  75 2.69   8 2.84  53 2.84
                            54 2.85
  17  0.537  0.618  0.012-  75 2.69  58 2.69  64 2.69  42 2.69  24 2.69  59 2.69  22 2.84  25 2.84
                            60 2.85
  18  0.287  0.368  0.012-  10 2.69  16 2.69  44 2.69  42 2.69   6 2.69  59 2.69  53 2.84  61 2.84
                            46 2.85
  19  0.619  0.952  0.120-   8 2.69  25 2.69  53 2.69   7 2.69  78 2.69  21 2.69  20 2.80  71 2.80
                            69 2.81  44 2.84  75 2.84   4 2.85
  20  0.702  0.786  0.227-  66 2.69  71 2.69  69 2.69  67 2.69  12 2.69  55 2.69  19 2.80  25 2.80
                             1 2.81  56 2.81  73 2.81  21 2.81
  21  0.870  0.702  0.120-  70 2.69  46 2.69  78 2.69  25 2.69  45 2.69  19 2.69  55 2.81  12 2.81
                            20 2.81  58 2.84   4 2.84   6 2.85
  22  0.620  0.452  0.120-  11 2.69  45 2.69   7 2.69  60 2.69  61 2.69  25 2.69  79 2.80  67 2.80
                            51 2.81  17 2.84  42 2.84  64 2.85
  23  0.285  0.869  0.333-  14 2.69  13 2.69  73 2.69   2 2.69  57 2.69  47 2.69  26 2.80  68 2.80
                            66 2.81  31 2.84  37 2.84  29 2.85
  24  0.287  0.868  0.012-   5 2.69  48 2.69  16 2.69  59 2.69  75 2.69  17 2.69  60 2.84   8 2.84
                            49 2.85
  25  0.620  0.702  0.120-  19 2.69  60 2.69   8 2.69  45 2.69  21 2.69  22 2.69  67 2.80  20 2.80
                            66 2.81  17 2.84  75 2.84  58 2.85
  26  0.202  0.036  0.227-  62 2.69  69 2.69  68 2.69  65 2.69  77 2.69  66 2.69  54 2.80  23 2.80
                            13 2.81  49 2.81  47 2.81   8 2.81
  27  0.867  0.953  0.441-  35 2.69  39 2.69  34 2.69  40 2.69  32 2.69  29 2.69   1 2.84  72 2.84
                             2 2.85
  28  0.117  0.453  0.442-  33 2.69  36 2.69  30 2.69  35 2.69  50 2.69  39 2.69   9 2.84   3 2.85
                            15 2.85
  29  0.117  0.953  0.441-  33 2.69  37 2.69  31 2.69  32 2.69  39 2.69  27 2.69  47 2.84   2 2.84
                            23 2.85
  30  0.867  0.453  0.441-  28 2.69  38 2.69  32 2.69  33 2.69  52 2.69  35 2.69  63 2.84  56 2.84
                             9 2.84
  31  0.367  0.953  0.441-  52 2.69  34 2.69  29 2.69  37 2.69  36 2.69  33 2.69  13 2.84  23 2.84
                            73 2.85
  32  0.867  0.203  0.441-  33 2.69  30 2.69  40 2.69  29 2.69  38 2.69  27 2.69  63 2.84  72 2.84
                            47 2.85
  33  0.117  0.203  0.441-  29 2.69  32 2.69  28 2.69  30 2.69  36 2.69  31 2.69   9 2.84  47 2.84
                            13 2.85
  34  0.617  0.953  0.441-  31 2.69  52 2.69  27 2.69  36 2.69  40 2.69  35 2.69  43 2.84  73 2.84
                             1 2.85
  35  0.867  0.703  0.441-  39 2.69  27 2.69  28 2.69  34 2.69  30 2.69  52 2.69  56 2.84   1 2.84
                             3 2.84
  36  0.367  0.203  0.441-  50 2.69  28 2.69  40 2.69  34 2.69  31 2.69  33 2.69  15 2.84  13 2.84
                            43 2.85
  37  0.367  0.703  0.441-  29 2.69  39 2.69  31 2.69  38 2.69  50 2.69  52 2.69  57 2.84  23 2.84
                            14 2.85
  38  0.617  0.453  0.441-  30 2.69  40 2.69  50 2.69  37 2.69  52 2.69  32 2.69  41 2.84  14 2.84
                            63 2.85
  39  0.117  0.703  0.441-  35 2.69  27 2.69  37 2.69  29 2.69  28 2.69  50 2.69   3 2.84   2 2.84
                            57 2.85
  40  0.617  0.203  0.441-  50 2.69  36 2.69  38 2.69  32 2.69  27 2.69  34 2.69  41 2.84  43 2.84
                            72 2.85
  41  0.534  0.369  0.333-  57 2.69  43 2.69  63 2.69  72 2.69  14 2.69  15 2.69  51 2.80  80 2.80
                            79 2.81  40 2.84  38 2.84  50 2.85
  42  0.537  0.368  0.012-  64 2.69  17 2.69  18 2.69  59 2.69  74 2.69  44 2.69   7 2.84  22 2.84
                            61 2.85
  43  0.534  0.119  0.333-  41 2.69  73 2.69  72 2.69   1 2.69  13 2.69  15 2.69  80 2.80  69 2.81
                            71 2.81  40 2.84  34 2.84  36 2.85
  44  0.537  0.118  0.012-   4 2.69  74 2.69  18 2.69  75 2.69  42 2.69  16 2.69  19 2.84   7 2.84
                            53 2.85
  45  0.870  0.452  0.120-  22 2.69  54 2.69  25 2.69  21 2.69  46 2.69  11 2.69  77 2.80  12 2.81
                            67 2.81  58 2.84  64 2.85  10 2.85
  46  0.120  0.452  0.121-  61 2.69  70 2.69  21 2.69  53 2.69  45 2.69  54 2.69  62 2.80  76 2.81
                            12 2.81   6 2.84  10 2.84  18 2.85
  47  0.034  0.119  0.333-   9 2.69  72 2.69  63 2.69  13 2.69   2 2.69  23 2.69  77 2.81  65 2.81
                            26 2.81  29 2.84  33 2.84  32 2.85
  48  0.037  0.118  0.012-  16 2.69  24 2.69  64 2.69  74 2.69  10 2.69   5 2.69  49 2.84  54 2.85
                            11 2.85
  49  0.119  0.952  0.120-  78 2.69  70 2.69  11 2.69  54 2.69   8 2.69  60 2.69  68 2.81  26 2.81
                            65 2.81  48 2.84   5 2.84  24 2.85
  50  0.367  0.453  0.441-  36 2.69  40 2.69  38 2.69  37 2.69  28 2.69  39 2.69  15 2.84  57 2.84
                            41 2.85
  51  0.452  0.536  0.227-  79 2.69  67 2.69  76 2.69  68 2.69  80 2.69  66 2.69  60 2.80  14 2.80
                            61 2.80  41 2.80  57 2.81  22 2.81
  52  0.617  0.703  0.441-  31 2.69  34 2.69  38 2.69  30 2.69  37 2.69  35 2.69  14 2.84  73 2.84
                            56 2.85
  53  0.369  0.202  0.121-  54 2.69  19 2.69   8 2.69  46 2.69  61 2.69   7 2.69  69 2.80  80 2.80
                            62 2.81  18 2.84  16 2.84  44 2.85
  54  0.119  0.202  0.120-  53 2.69  45 2.69   8 2.69  49 2.69  46 2.69  11 2.69  26 2.80  62 2.81
                            77 2.81  10 2.84  48 2.85  16 2.85
  55  0.952  0.786  0.227-  65 2.69  68 2.69  76 2.69  12 2.69  20 2.69  71 2.69   2 2.81  21 2.81
                            78 2.81   3 2.81  70 2.81   1 2.81
  56  0.784  0.619  0.333-  73 2.69   9 2.69  14 2.69   1 2.69   3 2.69  63 2.69  67 2.81  20 2.81
                            12 2.81  35 2.84  30 2.84  52 2.85
  57  0.284  0.619  0.333-   3 2.69  41 2.69  15 2.69   2 2.69  14 2.69  23 2.69  76 2.80  68 2.81
                            51 2.81  37 2.84  50 2.84  39 2.85
  58  0.787  0.618  0.012-  17 2.69  75 2.69   6 2.69   4 2.69  10 2.69  64 2.69  45 2.84  21 2.84
                            25 2.85
  59  0.287  0.618  0.012-   5 2.69   6 2.69  24 2.69  42 2.69  18 2.69  17 2.69  61 2.84  60 2.84
                            70 2.85
  60  0.370  0.702  0.120-   8 2.69  25 2.69  22 2.69  61 2.69  70 2.69  49 2.69  51 2.80  66 2.80
                            68 2.81  24 2.84  59 2.84  17 2.85
  61  0.370  0.452  0.121-  46 2.69   7 2.69  70 2.69  53 2.69  60 2.69  22 2.69  80 2.80  51 2.80
                            76 2.81  59 2.84  18 2.84  42 2.85
  62  0.202  0.286  0.227-  26 2.69  12 2.69  69 2.69  77 2.69  80 2.69  76 2.69  13 2.80  46 2.80
                            54 2.81  15 2.81   9 2.81  53 2.81
  63  0.784  0.369  0.333-  72 2.69  47 2.69   9 2.69  41 2.69  14 2.69  56 2.69  67 2.81  79 2.81
                            77 2.81  32 2.84  30 2.84  38 2.85
  64  0.787  0.368  0.012-  74 2.69  17 2.69  48 2.69  42 2.69  58 2.69  10 2.69  11 2.84  45 2.85
                            22 2.85
  65  0.952  0.036  0.227-  55 2.69  77 2.69  71 2.69  26 2.69  68 2.69  79 2.69  11 2.81  78 2.81
                             2 2.81  47 2.81  49 2.81  72 2.81
  66  0.452  0.786  0.227-  20 2.69  67 2.69  69 2.69  51 2.69  26 2.69  68 2.69   8 2.80  14 2.80
                            60 2.80  73 2.80  23 2.81  25 2.81
  67  0.702  0.536  0.227-  66 2.69  51 2.69  12 2.69  77 2.69  20 2.69  79 2.69  25 2.80  22 2.80
                            56 2.81  63 2.81  14 2.81  45 2.81
  68  0.202  0.786  0.227-  55 2.69  76 2.69  51 2.69  26 2.69  65 2.69  66 2.69  23 2.80  70 2.81
                            49 2.81  57 2.81   2 2.81  60 2.81
  69  0.452  0.036  0.227-  66 2.69  71 2.69  20 2.69  26 2.69  62 2.69  80 2.69  53 2.80  73 2.80
                             8 2.80  43 2.81  13 2.81  19 2.81
  70  0.120  0.702  0.120-  46 2.69  21 2.69  49 2.69  61 2.69  78 2.69  60 2.69  68 2.81  76 2.81
                            55 2.81   5 2.84   6 2.84  59 2.85
  71  0.702  0.036  0.227-  69 2.69  20 2.69  79 2.69  80 2.69  65 2.69  55 2.69   7 2.80  19 2.80
                             1 2.81  72 2.81  78 2.81  43 2.81
  72  0.784  0.119  0.333-  63 2.69  47 2.69   1 2.69  43 2.69   2 2.69  41 2.69  79 2.81  71 2.81
                            65 2.81  27 2.84  32 2.84  40 2.85
  73  0.535  0.869  0.333-  56 2.69  23 2.69  14 2.69  43 2.69   1 2.69  13 2.69  69 2.80  66 2.80
                            20 2.81  34 2.84  52 2.84  31 2.85
  74  0.787  0.118  0.012-  64 2.69  44 2.69   4 2.69  48 2.69  42 2.69   5 2.69  78 2.84  11 2.84
                             7 2.85
  75  0.537  0.868  0.012-  17 2.69   4 2.69  58 2.69  24 2.69  44 2.69  16 2.69  25 2.84  19 2.84
                             8 2.85
  76  0.202  0.536  0.227-  68 2.69  80 2.69  55 2.69  51 2.69  12 2.69  62 2.69  57 2.80  70 2.81
                            46 2.81  15 2.81   3 2.81  61 2.81
  77  0.952  0.286  0.227-  67 2.69  79 2.69  65 2.69  12 2.69  62 2.69  26 2.69  45 2.80  47 2.81
                             9 2.81  11 2.81  63 2.81  54 2.81
  78  0.869  0.952  0.120-  11 2.69  49 2.69   7 2.69  21 2.69  70 2.69  19 2.69  65 2.81  55 2.81
                            71 2.81  74 2.84   4 2.84   5 2.85
  79  0.702  0.286  0.227-  51 2.69  80 2.69  71 2.69  77 2.69  67 2.69  65 2.69  22 2.80   7 2.80
                            72 2.81  63 2.81  11 2.81  41 2.81
  80  0.452  0.286  0.227-  79 2.69  76 2.69  71 2.69  51 2.69  69 2.69  62 2.69  61 2.80  43 2.80
                            53 2.80  41 2.80   7 2.81  15 2.82
 
  LATTYP: Found a hexagonal cell.
 ALAT       =    10.7600001566
 C/A-ratio  =     2.0446096357
  
  Lattice vectors:
  
 A1 = (   5.3799999700,  -9.3184335429,   0.0000000000)
 A2 = ( -10.7600000000,   0.0000000000,   0.0000000000)
 A3 = (   0.0000000000,   0.0000000000, -22.0000000000)


Analysis of symmetry for initial positions (statically):
=====================================================================
 Subroutine PRICEL returns:
 Original cell was already a primitive cell.
 

 Routine SETGRP: Setting up the symmetry group for a 
 hexagonal supercell.


 Subroutine GETGRP returns: Found  1 space group operations
 (whereof  1 operations were pure point group operations)
 out of a pool of 24 trial point group operations.


The static configuration has the point symmetry C_1 .


Analysis of symmetry for dynamics (positions and initial velocities):
=====================================================================
 Subroutine PRICEL returns:
 Original cell was already a primitive cell.
 

 Routine SETGRP: Setting up the symmetry group for a 
 hexagonal supercell.


 Subroutine GETGRP returns: Found  1 space group operations
 (whereof  1 operations were pure point group operations)
 out of a pool of 24 trial point group operations.


The dynamic configuration has the point symmetry C_1 .


 Subroutine INISYM returns: Found  1 space group operations
 (whereof  1 operations are pure point group operations),
 and found     1 'primitive' translations

 
 
 KPOINTS: mesh auto                               

Automatic generation of k-mesh.
Space group operators:
 irot       det(A)        alpha          n_x          n_y          n_z        tau_x        tau_y        tau_z
    1     1.000000     0.000000     1.000000     0.000000     0.000000     0.000000     0.000000     0.000000
 
 Subroutine IBZKPT returns following result:
 ===========================================
 
 Found      4 irreducible k-points:
 
 Following reciprocal coordinates:
            Coordinates               Weight
  0.000000  0.000000  0.000000      1.000000
  0.500000  0.000000  0.000000      1.000000
  0.000000  0.500000  0.000000      1.000000
  0.500000  0.500000  0.000000      1.000000
 
 Following cartesian coordinates:
            Coordinates               Weight
  0.000000  0.000000  0.000000      1.000000
  0.046468 -0.026829  0.000000      1.000000
  0.000000  0.053657  0.000000      1.000000
  0.046468  0.026829  0.000000      1.000000
 


--------------------------------------------------------------------------------------------------------




 Dimension of arrays:
   k-points           NKPTS =      4   k-points in BZ     NKDIM =      4   number of bands    NBANDS=    480
   number of dos      NEDOS =    301   number of ions     NIONS =     80
   non local maximal  LDIM  =      6   non local SUM 2l+1 LMDIM =     18
   total plane-waves  NPLWV = ******
   max r-space proj   IRMAX =   7517   max aug-charges    IRDMAX=  32744
   dimension x,y,z NGX =    84 NGY =   84 NGZ =  168
   dimension x,y,z NGXF=   168 NGYF=  168 NGZF=  336
   support grid    NGXF=   168 NGYF=  168 NGZF=  336
   ions per type =              80
   NGX,Y,Z   is equivalent  to a cutoff of  12.98, 12.98, 12.70 a.u.
   NGXF,Y,Z  is equivalent  to a cutoff of  25.96, 25.96, 25.39 a.u.

 SYSTEM =  Pt111                                   
 POSCAR =  Pt111                                   

 Startparameter for this run:
   NWRITE =      2    write-flag & timer
   PREC   = accura    normal or accurate (medium, high low for compatibility)
   ISTART =      0    job   : 0-new  1-cont  2-samecut
   ICHARG =      2    charge: 1-file 2-atom 10-const
   ISPIN  =      1    spin polarized calculation?
   LNONCOLLINEAR =      F non collinear calculations
   LSORBIT =      F    spin-orbit coupling
   INIWAV =      1    electr: 0-lowe 1-rand  2-diag
   LASPH  =      F    aspherical Exc in radial PAW
   METAGGA=      F    non-selfconsistent MetaGGA calc.

 Electronic Relaxation 1
   ENCUT  =  550.0 eV  40.42 Ry    6.36 a.u.  20.58 20.58 42.07*2*pi/ulx,y,z
   ENINI  =  550.0     initial cutoff
   ENAUG  =  359.0 eV  augmentation charge cutoff
   NELM   =    200;   NELMIN=  2; NELMDL= -5     # of ELM steps 
   EDIFF  = 0.1E-04   stopping-criterion for ELM
   LREAL  =      T    real-space projection
   NLSPLINE    = F    spline interpolate recip. space projectors
   LCOMPAT=      F    compatible to vasp.4.4
   GGA_COMPAT  = T    GGA compatible to vasp.4.4-vasp.4.6
   LMAXPAW     = -100 max onsite density
   LMAXMIX     =    2 max onsite mixed and CHGCAR
   VOSKOWN=      0    Vosko Wilk Nusair interpolation
   ROPT   =   -0.00025
 Ionic relaxation
   EDIFFG = -.5E-01   stopping-criterion for IOM
   NSW    =    300    number of steps for IOM
   NBLOCK =      1;   KBLOCK =    300    inner block; outer block 
   IBRION =      2    ionic relax: 0-MD 1-quasi-New 2-CG
   NFREE  =      1    steps in history (QN), initial steepest desc. (CG)
   ISIF   =      2    stress and relaxation
   IWAVPR =     11    prediction:  0-non 1-charg 2-wave 3-comb
   ISYM   =      2    0-nonsym 1-usesym 2-fastsym
   LCORR  =      T    Harris-Foulkes like correction to forces

   POTIM  = 0.5000    time-step for ionic-motion
   TEIN   =    0.0    initial temperature
   TEBEG  =    0.0;   TEEND  =   0.0 temperature during run
   SMASS  =  -3.00    Nose mass-parameter (am)
   estimated Nose-frequenzy (Omega)   =  0.10E-29 period in steps =****** mass=  -0.265E-26a.u.
   SCALEE = 1.0000    scale energy and forces
   NPACO  =    256;   APACO  = 16.0  distance and # of slots for P.C.
   PSTRESS=    0.0 pullay stress

  Mass of Ions in am
   POMASS = 195.08
  Ionic Valenz
   ZVAL   =  10.00
  Atomic Wigner-Seitz radii
   RWIGS  =  -1.00
  virtual crystal weights 
   VCA    =   1.00
   NELECT =     800.0000    total number of electrons
   NUPDOWN=      -1.0000    fix difference up-down

 DOS related values:
   EMIN   =  10.00;   EMAX   =-10.00  energy-range for DOS
   EFERMI =   0.00
   ISMEAR =     1;   SIGMA  =   0.10  broadening in eV -4-tet -1-fermi 0-gaus

 Electronic relaxation 2 (details)
   IALGO  =     68    algorithm
   LDIAG  =      T    sub-space diagonalisation (order eigenvalues)
   LSUBROT=      F    optimize rotation matrix (better conditioning)
   TURBO    =      0    0=normal 1=particle mesh
   IRESTART =      0    0=no restart 2=restart with 2 vectors
   NREBOOT  =      0    no. of reboots
   NMIN     =      0    reboot dimension
   EREF     =   0.00    reference energy to select bands
   IMIX   =      4    mixing-type and parameters
     AMIX     =   0.40;   BMIX     =  1.00
     AMIX_MAG =   1.60;   BMIX_MAG =  1.00
     AMIN     =   0.10
     WC   =   100.;   INIMIX=   1;  MIXPRE=   1;  MAXMIX= -45

 Intra band minimization:
   WEIMIN = 0.0010     energy-eigenvalue tresh-hold
   EBREAK =  0.52E-08  absolut break condition
   DEPER  =   0.30     relativ break condition  

   TIME   =   0.40     timestep for ELM

  volume/ion in A,a.u.               =      27.57       186.07
  Fermi-wavevector in a.u.,A,eV,Ry     =   1.167469  2.206197 18.544537  1.362985
  Thomas-Fermi vector in A             =   2.303969
 
 Write flags
   LWAVE        =      F    write WAVECAR
   LDOWNSAMPLE  =      F    k-point downsampling of WAVECAR
   LCHARG       =      F    write CHGCAR
   LVTOT        =      F    write LOCPOT, total local potential
   LVHAR        =      F    write LOCPOT, Hartree potential only
   LELF         =      F    write electronic localiz. function (ELF)
   LORBIT       =      0    0 simple, 1 ext, 2 COOP (PROOUT), +10 PAW based schemes


 Dipole corrections
   LMONO  =      F    monopole corrections only (constant potential shift)
   LDIPOL =      F    correct potential (dipole corrections)
   IDIPOL =      0    1-x, 2-y, 3-z, 4-all directions 
   EPSILON=  1.0000000 bulk dielectric constant

 Exchange correlation treatment:
   GGA     =    --    GGA type
   LEXCH   =     8    internal setting for exchange type
   VOSKOWN=      0    Vosko Wilk Nusair interpolation
   LHFCALC =     F    Hartree Fock is set to
   LHFONE  =     F    Hartree Fock one center treatment
   AEXX    =    0.0000 exact exchange contribution

 Linear response parameters
   LEPSILON=     F    determine dielectric tensor
   LRPA    =     F    only Hartree local field effects (RPA)
   LNABLA  =     F    use nabla operator in PAW spheres
   LVEL    =     F    velocity operator in full k-point grid
   LINTERFAST=   F  fast interpolation
   KINTER  =     0    interpolate to denser k-point grid
   CSHIFT  =0.1000    complex shift for real part using Kramers Kronig
   OMEGAMAX=  -1.0    maximum frequency
   DEG_THRESHOLD= 0.2000000E-02 threshold for treating states as degnerate
   RTIME   =   -0.100 relaxation time in fs
  (WPLASMAI=    0.000 imaginary part of plasma frequency in eV, 0.658/RTIME)
   DFIELD  = 0.0000000 0.0000000 0.0000000 field for delta impulse in time
 
 Orbital magnetization related:
   ORBITALMAG=     F  switch on orbital magnetization
   LCHIMAG   =     F  perturbation theory with respect to B field
   DQ        =  0.001000  dq finite difference perturbation B field
   LLRAUG    =     F  two centre corrections for induced B field



--------------------------------------------------------------------------------------------------------


 conjugate gradient relaxation of ions
 charge density and potential will be updated during run
 non-spin polarized calculation
 RMM-DIIS sequential band-by-band and
  variant of blocked Davidson during initial phase
 perform sub-space diagonalisation
    before iterative eigenvector-optimisation
 modified Broyden-mixing scheme, WC =      100.0
 initial mixing is a Kerker type mixing with AMIX =  0.4000 and BMIX =      1.0000
 Hartree-type preconditioning will be used
 using additional bands           80
 real space projection scheme for non local part
 use partial core corrections
 calculate Harris-corrections to forces 
   (improved forces if not selfconsistent)
 use gradient corrections 
 use of overlap-Matrix (Vanderbilt PP)
 Methfessel and Paxton  Order N= 1 SIGMA  =   0.10


--------------------------------------------------------------------------------------------------------


  energy-cutoff  :      550.00
  volume of cell :     2205.86
      direct lattice vectors                 reciprocal lattice vectors
    10.760000000  0.000000000  0.000000000     0.092936803 -0.053657087  0.000000000
     5.380000030  9.318433543  0.000000000     0.000000000  0.107314174  0.000000000
     0.000000000  0.000000000 22.000000000     0.000000000  0.000000000  0.045454545

  length of vectors
    10.760000000 10.760000187 22.000000000     0.107314176  0.107314174  0.045454545


 
 k-points in units of 2pi/SCALE and weight: mesh auto                               
   0.00000000  0.00000000  0.00000000       0.250
   0.04646840 -0.02682854  0.00000000       0.250
   0.00000000  0.05365709  0.00000000       0.250
   0.04646840  0.02682854  0.00000000       0.250
 
 k-points in reciprocal lattice and weights: mesh auto                               
   0.00000000  0.00000000  0.00000000       0.250
   0.50000000  0.00000000  0.00000000       0.250
   0.00000000  0.50000000  0.00000000       0.250
   0.50000000  0.50000000  0.00000000       0.250
 
 position of ions in fractional coordinates (direct lattice) 
   0.78453311  0.86943977  0.33285267
   0.03454594  0.86941815  0.33294784
   0.03456401  0.61931727  0.33311343
   0.78705077  0.86784265  0.01189147
   0.03727793  0.86759573  0.01202723
   0.03721765  0.61770434  0.01214216
   0.61949887  0.20174958  0.12029971
   0.36952475  0.95171599  0.12041262
   0.03440073  0.36942006  0.33312893
   0.03732961  0.36769119  0.01220904
   0.86940931  0.20170267  0.12021775
   0.95188852  0.53564585  0.22677309
   0.28441101  0.11945224  0.33307801
   0.53445961  0.61949189  0.33290470
   0.28429492  0.36950902  0.33322599
   0.28706002  0.11776341  0.01215837
   0.53733718  0.61770409  0.01206401
   0.28723046  0.36763935  0.01221852
   0.61939605  0.95176001  0.12027306
   0.70188517  0.78570615  0.22658123
   0.86956830  0.70173885  0.12035805
   0.61960658  0.45166863  0.12035424
   0.28458069  0.86941268  0.33297742
   0.28713287  0.86773717  0.01210887
   0.61954509  0.70176677  0.12033167
   0.20189797  0.03565656  0.22672152
   0.86710971  0.95303826  0.44113252
   0.11708376  0.45296264  0.44156294
   0.11721755  0.95309017  0.44128827
   0.86707515  0.45308725  0.44128400
   0.36729517  0.95295426  0.44132664
   0.86715832  0.20307150  0.44126248
   0.11705723  0.20305407  0.44137413
   0.61709754  0.95308232  0.44119083
   0.86726906  0.70310771  0.44126334
   0.36713691  0.20315476  0.44142011
   0.36704107  0.70306925  0.44132928
   0.61711650  0.45309473  0.44124035
   0.11704627  0.70311233  0.44138040
   0.61712683  0.20309988  0.44114867
   0.53440414  0.36945579  0.33296472
   0.53715249  0.36779616  0.01202389
   0.53447915  0.11943542  0.33294092
   0.53723947  0.11768709  0.01198975
   0.86951096  0.45173779  0.12039640
   0.11954664  0.45178316  0.12055505
   0.03442718  0.11946984  0.33300397
   0.03720682  0.11771233  0.01196428
   0.11942259  0.95173499  0.12038949
   0.36719337  0.45295078  0.44149641
   0.45194706  0.53567016  0.22671371
   0.61704937  0.70315984  0.44122166
   0.36944487  0.20171322  0.12051891
   0.11948894  0.20174156  0.12048135
   0.95204127  0.78565691  0.22665993
   0.78447183  0.61946561  0.33292407
   0.28444982  0.61939022  0.33310117
   0.78724511  0.61770366  0.01201728
   0.28710747  0.61775577  0.01213995
   0.36960454  0.70171654  0.12047054
   0.36952376  0.45171075  0.12051227
   0.20183390  0.28564787  0.22685923
   0.78441986  0.36940693  0.33293665
   0.78721155  0.36766757  0.01192219
   0.95188809  0.03561578  0.22657261
   0.45204125  0.78567439  0.22665910
   0.70186654  0.53572322  0.22662234
   0.20196899  0.78562816  0.22675975
   0.45188656  0.03564514  0.22667480
   0.11951660  0.70173931  0.12048280
   0.70182355  0.03570556  0.22652342
   0.78448234  0.11943850  0.33285300
   0.53454276  0.86941240  0.33289731
   0.78717410  0.11775621  0.01184648
   0.53722897  0.86763205  0.01190011
   0.20197317  0.53569696  0.22686713
   0.95178801  0.28566860  0.22669177
   0.86947635  0.95179220  0.12025512
   0.70178133  0.28569597  0.22653473
   0.45184973  0.28569847  0.22673023
 
 position of ions in cartesian coordinates  (Angst):
  13.11916224  8.10181676  7.32275874
   5.04918400  8.10161526  7.32485245
   3.70383571  5.77106686  7.32849546
  13.13765981  8.08693406  0.26161223
   5.06877555  8.08463315  0.26459907
   3.72371131  5.75603680  0.26712753
   7.75122059  1.87999005  2.64659359
   9.09631837  8.86850224  2.64907764
   2.35763183  3.44241630  7.32883655
   2.37984519  3.42630588  0.26859898
  10.44000456  1.87955290  2.64479041
  13.12409523  4.99138029  4.98900789
   3.70291551  1.11310777  7.32771617
   9.08365175  5.77269403  7.32390339
   5.04697191  3.44324524  7.33097189
   3.72233294  1.09737047  0.26748422
   9.10499613  5.75603454  0.26540829
   5.06849943  3.42582285  0.26880741
  11.78517042  8.86891242  2.64600734
  11.77938353  7.32155052  4.98478714
  13.13191000  6.53910686  2.64787716
   9.09694405  4.20884409  2.64779324
   7.73952848  8.10156425  7.32550316
   7.75797572  8.08595118  0.26639516
  10.44181040  6.53936702  2.64729680
   2.36425445  0.33226328  4.98787345
  14.45744640  8.88082372  9.70491553
   3.69676029  4.22090229  9.71438475
   6.38888604  8.88130743  9.70834199
  11.76733799  4.22206340  9.70824802
   9.07899002  8.88004095  9.70918602
  10.42314817  1.89230832  9.70777449
   2.35196670  1.89214587  9.71023089
  11.76755242  8.88123426  9.70619820
  13.11453454  6.55186243  9.70779348
   5.04336574  1.89308415  9.71124252
   7.73187444  6.55150406  9.70924410
   9.07782323  4.22213309  9.70728781
   5.04216221  6.55190553  9.71036870
   7.73296211  1.89257275  9.70527072
   7.73786070  3.44274925  7.32522388
   7.75850417  3.42728403  0.26452552
   6.39355822  1.11295098  7.32470014
   6.41385330  1.09665934  0.26377444
  11.78628726  4.20948859  2.64872091
   3.71691529  4.20991133  2.65221114
   1.01318419  1.11327172  7.32608733
   1.03363771  1.09689453  0.26321425
   6.40532135  8.86867924  2.64856878
   6.38787584  4.22079175  9.71292111
   7.74485584  4.99160681  4.98770166
  10.42245114  6.55234826  9.70687641
   5.06044389  1.87965119  2.65141612
   2.37107060  1.87991529  2.65058967
  14.47079828  7.32109168  4.98651836
  11.77364184  5.77244911  7.32432945
   6.39299951  5.77174661  7.32822584
  11.79400305  5.75603048  0.26438009
   6.41280248  5.75651609  0.26707900
   7.75217984  6.53889896  2.65035189
   6.40627948  4.20923658  2.65126993
   3.70851831  2.66179068  4.99090299
  10.42776697  3.44229393  7.32460627
  10.44844777  3.42608583  0.26228810
  10.43392870  0.33188324  4.98459750
   9.09089210  7.32125457  4.98650017
  10.43427491  4.99210127  4.98569142
   6.39986591  7.32082381  4.98871451
   5.05407021  0.33215687  4.98684563
   5.06135616  6.53911113  2.65062150
   7.74371732  0.33271988  4.98351525
   9.08360906  1.11297970  7.32276591
  10.42911882  8.10156167  7.32374088
   9.10352177  1.09730341  0.26062252
  10.44844413  8.08497156  0.26180232
   5.05528097  4.99185654  4.99107679
  11.77813614  2.66198391  4.98721898
  14.47620763  8.86921240  2.64561265
   9.08821138  2.66223890  4.98376415
   6.39896088  2.66226222  4.98806497
 


--------------------------------------------------------------------------------------------------------


 k-point  1 :   0.0000 0.0000 0.0000  plane waves:   64687
 k-point  2 :   0.5000 0.0000 0.0000  plane waves:   64612
 k-point  3 :   0.0000 0.5000 0.0000  plane waves:   64612
 k-point  4 :   0.5000 0.5000 0.0000  plane waves:   64612

 maximum and minimum number of plane-waves per node :     16191    16134

 maximum number of plane-waves:     64687
 maximum index in each direction: 
   IXMAX=   20   IYMAX=   20   IZMAX=   42
   IXMIN=  -21   IYMIN=  -21   IZMIN=  -42


 real space projection operators:
  total allocation   :      81694.83 KBytes
  max/ min on nodes  :      20425.50      20422.69


 parallel 3D FFT for wavefunctions:
    minimum data exchange during FFTs selected (reduces bandwidth)
 parallel 3D FFT for charge:
    minimum data exchange during FFTs selected (reduces bandwidth)


 total amount of memory used by VASP MPI-rank0   159845. kBytes
=======================================================================

   base      :      30000. kBytes
   nonlr-proj:      35332. kBytes
   fftplans  :      17970. kBytes
   grid      :      25483. kBytes
   one-center:        311. kBytes
   wavefun   :      50749. kBytes
 
     INWAV:  cpu time    0.0000: real time    0.0000
 Broyden mixing: mesh for mixing (old mesh)
   NGX = 41   NGY = 41   NGZ = 85
  (NGX  =168   NGY  =168   NGZ  =336)
  gives a total of 142885 points

 initial charge density was supplied:
 charge density of overlapping atoms calculated
 number of electron     800.0000000 magnetization 
 keeping initial charge density in first step


--------------------------------------------------------------------------------------------------------


 Maximum index for non-local projection operator         1832
 Maximum index for augmentation-charges         2033 (set IRDMAX)


--------------------------------------------------------------------------------------------------------


 First call to EWALD:  gamma=   0.136
 Maximum number of real-space cells 4x 4x 2
 Maximum number of reciprocal cells 2x 2x 4

    FEWALD:  cpu time    0.0034: real time    0.0034


--------------------------------------- Iteration      1(   1)  ---------------------------------------


    POTLOK:  cpu time    0.1725: real time    0.1752
    SETDIJ:  cpu time    0.0160: real time    0.0165
     EDDAV:  cpu time   25.5329: real time   25.6092
       DOS:  cpu time    0.0010: real time    0.0011
    --------------------------------------------
      LOOP:  cpu time   25.7224: real time   25.8021

 eigenvalue-minimisations  :  3840
 total energy-change (2. order) : 0.5705652E+04  (-0.3969601E+05)
 number of electron     800.0000000 magnetization 
 augmentation part      800.0000000 magnetization 

 Free energy of the ion-electron system (eV)
  ---------------------------------------------------
  alpha Z        PSCENC =      2757.98564892
  Ewald energy   TEWEN  =    171200.72753710
  -Hartree energ DENC   =   -235941.79645677
  -exchange      EXHF   =         0.00000000
  -V(xc)+E(xc)   XCENC  =       293.43442157
  PAW double counting   =     55689.88283425   -53427.22359852
  entropy T*S    EENTRO =        -0.00652604
  eigenvalues    EBANDS =      6803.40374436
  atomic energy  EATOM  =     58329.24398462
  Solvation  Ediel_sol  =         0.00000000
  ---------------------------------------------------
  free energy    TOTEN  =      5705.65158950 eV

  energy without entropy =     5705.65811553  energy(sigma->0) =     5705.65376484


--------------------------------------------------------------------------------------------------------




--------------------------------------- Iteration      1(   2)  ---------------------------------------


     EDDAV:  cpu time   27.7825: real time   27.8567
       DOS:  cpu time    0.0010: real time    0.0010
    --------------------------------------------
      LOOP:  cpu time   27.7835: real time   27.8576

 eigenvalue-minimisations  :  4260
 total energy-change (2. order) :-0.5850178E+04  (-0.5443866E+04)
 number of electron     800.0000000 magnetization 
 augmentation part      800.0000000 magnetization 

 Free energy of the ion-electron system (eV)
  ---------------------------------------------------
  alpha Z        PSCENC =      2757.98564892
  Ewald energy   TEWEN  =    171200.72753710
  -Hartree energ DENC   =   -235941.79645677
  -exchange      EXHF   =         0.00000000
  -V(xc)+E(xc)   XCENC  =       293.43442157
  PAW double counting   =     55689.88283425   -53427.22359852
  entropy T*S    EENTRO =        -0.00344008
  eigenvalues    EBANDS =       953.22227669
  atomic energy  EATOM  =     58329.24398462
  Solvation  Ediel_sol  =         0.00000000
  ---------------------------------------------------
  free energy    TOTEN  =      -144.52679222 eV

  energy without entropy =     -144.52335214  energy(sigma->0) =     -144.52564553


--------------------------------------------------------------------------------------------------------




--------------------------------------- Iteration      1(   3)  ---------------------------------------


     EDDAV:  cpu time   29.3343: real time   29.4084
       DOS:  cpu time    0.0010: real time    0.0010
    --------------------------------------------
      LOOP:  cpu time   29.3353: real time   29.4094

 eigenvalue-minimisations  :  4580
 total energy-change (2. order) :-0.3371264E+03  (-0.3031513E+03)
 number of electron     800.0000000 magnetization 
 augmentation part      800.0000000 magnetization 

 Free energy of the ion-electron system (eV)
  ---------------------------------------------------
  alpha Z        PSCENC =      2757.98564892
  Ewald energy   TEWEN  =    171200.72753710
  -Hartree energ DENC   =   -235941.79645677
  -exchange      EXHF   =         0.00000000
  -V(xc)+E(xc)   XCENC  =       293.43442157
  PAW double counting   =     55689.88283425   -53427.22359852
  entropy T*S    EENTRO =        -0.09943777
  eigenvalues    EBANDS =       616.19189032
  atomic energy  EATOM  =     58329.24398462
  Solvation  Ediel_sol  =         0.00000000
  ---------------------------------------------------
  free energy    TOTEN  =      -481.65317627 eV

  energy without entropy =     -481.55373850  energy(sigma->0) =     -481.62003035


--------------------------------------------------------------------------------------------------------




--------------------------------------- Iteration      1(   4)  ---------------------------------------


     EDDAV:  cpu time   31.1204: real time   31.1991
       DOS:  cpu time    0.0011: real time    0.0011
    --------------------------------------------
      LOOP:  cpu time   31.1215: real time   31.2002

 eigenvalue-minimisations  :  4900
 total energy-change (2. order) :-0.1481771E+02  (-0.1421102E+02)
 number of electron     800.0000000 magnetization 
 augmentation part      800.0000000 magnetization 

 Free energy of the ion-electron system (eV)
  ---------------------------------------------------
  alpha Z        PSCENC =      2757.98564892
  Ewald energy   TEWEN  =    171200.72753710
  -Hartree energ DENC   =   -235941.79645677
  -exchange      EXHF   =         0.00000000
  -V(xc)+E(xc)   XCENC  =       293.43442157
  PAW double counting   =     55689.88283425   -53427.22359852
  entropy T*S    EENTRO =        -0.11416280
  eigenvalues    EBANDS =       601.38890608
  atomic energy  EATOM  =     58329.24398462
  Solvation  Ediel_sol  =         0.00000000
  ---------------------------------------------------
  free energy    TOTEN  =      -496.47088554 eV

  energy without entropy =     -496.35672274  energy(sigma->0) =     -496.43283128


--------------------------------------------------------------------------------------------------------




--------------------------------------- Iteration      1(   5)  ---------------------------------------


     EDDAV:  cpu time   29.8005: real time   29.8760
       DOS:  cpu time    0.0012: real time    0.0012
    CHARGE:  cpu time    2.0491: real time    2.0547
    MIXING:  cpu time    0.0061: real time    0.0066
    --------------------------------------------
      LOOP:  cpu time   31.8570: real time   31.9385

 eigenvalue-minimisations  :  4660
 total energy-change (2. order) :-0.3546369E+00  (-0.3531746E+00)
 number of electron     799.9999964 magnetization 
 augmentation part      232.0776302 magnetization 

 Broyden mixing:
  rms(total) = 0.11130E+02    rms(broyden)= 0.11130E+02
  rms(prec ) = 0.11243E+02
  weight for this iteration     100.00

 Free energy of the ion-electron system (eV)
  ---------------------------------------------------
  alpha Z        PSCENC =      2757.98564892
  Ewald energy   TEWEN  =    171200.72753710
  -Hartree energ DENC   =   -235941.79645677
  -exchange      EXHF   =         0.00000000
  -V(xc)+E(xc)   XCENC  =       293.43442157
  PAW double counting   =     55689.88283425   -53427.22359852
  entropy T*S    EENTRO =        -0.11386831
  eigenvalues    EBANDS =       601.03397472
  atomic energy  EATOM  =     58329.24398462
  Solvation  Ediel_sol  =         0.00000000
  ---------------------------------------------------
  free energy    TOTEN  =      -496.82552241 eV

  energy without entropy =     -496.71165410  energy(sigma->0) =     -496.78756631


--------------------------------------------------------------------------------------------------------




--------------------------------------- Iteration      1(   6)  ---------------------------------------


    POTLOK:  cpu time    0.1658: real time    0.1662
    SETDIJ:  cpu time    0.0149: real time    0.0150
    EDDIAG:  cpu time    4.4821: real time    4.4937
  RMM-DIIS:  cpu time   15.7848: real time   15.8268
    ORTHCH:  cpu time    0.4627: real time    0.4639
       DOS:  cpu time    0.0011: real time    0.0011
    CHARGE:  cpu time    2.0010: real time    2.0060
    MIXING:  cpu time    0.0060: real time    0.0064
    --------------------------------------------
      LOOP:  cpu time   22.9184: real time   22.9791

 eigenvalue-minimisations  :  3855
 total energy-change (2. order) : 0.1613600E+02  (-0.7078413E+01)
 number of electron     799.9999951 magnetization 
 augmentation part      244.3986697 magnetization 

 Broyden mixing:
  rms(total) = 0.77248E+01    rms(broyden)= 0.77248E+01
  rms(prec ) = 0.83437E+01
  weight for this iteration     100.00

 eigenvalues of (default mixing * dielectric matrix)
  average eigenvalue GAMMA=   1.5531
  1.5531

 Free energy of the ion-electron system (eV)
  ---------------------------------------------------
  alpha Z        PSCENC =      2757.98564892
  Ewald energy   TEWEN  =    171200.72753710
  -Hartree energ DENC   =   -234979.60886441
  -exchange      EXHF   =         0.00000000
  -V(xc)+E(xc)   XCENC  =       273.48293201
  PAW double counting   =     63093.88643781   -60962.53989395
  entropy T*S    EENTRO =        -0.03049956
  eigenvalues    EBANDS =      -193.83680398
  atomic energy  EATOM  =     58329.24398462
  Solvation  Ediel_sol  =         0.00000000
  ---------------------------------------------------
  free energy    TOTEN  =      -480.68952145 eV

  energy without entropy =     -480.65902189  energy(sigma->0) =     -480.67935493


--------------------------------------------------------------------------------------------------------




--------------------------------------- Iteration      1(   7)  ---------------------------------------


    POTLOK:  cpu time    0.1608: real time    0.1612
    SETDIJ:  cpu time    0.0149: real time    0.0149
    EDDIAG:  cpu time    4.4772: real time    4.4886
  RMM-DIIS:  cpu time   15.6728: real time   15.7125
    ORTHCH:  cpu time    0.4622: real time    0.4634
       DOS:  cpu time    0.0011: real time    0.0011
    CHARGE:  cpu time    2.0068: real time    2.0118
    MIXING:  cpu time    0.0059: real time    0.0059
    --------------------------------------------
      LOOP:  cpu time   22.8016: real time   22.8593

 eigenvalue-minimisations  :  3876
 total energy-change (2. order) :-0.2289394E+03  (-0.2857582E+02)
 number of electron     799.9999962 magnetization 
 augmentation part      237.5904707 magnetization 

 Broyden mixing:
  rms(total) = 0.12421E+02    rms(broyden)= 0.12421E+02
  rms(prec ) = 0.16142E+02
  weight for this iteration     100.00

 eigenvalues of (default mixing * dielectric matrix)
  average eigenvalue GAMMA=   1.2338
  2.2550  0.2126

 Free energy of the ion-electron system (eV)
  ---------------------------------------------------
  alpha Z        PSCENC =      2757.98564892
  Ewald energy   TEWEN  =    171200.72753710
  -Hartree energ DENC   =   -236177.70571980
  -exchange      EXHF   =         0.00000000
  -V(xc)+E(xc)   XCENC  =       267.35358008
  PAW double counting   =     68541.45685343   -66470.11828648
  entropy T*S    EENTRO =        -0.18682453
  eigenvalues    EBANDS =       841.61434225
  atomic energy  EATOM  =     58329.24398462
  Solvation  Ediel_sol  =         0.00000000
  ---------------------------------------------------
  free energy    TOTEN  =      -709.62888440 eV

  energy without entropy =     -709.44205987  energy(sigma->0) =     -709.56660956


--------------------------------------------------------------------------------------------------------




--------------------------------------- Iteration      1(   8)  ---------------------------------------


    POTLOK:  cpu time    0.1614: real time    0.1618
    SETDIJ:  cpu time    0.0149: real time    0.0150
    EDDIAG:  cpu time    4.4854: real time    4.4968
  RMM-DIIS:  cpu time   15.5767: real time   15.6162
    ORTHCH:  cpu time    0.4612: real time    0.4624
       DOS:  cpu time    0.0016: real time    0.0016
    CHARGE:  cpu time    2.0085: real time    2.0135
    MIXING:  cpu time    0.0069: real time    0.0069
    --------------------------------------------
      LOOP:  cpu time   22.7166: real time   22.7743

 eigenvalue-minimisations  :  3859
 total energy-change (2. order) : 0.1804736E+03  (-0.9485828E+01)
 number of electron     799.9999960 magnetization 
 augmentation part      246.4164128 magnetization 

 Broyden mixing:
  rms(total) = 0.62165E+01    rms(broyden)= 0.62165E+01
  rms(prec ) = 0.76969E+01
  weight for this iteration     100.00

 eigenvalues of (default mixing * dielectric matrix)
  average eigenvalue GAMMA=   0.9495
  2.2018  0.3234  0.3234

 Free energy of the ion-electron system (eV)
  ---------------------------------------------------
  alpha Z        PSCENC =      2757.98564892
  Ewald energy   TEWEN  =    171200.72753710
  -Hartree energ DENC   =   -235246.49142223
  -exchange      EXHF   =         0.00000000
  -V(xc)+E(xc)   XCENC  =       260.84051027
  PAW double counting   =     74359.38799691   -72361.96283525
  entropy T*S    EENTRO =        -0.04032554
  eigenvalues    EBANDS =       171.15363511
  atomic energy  EATOM  =     58329.24398462
  Solvation  Ediel_sol  =         0.00000000
  ---------------------------------------------------
  free energy    TOTEN  =      -529.15527008 eV

  energy without entropy =     -529.11494454  energy(sigma->0) =     -529.14182823


--------------------------------------------------------------------------------------------------------




--------------------------------------- Iteration      1(   9)  ---------------------------------------


    POTLOK:  cpu time    0.1622: real time    0.1626
    SETDIJ:  cpu time    0.0177: real time    0.0177
    EDDIAG:  cpu time    4.5267: real time    4.5382
  RMM-DIIS:  cpu time   15.5583: real time   15.5978
    ORTHCH:  cpu time    0.4615: real time    0.4626
       DOS:  cpu time    0.0011: real time    0.0011
    CHARGE:  cpu time    1.9937: real time    1.9988
    MIXING:  cpu time    0.0062: real time    0.0062
    --------------------------------------------
      LOOP:  cpu time   22.7274: real time   22.7851

 eigenvalue-minimisations  :  3860
 total energy-change (2. order) : 0.4484990E+02  (-0.7362549E+01)
 number of electron     799.9999955 magnetization 
 augmentation part      248.0532508 magnetization 

 Broyden mixing:
  rms(total) = 0.44199E+01    rms(broyden)= 0.44199E+01
  rms(prec ) = 0.59745E+01
  weight for this iteration     100.00

 eigenvalues of (default mixing * dielectric matrix)
  average eigenvalue GAMMA=   0.8406
  2.0675  0.7382  0.3383  0.2184

 Free energy of the ion-electron system (eV)
  ---------------------------------------------------
  alpha Z        PSCENC =      2757.98564892
  Ewald energy   TEWEN  =    171200.72753710
  -Hartree energ DENC   =   -235045.54086608
  -exchange      EXHF   =         0.00000000
  -V(xc)+E(xc)   XCENC  =       262.13092314
  PAW double counting   =     74496.37648524   -72498.37246903
  entropy T*S    EENTRO =        -0.14726250
  eigenvalues    EBANDS =        13.29064451
  atomic energy  EATOM  =     58329.24398462
  Solvation  Ediel_sol  =         0.00000000
  ---------------------------------------------------
  free energy    TOTEN  =      -484.30537408 eV

  energy without entropy =     -484.15811158  energy(sigma->0) =     -484.25628658


--------------------------------------------------------------------------------------------------------




--------------------------------------- Iteration      1(  10)  ---------------------------------------


    POTLOK:  cpu time    0.1656: real time    0.1660
    SETDIJ:  cpu time    0.0148: real time    0.0148
    EDDIAG:  cpu time    4.4920: real time    4.5034
  RMM-DIIS:  cpu time   15.5330: real time   15.5741
    ORTHCH:  cpu time    0.4629: real time    0.4640
       DOS:  cpu time    0.0011: real time    0.0011
    CHARGE:  cpu time    2.0097: real time    2.0150
    MIXING:  cpu time    0.0064: real time    0.0064
    --------------------------------------------
      LOOP:  cpu time   22.6855: real time   22.7448

 eigenvalue-minimisations  :  3861
 total energy-change (2. order) :-0.3359360E+02  (-0.2742937E+01)
 number of electron     799.9999955 magnetization 
 augmentation part      247.0970962 magnetization 

 Broyden mixing:
  rms(total) = 0.62300E+01    rms(broyden)= 0.62300E+01
  rms(prec ) = 0.10306E+02
  weight for this iteration     100.00

 eigenvalues of (default mixing * dielectric matrix)
  average eigenvalue GAMMA=   0.7274
  2.1057  0.8779  0.2605  0.2605  0.1322

 Free energy of the ion-electron system (eV)
  ---------------------------------------------------
  alpha Z        PSCENC =      2757.98564892
  Ewald energy   TEWEN  =    171200.72753710
  -Hartree energ DENC   =   -234935.18477312
  -exchange      EXHF   =         0.00000000
  -V(xc)+E(xc)   XCENC  =       264.30252761
  PAW double counting   =     74261.30299381   -72254.81667954
  entropy T*S    EENTRO =        -0.08853107
  eigenvalues    EBANDS =      -141.37168366
  atomic energy  EATOM  =     58329.24398462
  Solvation  Ediel_sol  =         0.00000000
  ---------------------------------------------------
  free energy    TOTEN  =      -517.89897532 eV

  energy without entropy =     -517.81044425  energy(sigma->0) =     -517.86946497


--------------------------------------------------------------------------------------------------------




--------------------------------------- Iteration      1(  11)  ---------------------------------------


    POTLOK:  cpu time    0.1683: real time    0.1689
    SETDIJ:  cpu time    0.0149: real time    0.0149
    EDDIAG:  cpu time    4.4979: real time    4.5097
  RMM-DIIS:  cpu time   15.6979: real time   15.7397
    ORTHCH:  cpu time    0.4617: real time    0.4628
       DOS:  cpu time    0.0012: real time    0.0012
    CHARGE:  cpu time    2.0133: real time    2.0187
    MIXING:  cpu time    0.0073: real time    0.0073
    --------------------------------------------
      LOOP:  cpu time   22.8624: real time   22.9231

 eigenvalue-minimisations  :  3871
 total energy-change (2. order) : 0.4424904E+02  (-0.8759788E+00)
 number of electron     799.9999955 magnetization 
 augmentation part      248.1294825 magnetization 

 Broyden mixing:
  rms(total) = 0.29386E+01    rms(broyden)= 0.29386E+01
  rms(prec ) = 0.38790E+01
  weight for this iteration     100.00

 eigenvalues of (default mixing * dielectric matrix)
  average eigenvalue GAMMA=   0.6748
  2.1914  0.8856  0.3190  0.3190  0.2401  0.0936

 Free energy of the ion-electron system (eV)
  ---------------------------------------------------
  alpha Z        PSCENC =      2757.98564892
  Ewald energy   TEWEN  =    171200.72753710
  -Hartree energ DENC   =   -234931.31482854
  -exchange      EXHF   =         0.00000000
  -V(xc)+E(xc)   XCENC  =       264.72032571
  PAW double counting   =     74426.13039392   -72419.71431511
  entropy T*S    EENTRO =         0.02945501
  eigenvalues    EBANDS =      -101.45813647
  atomic energy  EATOM  =     58329.24398462
  Solvation  Ediel_sol  =         0.00000000
  ---------------------------------------------------
  free energy    TOTEN  =      -473.64993483 eV

  energy without entropy =     -473.67938984  energy(sigma->0) =     -473.65975317


--------------------------------------------------------------------------------------------------------




--------------------------------------- Iteration      1(  12)  ---------------------------------------


    POTLOK:  cpu time    0.1676: real time    0.1683
    SETDIJ:  cpu time    0.0149: real time    0.0149
    EDDIAG:  cpu time    4.4970: real time    4.5087
  RMM-DIIS:  cpu time   15.6094: real time   15.6511
    ORTHCH:  cpu time    0.4643: real time    0.4654
       DOS:  cpu time    0.0012: real time    0.0012
    CHARGE:  cpu time    2.0094: real time    2.0149
    MIXING:  cpu time    0.0073: real time    0.0074
    --------------------------------------------
      LOOP:  cpu time   22.7711: real time   22.8318

 eigenvalue-minimisations  :  3858
 total energy-change (2. order) : 0.5997566E+01  (-0.3122239E+00)
 number of electron     799.9999958 magnetization 
 augmentation part      247.9803990 magnetization 

 Broyden mixing:
  rms(total) = 0.18898E+01    rms(broyden)= 0.18898E+01
  rms(prec ) = 0.20652E+01
  weight for this iteration     100.00

 eigenvalues of (default mixing * dielectric matrix)
  average eigenvalue GAMMA=   0.6550
  2.2453  0.6207  0.6207  0.3939  0.3939  0.2183  0.0918

 Free energy of the ion-electron system (eV)
  ---------------------------------------------------
  alpha Z        PSCENC =      2757.98564892
  Ewald energy   TEWEN  =    171200.72753710
  -Hartree energ DENC   =   -234967.20661682
  -exchange      EXHF   =         0.00000000
  -V(xc)+E(xc)   XCENC  =       264.54951956
  PAW double counting   =     74744.48632527   -72741.10442116
  entropy T*S    EENTRO =        -0.00553390
  eigenvalues    EBANDS =       -56.32881233
  atomic energy  EATOM  =     58329.24398462
  Solvation  Ediel_sol  =         0.00000000
  ---------------------------------------------------
  free energy    TOTEN  =      -467.65236873 eV

  energy without entropy =     -467.64683482  energy(sigma->0) =     -467.65052409


--------------------------------------------------------------------------------------------------------




--------------------------------------- Iteration      1(  13)  ---------------------------------------


    POTLOK:  cpu time    0.1639: real time    0.1643
    SETDIJ:  cpu time    0.0148: real time    0.0148
    EDDIAG:  cpu time    4.4988: real time    4.5111
  RMM-DIIS:  cpu time   15.6796: real time   15.7216
    ORTHCH:  cpu time    0.4623: real time    0.4634
       DOS:  cpu time    0.0012: real time    0.0012
    CHARGE:  cpu time    2.0005: real time    2.0058
    MIXING:  cpu time    0.0077: real time    0.0077
    --------------------------------------------
      LOOP:  cpu time   22.8288: real time   22.8898

 eigenvalue-minimisations  :  3863
 total energy-change (2. order) : 0.1889975E+01  (-0.2468998E+00)
 number of electron     799.9999958 magnetization 
 augmentation part      247.8857464 magnetization 

 Broyden mixing:
  rms(total) = 0.10458E+01    rms(broyden)= 0.10458E+01
  rms(prec ) = 0.11742E+01
  weight for this iteration     100.00

 eigenvalues of (default mixing * dielectric matrix)
  average eigenvalue GAMMA=   0.6400
  2.2404  0.6312  0.6312  0.5827  0.3587  0.3587  0.2253  0.0919

 Free energy of the ion-electron system (eV)
  ---------------------------------------------------
  alpha Z        PSCENC =      2757.98564892
  Ewald energy   TEWEN  =    171200.72753710
  -Hartree energ DENC   =   -234997.28756281
  -exchange      EXHF   =         0.00000000
  -V(xc)+E(xc)   XCENC  =       264.48652724
  PAW double counting   =     74834.09987463   -72831.45238790
  entropy T*S    EENTRO =        -0.01049286
  eigenvalues    EBANDS =       -23.55552266
  atomic energy  EATOM  =     58329.24398462
  Solvation  Ediel_sol  =         0.00000000
  ---------------------------------------------------
  free energy    TOTEN  =      -465.76239370 eV

  energy without entropy =     -465.75190084  energy(sigma->0) =     -465.75889608


--------------------------------------------------------------------------------------------------------




--------------------------------------- Iteration      1(  14)  ---------------------------------------


    POTLOK:  cpu time    0.1627: real time    0.1631
    SETDIJ:  cpu time    0.0150: real time    0.0150
    EDDIAG:  cpu time    4.4975: real time    4.5096
  RMM-DIIS:  cpu time   15.6981: real time   15.7407
    ORTHCH:  cpu time    0.4633: real time    0.4644
       DOS:  cpu time    0.0011: real time    0.0011
    CHARGE:  cpu time    1.9952: real time    2.0002
    MIXING:  cpu time    0.0072: real time    0.0072
    --------------------------------------------
      LOOP:  cpu time   22.8401: real time   22.9014

 eigenvalue-minimisations  :  3866
 total energy-change (2. order) :-0.1166875E+00  (-0.1025189E+00)
 number of electron     799.9999958 magnetization 
 augmentation part      247.7504361 magnetization 

 Broyden mixing:
  rms(total) = 0.11086E+01    rms(broyden)= 0.11086E+01
  rms(prec ) = 0.13227E+01
  weight for this iteration     100.00

 eigenvalues of (default mixing * dielectric matrix)
  average eigenvalue GAMMA=   0.6481
  2.1170  0.8047  0.8047  0.8495  0.3791  0.3791  0.2247  0.0917  0.1820

 Free energy of the ion-electron system (eV)
  ---------------------------------------------------
  alpha Z        PSCENC =      2757.98564892
  Ewald energy   TEWEN  =    171200.72753710
  -Hartree energ DENC   =   -235012.77333606
  -exchange      EXHF   =         0.00000000
  -V(xc)+E(xc)   XCENC  =       264.70651308
  PAW double counting   =     74845.56536086   -72842.20271828
  entropy T*S    EENTRO =        -0.02049790
  eigenvalues    EBANDS =        -9.11157351
  atomic energy  EATOM  =     58329.24398462
  Solvation  Ediel_sol  =         0.00000000
  ---------------------------------------------------
  free energy    TOTEN  =      -465.87908116 eV

  energy without entropy =     -465.85858326  energy(sigma->0) =     -465.87224852


--------------------------------------------------------------------------------------------------------




--------------------------------------- Iteration      1(  15)  ---------------------------------------


    POTLOK:  cpu time    0.1653: real time    0.1657
    SETDIJ:  cpu time    0.0150: real time    0.0150
    EDDIAG:  cpu time    4.5022: real time    4.5137
  RMM-DIIS:  cpu time   15.6690: real time   15.7087
    ORTHCH:  cpu time    0.4618: real time    0.4629
       DOS:  cpu time    0.0012: real time    0.0012
    CHARGE:  cpu time    1.9941: real time    1.9991
    MIXING:  cpu time    0.0077: real time    0.0078
    --------------------------------------------
      LOOP:  cpu time   22.8162: real time   22.8741

 eigenvalue-minimisations  :  3862
 total energy-change (2. order) : 0.1513525E+00  (-0.7328063E-01)
 number of electron     799.9999958 magnetization 
 augmentation part      247.5141190 magnetization 

 Broyden mixing:
  rms(total) = 0.97471E+00    rms(broyden)= 0.97471E+00
  rms(prec ) = 0.12608E+01
  weight for this iteration     100.00

 eigenvalues of (default mixing * dielectric matrix)
  average eigenvalue GAMMA=   0.6347
  1.9777  1.0969  1.0969  0.6389  0.3860  0.3328  0.3328  0.2279  0.0918  0.1656

 Free energy of the ion-electron system (eV)
  ---------------------------------------------------
  alpha Z        PSCENC =      2757.98564892
  Ewald energy   TEWEN  =    171200.72753710
  -Hartree energ DENC   =   -235023.32731092
  -exchange      EXHF   =         0.00000000
  -V(xc)+E(xc)   XCENC  =       265.26125640
  PAW double counting   =     74704.26843973   -72697.73423796
  entropy T*S    EENTRO =        -0.04609937
  eigenvalues    EBANDS =        -2.10694719
  atomic energy  EATOM  =     58329.24398462
  Solvation  Ediel_sol  =         0.00000000
  ---------------------------------------------------
  free energy    TOTEN  =      -465.72772866 eV

  energy without entropy =     -465.68162929  energy(sigma->0) =     -465.71236220


--------------------------------------------------------------------------------------------------------




--------------------------------------- Iteration      1(  16)  ---------------------------------------


    POTLOK:  cpu time    0.1696: real time    0.1700
    SETDIJ:  cpu time    0.0148: real time    0.0148
    EDDIAG:  cpu time    4.4909: real time    4.5023
  RMM-DIIS:  cpu time   15.6905: real time   15.7303
    ORTHCH:  cpu time    0.5123: real time    0.5136
       DOS:  cpu time    0.0012: real time    0.0012
    CHARGE:  cpu time    2.0028: real time    2.0080
    MIXING:  cpu time    0.0079: real time    0.0079
    --------------------------------------------
      LOOP:  cpu time   22.8900: real time   22.9481

 eigenvalue-minimisations  :  3864
 total energy-change (2. order) : 0.3750227E+00  (-0.2200005E-01)
 number of electron     799.9999957 magnetization 
 augmentation part      247.5716046 magnetization 

 Broyden mixing:
  rms(total) = 0.73306E+00    rms(broyden)= 0.73306E+00
  rms(prec ) = 0.84134E+00
  weight for this iteration     100.00

 eigenvalues of (default mixing * dielectric matrix)
  average eigenvalue GAMMA=   0.6469
  1.9535  1.2813  1.2813  0.7284  0.3649  0.3649  0.3314  0.3314  0.2223  0.0918
  0.1646

 Free energy of the ion-electron system (eV)
  ---------------------------------------------------
  alpha Z        PSCENC =      2757.98564892
  Ewald energy   TEWEN  =    171200.72753710
  -Hartree energ DENC   =   -235020.04141970
  -exchange      EXHF   =         0.00000000
  -V(xc)+E(xc)   XCENC  =       265.53856509
  PAW double counting   =     74565.50486359   -72556.78102978
  entropy T*S    EENTRO =         0.01891004
  eigenvalues    EBANDS =        -7.54976582
  atomic energy  EATOM  =     58329.24398462
  Solvation  Ediel_sol  =         0.00000000
  ---------------------------------------------------
  free energy    TOTEN  =      -465.35270592 eV

  energy without entropy =     -465.37161596  energy(sigma->0) =     -465.35900927


--------------------------------------------------------------------------------------------------------




--------------------------------------- Iteration      1(  17)  ---------------------------------------


    POTLOK:  cpu time    0.1693: real time    0.1698
    SETDIJ:  cpu time    0.0148: real time    0.0149
    EDDIAG:  cpu time    4.4905: real time    4.5019
  RMM-DIIS:  cpu time   15.6612: real time   15.7008
    ORTHCH:  cpu time    0.4643: real time    0.4655
       DOS:  cpu time    0.0012: real time    0.0012
    CHARGE:  cpu time    1.9952: real time    2.0002
    MIXING:  cpu time    0.0080: real time    0.0080
    --------------------------------------------
      LOOP:  cpu time   22.8046: real time   22.8623

 eigenvalue-minimisations  :  3862
 total energy-change (2. order) : 0.1403401E+00  (-0.1316096E-01)
 number of electron     799.9999957 magnetization 
 augmentation part      247.5175627 magnetization 

 Broyden mixing:
  rms(total) = 0.55027E+00    rms(broyden)= 0.55027E+00
  rms(prec ) = 0.64138E+00
  weight for this iteration     100.00

 eigenvalues of (default mixing * dielectric matrix)
  average eigenvalue GAMMA=   0.6696
  2.1701  1.2716  1.2716  0.9556  0.4590  0.4590  0.3730  0.3730  0.0918  0.2238
  0.2238  0.1627

 Free energy of the ion-electron system (eV)
  ---------------------------------------------------
  alpha Z        PSCENC =      2757.98564892
  Ewald energy   TEWEN  =    171200.72753710
  -Hartree energ DENC   =   -235029.37856212
  -exchange      EXHF   =         0.00000000
  -V(xc)+E(xc)   XCENC  =       265.68259241
  PAW double counting   =     74572.78194229   -72563.49243643
  entropy T*S    EENTRO =         0.01274951
  eigenvalues    EBANDS =         1.22417788
  atomic energy  EATOM  =     58329.24398462
  Solvation  Ediel_sol  =         0.00000000
  ---------------------------------------------------
  free energy    TOTEN  =      -465.21236582 eV

  energy without entropy =     -465.22511533  energy(sigma->0) =     -465.21661566


--------------------------------------------------------------------------------------------------------




--------------------------------------- Iteration      1(  18)  ---------------------------------------


    POTLOK:  cpu time    0.1651: real time    0.1654
    SETDIJ:  cpu time    0.0148: real time    0.0149
    EDDIAG:  cpu time    4.5008: real time    4.5122
  RMM-DIIS:  cpu time   15.6645: real time   15.7044
    ORTHCH:  cpu time    0.4620: real time    0.4631
       DOS:  cpu time    0.0011: real time    0.0011
    CHARGE:  cpu time    1.9977: real time    2.0027
    MIXING:  cpu time    0.0078: real time    0.0078
    --------------------------------------------
      LOOP:  cpu time   22.8138: real time   22.8717

 eigenvalue-minimisations  :  3861
 total energy-change (2. order) : 0.2416999E-01  (-0.1414993E-01)
 number of electron     799.9999958 magnetization 
 augmentation part      247.4083034 magnetization 

 Broyden mixing:
  rms(total) = 0.46692E+00    rms(broyden)= 0.46692E+00
  rms(prec ) = 0.58324E+00
  weight for this iteration     100.00

 eigenvalues of (default mixing * dielectric matrix)
  average eigenvalue GAMMA=   0.6523
  2.1836  1.3014  1.3014  0.7595  0.7595  0.4220  0.4220  0.3198  0.3198  0.0918
  0.2184  0.2184  0.1628

 Free energy of the ion-electron system (eV)
  ---------------------------------------------------
  alpha Z        PSCENC =      2757.98564892
  Ewald energy   TEWEN  =    171200.72753710
  -Hartree energ DENC   =   -235051.10676574
  -exchange      EXHF   =         0.00000000
  -V(xc)+E(xc)   XCENC  =       265.69432295
  PAW double counting   =     74724.87443362   -72716.60775233
  entropy T*S    EENTRO =        -0.05805026
  eigenvalues    EBANDS =        24.05844528
  atomic energy  EATOM  =     58329.24398462
  Solvation  Ediel_sol  =         0.00000000
  ---------------------------------------------------
  free energy    TOTEN  =      -465.18819583 eV

  energy without entropy =     -465.13014557  energy(sigma->0) =     -465.16884574


--------------------------------------------------------------------------------------------------------




--------------------------------------- Iteration      1(  19)  ---------------------------------------


    POTLOK:  cpu time    0.1657: real time    0.1662
    SETDIJ:  cpu time    0.0148: real time    0.0148
    EDDIAG:  cpu time    4.4952: real time    4.5067
  RMM-DIIS:  cpu time   15.7021: real time   15.7438
    ORTHCH:  cpu time    0.4631: real time    0.4642
       DOS:  cpu time    0.0012: real time    0.0012
    CHARGE:  cpu time    1.9922: real time    1.9975
    MIXING:  cpu time    0.0087: real time    0.0087
    --------------------------------------------
      LOOP:  cpu time   22.8429: real time   22.9030

 eigenvalue-minimisations  :  3892
 total energy-change (2. order) : 0.3295548E-01  (-0.5747394E-02)
 number of electron     799.9999958 magnetization 
 augmentation part      247.3796626 magnetization 

 Broyden mixing:
  rms(total) = 0.43183E+00    rms(broyden)= 0.43183E+00
  rms(prec ) = 0.58672E+00
  weight for this iteration     100.00

 eigenvalues of (default mixing * dielectric matrix)
  average eigenvalue GAMMA=   0.6509
  2.0285  1.4784  1.4784  0.8844  0.8844  0.4160  0.4160  0.3257  0.3257  0.0918
  0.2284  0.2284  0.1677  0.1594

 Free energy of the ion-electron system (eV)
  ---------------------------------------------------
  alpha Z        PSCENC =      2757.98564892
  Ewald energy   TEWEN  =    171200.72753710
  -Hartree energ DENC   =   -235058.05987403
  -exchange      EXHF   =         0.00000000
  -V(xc)+E(xc)   XCENC  =       265.77868481
  PAW double counting   =     74737.28584123   -72728.65940719
  entropy T*S    EENTRO =        -0.05659345
  eigenvalues    EBANDS =        30.59893764
  atomic energy  EATOM  =     58329.24398462
  Solvation  Ediel_sol  =         0.00000000
  ---------------------------------------------------
  free energy    TOTEN  =      -465.15524035 eV

  energy without entropy =     -465.09864690  energy(sigma->0) =     -465.13637587


--------------------------------------------------------------------------------------------------------




--------------------------------------- Iteration      1(  20)  ---------------------------------------


    POTLOK:  cpu time    0.1655: real time    0.1662
    SETDIJ:  cpu time    0.0149: real time    0.0149
    EDDIAG:  cpu time    4.4934: real time    4.5052
  RMM-DIIS:  cpu time   15.6868: real time   15.7287
    ORTHCH:  cpu time    0.4629: real time    0.4640
       DOS:  cpu time    0.0011: real time    0.0011
    CHARGE:  cpu time    1.9984: real time    2.0036
    MIXING:  cpu time    0.0086: real time    0.0086
    --------------------------------------------
      LOOP:  cpu time   22.8316: real time   22.8924

 eigenvalue-minimisations  :  3861
 total energy-change (2. order) : 0.8919772E-01  (-0.3162234E-02)
 number of electron     799.9999958 magnetization 
 augmentation part      247.3763396 magnetization 

 Broyden mixing:
  rms(total) = 0.19029E+00    rms(broyden)= 0.19029E+00
  rms(prec ) = 0.27240E+00
  weight for this iteration     100.00

 eigenvalues of (default mixing * dielectric matrix)
  average eigenvalue GAMMA=   0.6491
  1.7808  1.7066  1.7066  0.9193  0.9193  0.4275  0.4275  0.3359  0.3359  0.3229
  0.0918  0.2218  0.2218  0.1636  0.1545

 Free energy of the ion-electron system (eV)
  ---------------------------------------------------
  alpha Z        PSCENC =      2757.98564892
  Ewald energy   TEWEN  =    171200.72753710
  -Hartree energ DENC   =   -235059.02472403
  -exchange      EXHF   =         0.00000000
  -V(xc)+E(xc)   XCENC  =       265.88436610
  PAW double counting   =     74702.38203336   -72692.95470804
  entropy T*S    EENTRO =        -0.03890791
  eigenvalues    EBANDS =        30.72872724
  atomic energy  EATOM  =     58329.24398462
  Solvation  Ediel_sol  =         0.00000000
  ---------------------------------------------------
  free energy    TOTEN  =      -465.06604263 eV

  energy without entropy =     -465.02713473  energy(sigma->0) =     -465.05307333


--------------------------------------------------------------------------------------------------------




--------------------------------------- Iteration      1(  21)  ---------------------------------------


    POTLOK:  cpu time    0.1691: real time    0.1698
    SETDIJ:  cpu time    0.0152: real time    0.0152
    EDDIAG:  cpu time    4.4911: real time    4.5031
  RMM-DIIS:  cpu time   15.8451: real time   15.8873
    ORTHCH:  cpu time    0.4614: real time    0.4625
       DOS:  cpu time    0.0011: real time    0.0011
    CHARGE:  cpu time    1.9965: real time    2.0018
    MIXING:  cpu time    0.0097: real time    0.0097
    --------------------------------------------
      LOOP:  cpu time   22.9893: real time   23.0506

 eigenvalue-minimisations  :  3889
 total energy-change (2. order) : 0.2121252E-01  (-0.1346584E-02)
 number of electron     799.9999957 magnetization 
 augmentation part      247.3732609 magnetization 

 Broyden mixing:
  rms(total) = 0.73437E-01    rms(broyden)= 0.73437E-01
  rms(prec ) = 0.86538E-01
  weight for this iteration     100.00

 eigenvalues of (default mixing * dielectric matrix)
  average eigenvalue GAMMA=   0.6602
  2.1790  1.5444  1.5444  0.9787  0.9787  0.6432  0.4405  0.4405  0.3467  0.3467
  0.0918  0.2702  0.2227  0.2227  0.1628  0.1505

 Free energy of the ion-electron system (eV)
  ---------------------------------------------------
  alpha Z        PSCENC =      2757.98564892
  Ewald energy   TEWEN  =    171200.72753710
  -Hartree energ DENC   =   -235059.21598619
  -exchange      EXHF   =         0.00000000
  -V(xc)+E(xc)   XCENC  =       265.95197999
  PAW double counting   =     74684.42049173   -72674.50473372
  entropy T*S    EENTRO =        -0.02409674
  eigenvalues    EBANDS =        30.37034417
  atomic energy  EATOM  =     58329.24398462
  Solvation  Ediel_sol  =         0.00000000
  ---------------------------------------------------
  free energy    TOTEN  =      -465.04483011 eV

  energy without entropy =     -465.02073337  energy(sigma->0) =     -465.03679787


--------------------------------------------------------------------------------------------------------




--------------------------------------- Iteration      1(  22)  ---------------------------------------


    POTLOK:  cpu time    0.1684: real time    0.1690
    SETDIJ:  cpu time    0.0147: real time    0.0148
    EDDIAG:  cpu time    4.5497: real time    4.5616
  RMM-DIIS:  cpu time   15.7884: real time   15.8305
    ORTHCH:  cpu time    0.4608: real time    0.4619
       DOS:  cpu time    0.0011: real time    0.0012
    CHARGE:  cpu time    1.9942: real time    1.9995
    MIXING:  cpu time    0.0094: real time    0.0094
    --------------------------------------------
      LOOP:  cpu time   22.9867: real time   23.0477

 eigenvalue-minimisations  :  3865
 total energy-change (2. order) :-0.3666814E-02  (-0.4984177E-03)
 number of electron     799.9999957 magnetization 
 augmentation part      247.3685134 magnetization 

 Broyden mixing:
  rms(total) = 0.11396E+00    rms(broyden)= 0.11396E+00
  rms(prec ) = 0.15039E+00
  weight for this iteration     100.00

 eigenvalues of (default mixing * dielectric matrix)
  average eigenvalue GAMMA=   0.6642
  2.3146  1.5531  1.5531  1.0221  1.0221  0.6139  0.5849  0.4355  0.4355  0.3389
  0.3389  0.0918  0.2296  0.2296  0.2148  0.1627  0.1505

 Free energy of the ion-electron system (eV)
  ---------------------------------------------------
  alpha Z        PSCENC =      2757.98564892
  Ewald energy   TEWEN  =    171200.72753710
  -Hartree energ DENC   =   -235062.86432123
  -exchange      EXHF   =         0.00000000
  -V(xc)+E(xc)   XCENC  =       265.94691906
  PAW double counting   =     74729.11214587   -72719.49977573
  entropy T*S    EENTRO =        -0.03499756
  eigenvalues    EBANDS =        34.33436202
  atomic energy  EATOM  =     58329.24398462
  Solvation  Ediel_sol  =         0.00000000
  ---------------------------------------------------
  free energy    TOTEN  =      -465.04849693 eV

  energy without entropy =     -465.01349937  energy(sigma->0) =     -465.03683107


--------------------------------------------------------------------------------------------------------




--------------------------------------- Iteration      1(  23)  ---------------------------------------


    POTLOK:  cpu time    0.1684: real time    0.1691
[...]

  length of vectors
    10.760000000 10.760000187 22.000000000     0.107314176  0.107314174  0.045454545


 FORCES acting on ions
    electron-ion (+dipol)            ewald-force                    non-local-force                 convergence-correction
 -----------------------------------------------------------------------------------------------
   0.457E-01 0.759E-02 -.135E+04   -.418E-01 -.263E-01 0.135E+04   0.685E-03 -.599E-02 0.503E+00   -.568E-02 0.211E-01 -.419E+00
   0.342E-01 -.202E+00 -.135E+04   -.188E-01 0.216E+00 0.135E+04   0.229E-02 -.425E-02 0.505E+00   -.180E-01 -.842E-02 -.416E+00
   0.318E+00 -.389E+00 -.135E+04   -.334E+00 0.379E+00 0.135E+04   -.343E-02 0.122E-01 0.492E+00   0.105E-01 0.105E-01 -.421E+00
   -.330E+00 0.710E+00 0.267E+04   0.356E+00 -.690E+00 -.267E+04   0.150E-02 -.129E-01 -.461E+00   -.163E-01 -.176E-01 0.173E+00
   -.529E-02 0.116E+00 0.267E+04   0.109E-01 -.145E+00 -.267E+04   -.200E-01 0.271E-01 -.463E+00   0.695E-02 0.148E-01 0.168E+00
   -.399E-01 0.384E+00 0.267E+04   0.793E-01 -.381E+00 -.267E+04   -.109E-01 0.918E-02 -.466E+00   -.328E-01 -.776E-02 0.179E+00
   0.510E+00 0.253E-01 0.135E+04   -.508E+00 -.215E-01 -.135E+04   -.153E-01 0.429E-02 -.508E+00   0.205E-02 -.972E-02 0.727E-01
   0.352E+00 -.111E+00 0.135E+04   -.353E+00 0.685E-01 -.135E+04   -.938E-02 0.180E-02 -.508E+00   0.400E-02 0.397E-01 0.354E-01
   0.855E-01 -.469E-01 -.135E+04   -.133E+00 0.563E-01 0.135E+04   0.642E-02 -.346E-03 0.492E+00   0.407E-01 -.509E-02 -.430E+00
   0.226E-01 -.302E+00 0.267E+04   0.222E-01 0.291E+00 -.267E+04   -.277E-01 0.164E-01 -.466E+00   -.311E-01 0.332E-05 0.189E+00
   -.763E+00 -.101E+00 0.135E+04   0.749E+00 0.848E-01 -.135E+04   0.164E-01 0.119E-01 -.490E+00   0.196E-01 0.111E-01 0.419E-01
   -.307E+00 -.146E-01 -.456E+00   0.284E+00 0.166E-01 0.823E+00   0.764E-02 0.451E-02 -.913E-02   0.248E-01 -.113E-02 -.360E+00
   -.370E+00 0.211E+00 -.135E+04   0.329E+00 -.199E+00 0.135E+04   0.146E-01 -.101E-01 0.502E+00   0.366E-01 -.472E-02 -.407E+00
   0.666E-01 0.336E+00 -.135E+04   -.612E-01 -.356E+00 0.135E+04   0.190E-02 -.110E-01 0.515E+00   -.128E-01 0.210E-01 -.375E+00
   -.453E+00 0.519E+00 -.135E+04   0.435E+00 -.493E+00 0.135E+04   0.221E-01 -.201E-01 0.484E+00   0.881E-02 -.217E-01 -.413E+00
   -.381E+00 -.292E-01 0.267E+04   0.409E+00 0.229E-01 -.267E+04   0.938E-02 0.855E-03 -.466E+00   -.199E-01 -.623E-02 0.176E+00
   0.108E+01 -.218E+00 0.267E+04   -.109E+01 0.203E+00 -.267E+04   -.401E-01 0.156E-01 -.466E+00   0.317E-01 0.651E-03 0.148E+00
   0.253E-01 -.331E+00 0.267E+04   0.168E-01 0.317E+00 -.267E+04   -.925E-02 0.238E-01 -.466E+00   -.214E-01 -.840E-02 0.180E+00
   -.303E+00 0.625E-01 0.135E+04   0.301E+00 -.697E-01 -.135E+04   0.104E-01 0.301E-02 -.504E+00   0.774E-02 0.457E-02 0.651E-01
   -.849E+00 0.760E-01 0.171E+01   0.816E+00 -.981E-01 -.139E+01   0.121E-01 -.655E-02 0.371E-02   0.408E-01 0.249E-01 -.328E+00
   0.164E-01 -.571E-01 0.135E+04   -.803E-02 0.797E-01 -.135E+04   -.101E-01 0.822E-02 -.500E+00   -.261E-02 -.221E-01 0.558E-01
   0.162E+00 -.294E+00 0.135E+04   -.186E+00 0.315E+00 -.135E+04   -.107E-01 0.161E-01 -.507E+00   0.314E-01 -.272E-01 0.226E-01
   0.182E+00 -.128E+00 -.135E+04   -.191E+00 0.117E+00 0.135E+04   -.338E-02 -.315E-02 0.509E+00   0.357E-02 0.176E-01 -.382E+00
   -.158E+00 0.277E+00 0.267E+04   0.153E+00 -.294E+00 -.267E+04   -.392E-02 0.803E-03 -.468E+00   0.178E-01 0.110E-01 0.153E+00
   -.121E+00 0.950E-01 0.135E+04   0.906E-01 -.848E-01 -.135E+04   -.616E-02 -.857E-03 -.506E+00   0.386E-01 -.137E-01 0.128E-01
   0.273E+00 -.182E+00 -.108E-01   -.288E+00 0.153E+00 0.348E+00   0.272E-02 -.786E-02 -.198E-02   0.922E-02 0.341E-01 -.335E+00
   -.358E-02 -.642E+00 -.267E+04   0.147E-01 0.659E+00 0.267E+04   0.183E-01 0.792E-02 0.465E+00   -.260E-01 -.141E-01 -.766E-01
   0.545E-01 -.428E+00 -.267E+04   -.989E-01 0.429E+00 0.267E+04   0.196E-01 0.961E-02 0.466E+00   0.310E-01 -.368E-02 -.652E-01
   0.430E+00 0.989E-01 -.267E+04   -.458E+00 -.590E-01 0.267E+04   -.746E-02 -.126E-01 0.463E+00   0.262E-01 -.284E-01 -.646E-01
   0.674E+00 -.662E+00 -.267E+04   -.692E+00 0.648E+00 0.267E+04   0.572E-02 0.218E-02 0.463E+00   0.103E-01 0.243E-01 -.480E-01
   -.620E-01 -.110E+00 -.267E+04   0.300E-01 0.119E+00 0.267E+04   -.463E-02 0.106E-01 0.462E+00   0.250E-01 -.313E-02 -.640E-01
   0.743E+00 0.305E+00 -.267E+04   -.737E+00 -.287E+00 0.267E+04   -.403E-02 -.583E-02 0.464E+00   -.122E-01 -.140E-01 -.590E-01
   -.106E+00 0.657E+00 -.267E+04   0.482E-01 -.624E+00 0.267E+04   0.236E-01 -.119E-01 0.464E+00   0.460E-01 -.241E-01 -.619E-01
   -.573E+00 0.199E+00 -.267E+04   0.576E+00 -.202E+00 0.267E+04   0.231E-01 -.644E-02 0.462E+00   -.253E-01 0.116E-01 -.772E-01
   0.117E+01 -.454E+00 -.267E+04   -.116E+01 0.433E+00 0.267E+04   -.305E-01 -.513E-02 0.463E+00   -.382E-02 0.221E-01 -.668E-01
   -.200E+00 0.122E+01 -.267E+04   0.173E+00 -.117E+01 0.267E+04   0.147E-02 -.336E-01 0.465E+00   0.133E-01 -.213E-01 -.752E-01
   -.551E+00 0.142E+00 -.267E+04   0.517E+00 -.148E+00 0.267E+04   0.300E-01 -.789E-02 0.463E+00   0.353E-02 0.109E-01 -.512E-01
   -.293E+00 -.668E-01 -.267E+04   0.316E+00 0.542E-01 0.267E+04   0.678E-02 -.337E-02 0.462E+00   -.334E-01 0.225E-01 -.466E-01
   -.401E+00 -.407E+00 -.267E+04   0.375E+00 0.422E+00 0.267E+04   0.227E-01 -.129E-01 0.463E+00   0.112E-01 -.989E-02 -.683E-01
   -.694E+00 0.689E+00 -.267E+04   0.729E+00 -.667E+00 0.267E+04   0.126E-01 -.131E-01 0.463E+00   -.472E-01 -.102E-01 -.739E-01
   -.416E-01 0.410E-01 -.135E+04   0.777E-01 -.261E-02 0.135E+04   0.512E-02 -.276E-02 0.503E+00   -.431E-01 -.328E-01 -.405E+00
   0.823E+00 -.665E+00 0.267E+04   -.835E+00 0.648E+00 -.267E+04   -.173E-01 0.883E-02 -.464E+00   0.292E-01 0.763E-02 0.165E+00
   0.148E+00 -.722E-03 -.135E+04   -.145E+00 0.169E-01 0.135E+04   -.167E-02 -.379E-02 0.500E+00   -.105E-01 -.803E-02 -.413E+00
   0.109E+01 -.781E+00 0.267E+04   -.106E+01 0.773E+00 -.267E+04   -.323E-01 0.256E-01 -.462E+00   -.103E-01 -.129E-01 0.174E+00
   -.269E+00 0.162E+00 0.135E+04   0.251E+00 -.155E+00 -.135E+04   -.183E-02 0.191E-02 -.505E+00   0.239E-01 -.138E-01 0.282E-01
   0.134E+00 0.881E-01 0.135E+04   -.979E-01 -.751E-01 -.135E+04   -.884E-02 -.478E-02 -.501E+00   -.308E-01 -.143E-01 0.676E-01
   0.160E+00 0.319E+00 -.135E+04   -.178E+00 -.290E+00 0.135E+04   0.575E-02 -.143E-01 0.491E+00   0.132E-01 -.238E-01 -.426E+00
   -.422E+00 -.612E-01 0.267E+04   0.419E+00 0.311E-01 -.267E+04   -.974E-02 0.920E-02 -.462E+00   0.840E-02 0.209E-01 0.177E+00
   -.428E+00 -.596E-01 0.135E+04   0.435E+00 0.230E-01 -.135E+04   0.140E-01 -.677E-04 -.503E+00   -.571E-02 0.365E-01 0.439E-01
   -.717E+00 -.419E+00 -.267E+04   0.708E+00 0.429E+00 0.267E+04   0.115E-01 0.136E-01 0.463E+00   -.788E-02 -.606E-02 -.632E-01
   0.197E+00 0.613E-01 -.210E-01   -.168E+00 -.274E-01 0.351E+00   0.138E-02 0.315E-02 -.188E-02   -.305E-01 -.331E-01 -.327E+00
   -.484E+00 0.410E+00 -.267E+04   0.481E+00 -.445E+00 0.267E+04   0.190E-01 -.197E-01 0.460E+00   -.109E-01 0.436E-01 -.501E-01
   -.758E-01 -.228E+00 0.135E+04   0.101E+00 0.218E+00 -.135E+04   0.542E-02 0.438E-02 -.515E+00   -.191E-01 0.604E-02 0.764E-01
   0.294E+00 -.318E-01 0.135E+04   -.292E+00 0.499E-02 -.135E+04   -.842E-02 -.224E-02 -.507E+00   -.251E-02 0.248E-01 0.484E-01
   0.626E+00 0.102E+00 0.681E+00   -.611E+00 -.102E+00 -.360E+00   -.189E-01 -.444E-02 0.754E-03   -.183E-01 0.213E-02 -.326E+00
   -.303E-01 -.186E-01 -.135E+04   0.124E-02 -.141E-01 0.135E+04   0.146E-02 -.707E-02 0.509E+00   0.288E-01 0.362E-01 -.410E+00
   -.381E+00 0.155E-01 -.135E+04   0.399E+00 -.932E-02 0.135E+04   0.185E-01 0.336E-03 0.502E+00   -.265E-01 -.403E-02 -.389E+00
   -.385E+00 0.399E+00 0.267E+04   0.416E+00 -.394E+00 -.267E+04   -.116E-01 0.105E-01 -.467E+00   -.153E-01 -.170E-01 0.173E+00
   -.276E+00 0.377E+00 0.267E+04   0.269E+00 -.393E+00 -.267E+04   0.606E-02 0.141E-02 -.465E+00   0.163E-01 0.786E-02 0.156E+00
   0.401E+00 0.202E-01 0.135E+04   -.394E+00 -.279E-01 -.135E+04   -.121E-01 0.995E-03 -.514E+00   -.201E-02 0.453E-02 0.200E-01
   0.616E-01 -.151E+00 0.135E+04   -.313E-01 0.173E+00 -.135E+04   0.292E-02 0.520E-02 -.513E+00   -.245E-01 -.263E-01 0.623E-01
   -.762E-01 -.245E+00 -.172E+01   0.602E-01 0.252E+00 0.209E+01   0.113E-01 0.145E-02 -.117E-01   0.135E-01 -.214E-02 -.347E+00
   0.193E+00 -.636E-01 -.135E+04   -.193E+00 0.825E-01 0.135E+04   0.484E-02 0.491E-02 0.498E+00   -.643E-02 -.162E-01 -.422E+00
   -.530E+00 -.520E+00 0.267E+04   0.516E+00 0.484E+00 -.267E+04   -.143E-02 0.249E-01 -.466E+00   0.232E-01 0.144E-01 0.175E+00
   -.111E+00 -.378E+00 0.155E+01   0.128E+00 0.384E+00 -.122E+01   0.674E-02 0.438E-02 0.875E-02   -.184E-01 -.541E-03 -.337E+00
   0.511E+00 -.169E+00 0.780E+00   -.528E+00 0.135E+00 -.462E+00   -.152E-01 -.249E-02 -.267E-02   0.149E-01 0.383E-01 -.321E+00
   -.349E+00 0.480E+00 0.109E+01   0.313E+00 -.467E+00 -.737E+00   0.178E-02 -.602E-02 0.260E-02   0.376E-01 -.160E-01 -.359E+00
   -.174E+00 -.214E+00 -.339E+00   0.210E+00 0.204E+00 0.662E+00   0.151E-01 -.656E-03 -.826E-02   -.375E-01 0.141E-01 -.318E+00
   -.695E-01 -.465E+00 0.242E+00   0.474E-01 0.436E+00 0.725E-01   0.250E-02 0.157E-02 0.343E-02   0.213E-01 0.364E-01 -.315E+00
   -.168E+00 0.152E+00 0.135E+04   0.204E+00 -.149E+00 -.135E+04   0.438E-02 -.162E-03 -.508E+00   -.341E-01 -.480E-02 0.629E-01
   -.191E+00 0.231E+00 0.214E+01   0.203E+00 -.230E+00 -.183E+01   0.536E-02 -.974E-02 0.970E-02   -.121E-01 0.666E-03 -.315E+00
   -.138E-01 0.186E-01 -.135E+04   0.509E-01 0.130E-01 0.135E+04   0.251E-02 -.340E-02 0.497E+00   -.393E-01 -.280E-01 -.430E+00
   -.184E+00 -.299E+00 -.135E+04   0.161E+00 0.260E+00 0.135E+04   0.304E-02 0.218E-02 0.509E+00   0.201E-01 0.465E-01 -.383E+00
   0.995E-02 0.712E-01 0.267E+04   -.118E-01 -.965E-01 -.267E+04   -.162E-01 0.695E-02 -.464E+00   0.218E-01 0.125E-01 0.175E+00
   0.765E+00 -.565E+00 0.267E+04   -.739E+00 0.567E+00 -.267E+04   -.221E-01 0.266E-01 -.462E+00   -.839E-02 -.198E-01 0.156E+00
   0.456E+00 0.398E+00 -.168E+01   -.428E+00 -.380E+00 0.202E+01   -.672E-02 -.108E-01 -.138E-01   -.319E-01 -.190E-01 -.329E+00
   -.738E-01 0.198E+00 0.464E+00   0.437E-01 -.191E+00 -.944E-01   0.808E-02 -.366E-02 -.246E-02   0.235E-01 -.716E-02 -.371E+00
   0.340E+00 0.391E+00 0.135E+04   -.332E+00 -.397E+00 -.135E+04   -.136E-01 -.497E-02 -.501E+00   -.603E-02 0.465E-02 0.689E-01
   -.415E+00 0.333E+00 0.175E+01   0.432E+00 -.296E+00 -.141E+01   0.124E-01 -.344E-02 0.157E-01   -.152E-01 -.391E-01 -.345E+00
   0.374E+00 0.950E-01 -.491E+00   -.357E+00 -.602E-01 0.819E+00   -.356E-02 -.456E-02 0.239E-02   -.217E-01 -.322E-01 -.321E+00
 -----------------------------------------------------------------------------------------------
   0.106E-01 -.203E-01 0.941E+01   -.896E-13 -.168E-12 -.685E-11   0.225E-01 0.392E-01 -.108E+00   -.465E-03 0.486E-03 -.940E+01
 
 
 POSITION                                       TOTAL-FORCE (eV/Angst)
 -----------------------------------------------------------------------------------
     13.11916      8.10182      7.32276        -0.001140     -0.004039      0.009926
      5.04918      8.10162      7.32485        -0.000831      0.001687      0.019510
      3.70384      5.77107      7.32850        -0.008725      0.011001      0.012787
     13.13766      8.08693      0.26161         0.011273     -0.009913      0.000623
      5.06878      8.08463      0.26460        -0.007813      0.012449     -0.007111
      3.72371      5.75604      0.26713        -0.005102      0.004748     -0.009575
      7.75122      1.87999      2.64659        -0.011153     -0.001935     -0.024914
      9.09632      8.86850      2.64908        -0.007256     -0.000396     -0.021858
      2.35763      3.44242      7.32884        -0.000592      0.003478      0.013282
      2.37985      3.42631      0.26860        -0.014354      0.004586     -0.010683
     10.44000      1.87955      2.64479         0.021240      0.006780     -0.014038
     13.12410      4.99138      4.98901         0.008525      0.004768     -0.000648
      3.70292      1.11311      7.32772         0.009428     -0.002514      0.019871
      9.08365      5.77269      7.32390        -0.005794     -0.010227      0.024788
      5.04697      3.44325      7.33097         0.012439     -0.015052      0.007485
      3.72233      1.09737      0.26748         0.015968     -0.011239     -0.008828
      9.10500      5.75603      0.26541        -0.014648      0.000794     -0.005819
      5.06850      3.42582      0.26881         0.010514      0.001663     -0.008019
     11.78517      8.86891      2.64601         0.016748      0.000451     -0.022070
     11.77938      7.32155      4.98479         0.020290     -0.004060     -0.004554
     13.13191      6.53911      2.64788        -0.004616      0.008378     -0.014035
      9.09694      4.20884      2.64779        -0.004003      0.009213     -0.023238
      7.73953      8.10156      7.32550        -0.009973      0.003222      0.020791
      7.75798      8.08595      0.26640         0.007978     -0.004605     -0.005511
     10.44181      6.53937      2.64730         0.002327     -0.004806     -0.021142
      2.36425      0.33226      4.98787        -0.003817     -0.002362      0.001368
     14.45745      8.88082      9.70492         0.002960      0.010438      0.011096
      3.69676      4.22090      9.71438         0.005617      0.006719      0.009722
      6.38889      8.88131      9.70834        -0.009794     -0.001234      0.006881
     11.76734      4.22206      9.70825        -0.002617      0.011743      0.009520
      9.07899      8.88004      9.70919        -0.011639      0.015771      0.003942
     10.42315      1.89231      9.70777        -0.010404     -0.002112      0.007761
      2.35197      1.89215      9.71023         0.011120     -0.003400      0.011570
     11.76755      8.88123      9.70620        -0.000190      0.002545      0.007499
     13.11453      6.55186      9.70779        -0.023101     -0.003502      0.007361
      5.04337      1.89308      9.71124        -0.012288     -0.010589      0.005305
      7.73187      6.55150      9.70924        -0.000750     -0.003721      0.004331
      9.07782      4.22213      9.70729        -0.003990      0.005870      0.005299
      5.04216      6.55191      9.71037         0.007771     -0.007865      0.007345
      7.73296      1.89257      9.70527        -0.000041     -0.001688      0.011827
      7.73786      3.44275      7.32522        -0.001733      0.002052      0.015074
      7.75850      3.42728      0.26453        -0.001515     -0.000809     -0.003447
      6.39356      1.11295      7.32470        -0.009364      0.004094      0.011612
      6.41385      1.09666      0.26377        -0.007142      0.004804     -0.003124
     11.78629      4.20949      2.64872         0.003542     -0.004780     -0.017626
      3.71692      4.20991      2.65221        -0.004186     -0.006125     -0.006253
      1.01318      1.11327      7.32609        -0.000124     -0.008837      0.008133
      1.03364      1.09689      0.26321        -0.004386      0.000248     -0.001727
      6.40532      8.86868      2.64857         0.014981      0.000114     -0.017069
      6.38788      4.22079      9.71292        -0.005009      0.016637      0.003626
      7.74486      4.99161      4.98770        -0.001299      0.003204      0.002375
     10.42245      6.55235      9.70688         0.004312     -0.010826      0.003914
      5.06044      1.87965      2.65142         0.011187      0.000094     -0.022430
      2.37107      1.87992      2.65059        -0.009340     -0.004065     -0.014697
     14.47080      7.32109      4.98652        -0.021754     -0.002803     -0.002242
     11.77364      5.77245      7.32433         0.001731     -0.004352      0.022843
      6.39300      5.77175      7.32823         0.008502      0.002079      0.023771
     11.79400      5.75603      0.26438         0.004164     -0.001760     -0.005317
      6.41280      5.75652      0.26708         0.013818     -0.006250     -0.003208
      7.75218      6.53890      2.65035        -0.007586     -0.002103     -0.022361
      6.40628      4.20924      2.65127         0.007643      0.000147     -0.021598
      3.70852      2.66179      4.99090         0.008144      0.006107      0.004330
     10.42777      3.44229      7.32461        -0.001106      0.006698      0.010587
     10.44845      3.42609      0.26229         0.007760      0.002322     -0.002546
     10.43393      0.33188      4.98460         0.004864      0.010244      0.002163
      9.09089      7.32125      4.98650        -0.017883      0.001170     -0.003412
     10.43427      4.99210      4.98569         0.003676     -0.010355     -0.001733
      6.39987      7.32082      4.98871         0.012993      0.003623     -0.002305
      5.05407      0.33216      4.98685         0.001653      0.008707      0.004375
      5.06136      6.53911      2.65062         0.005807     -0.002232     -0.018230
      7.74372      0.33272      4.98352         0.005484     -0.008283      0.000436
      9.08361      1.11298      7.32277         0.000281     -0.000444      0.008129
     10.42912      8.10156      7.32374        -0.000258      0.008693      0.019170
      9.10352      1.09730      0.26062         0.003150     -0.005725     -0.003935
     10.44844      8.08497      0.26180        -0.005051      0.009301      0.001866
      5.05528      4.99186      4.99108        -0.010786     -0.012115      0.002731
     11.77814      2.66198      4.98722         0.001378     -0.004468     -0.002879
     14.47621      8.86921      2.64561        -0.011288     -0.006514     -0.022927
      9.08821      2.66224      4.98376         0.013350     -0.006071      0.006487
      6.39896      2.66226      4.98806        -0.008172     -0.002467      0.009596
 -----------------------------------------------------------------------------------
    total drift:                                0.032662      0.019455     -0.096923


--------------------------------------------------------------------------------------------------------



  FREE ENERGIE OF THE ION-ELECTRON SYSTEM (eV)
  ---------------------------------------------------
  free  energy   TOTEN  =      -515.30529944 eV

  energy  without entropy=     -515.28136283  energy(sigma->0) =     -515.29732057
 


--------------------------------------------------------------------------------------------------------


    POTLOK:  cpu time    0.1982: real time    0.1987


--------------------------------------------------------------------------------------------------------




--------------------------------------------------------------------------------------------------------


  
 reached required accuracy - stopping structural energy minimisation
     LOOP+:  cpu time  755.8272: real time  757.8230
    4ORBIT:  cpu time    0.0000: real time    0.0000

 total amount of memory used by VASP MPI-rank0   159845. kBytes
=======================================================================

   base      :      30000. kBytes
   nonlr-proj:      35332. kBytes
   fftplans  :      17970. kBytes
   grid      :      25483. kBytes
   one-center:        311. kBytes
   wavefun   :      50749. kBytes
 
  
  
 General timing and accounting informations for this job:
 ========================================================
  
                  Total CPU time used (sec):      765.930
                            User time (sec):      764.355
                          System time (sec):        1.575
                         Elapsed time (sec):      768.613
  
                   Maximum memory used (kb):      534860.
                   Average memory used (kb):           0.
  
                          Minor page faults:       370806
                          Major page faults:            0
                 Voluntary context switches:         5256
