 vasp.5.4.4.18Apr17-6-g9f103f2a35 (build Nov 30 2020 22:55:02) complex          
  
 executed on             LinuxIFC date 2023.08.08  09:28:12
 running on   40 total cores
 distrk:  each k-point on   40 cores,    1 groups
 distr:  one band on NCORES_PER_BAND=   1 cores,   40 groups


--------------------------------------------------------------------------------------------------------


 INCAR:
 POTCAR:    PAW_PBE Pt 04Feb2005                  
 POTCAR:    PAW_PBE H 15Jun2001                   

 ----------------------------------------------------------------------------- 
|                                                                             |
|           W    W    AA    RRRRR   N    N  II  N    N   GGGG   !!!           |
|           W    W   A  A   R    R  NN   N  II  NN   N  G    G  !!!           |
|           W    W  A    A  R    R  N N  N  II  N N  N  G       !!!           |
|           W WW W  AAAAAA  RRRRR   N  N N  II  N  N N  G  GGG   !            |
|           WW  WW  A    A  R   R   N   NN  II  N   NN  G    G                |
|           W    W  A    A  R    R  N    N  II  N    N   GGGG   !!!           |
|                                                                             |
|      For optimal performance we recommend to set                            |
|        NCORE= 4 - approx SQRT( number of cores)                             |
|      NCORE specifies how many cores store one orbital (NPAR=cpu/NCORE).     |
|      This setting can  greatly improve the performance of VASP for DFT.     |
|      The default,   NCORE=1            might be grossly inefficient         |
|      on modern multi-core architectures or massively parallel machines.     |
|      Do your own testing !!!!                                               |
|      Unfortunately you need to use the default for GW and RPA calculations. |
|      (for HF NCORE is supported but not extensively tested yet)             |
|                                                                             |
 ----------------------------------------------------------------------------- 

 POTCAR:    PAW_PBE Pt 04Feb2005                  
   VRHFIN =Pt: s1d9                                                             
   LEXCH  = PE                                                                  
   EATOM  =   729.1176 eV,   53.5886 Ry                                         
                                                                                
   TITEL  = PAW_PBE Pt 04Feb2005                                                
   LULTRA =        F    use ultrasoft PP ?                                      
   IUNSCR =        1    unscreen: 0-lin 1-nonlin 2-no                           
   RPACOR =    2.330    partial core radius                                     
   POMASS =  195.080; ZVAL   =   10.000    mass and valenz                      
   RCORE  =    2.600    outmost cutoff radius                                   
   RWIGS  =    2.750; RWIGS  =    1.455    wigner-seitz radius (au A)           
   ENMAX  =  230.283; ENMIN  =  172.712 eV                                      
   ICORE  =        3    local potential                                         
   LCOR   =        T    correct aug charges                                     
   LPAW   =        T    paw PP                                                  
   EAUG   =  358.966                                                            
   DEXC   =    0.000                                                            
   RMAX   =    2.658    core radius for proj-oper                               
   RAUG   =    1.300    factor for augmentation sphere                          
   RDEP   =    2.761    radius for radial grids                                 
   RDEPT  =    2.203    core radius for aug-charge                              
                                                                                
   Atomic configuration                                                         
   16 entries                                                                   
     n  l   j            E        occ.                                          
     1  0  0.50    -78401.1885   2.0000                                         
     2  0  0.50    -13770.7750   2.0000                                         
     2  1  1.50    -11931.0468   6.0000                                         
     3  0  0.50     -3234.7234   2.0000                                         
     3  1  1.50     -2699.2216   6.0000                                         
     3  2  2.50     -2119.5714  10.0000                                         
     4  0  0.50      -695.1528   2.0000                                         
     4  1  1.50      -519.6034   6.0000                                         
     4  2  2.50      -306.6786  10.0000                                         
     4  3  3.50       -70.1041  14.0000                                         
     5  0  0.50      -101.7747   2.0000                                         
     5  1  1.50       -55.9873   6.0000                                         
     5  2  2.50        -6.1423   9.0000                                         
     6  0  0.50        -5.6573   1.0000                                         
     6  1  1.50        -6.8029   0.0000                                         
     5  3  2.50        -1.3606   0.0000                                         
   Description                                                                  
     l       E           TYP  RCUT    TYP  RCUT                                 
     2     -6.1423404     23  2.500                                             
     2     -7.5029230     23  2.500                                             
     0     -5.6573207     23  2.500                                             
     0      0.7416693     23  2.500                                             
     1     -2.7211652     23  2.600                                             
     1     20.4087390     23  2.600                                             
     3     -1.3605826     23  2.500                                             
  local pseudopotential read in
  partial core-charges read in
  partial kinetic energy density read in
  atomic valenz-charges read in
  non local Contribution for L=           2  read in
    real space projection operators read in
  non local Contribution for L=           2  read in
    real space projection operators read in
  non local Contribution for L=           0  read in
    real space projection operators read in
  non local Contribution for L=           0  read in
    real space projection operators read in
  non local Contribution for L=           1  read in
    real space projection operators read in
  non local Contribution for L=           1  read in
    real space projection operators read in
    PAW grid and wavefunctions read in
 
   number of l-projection  operators is LMAX  =           6
   number of lm-projection operators is LMMAX =          18
 
 POTCAR:    PAW_PBE H 15Jun2001                   
   VRHFIN =H: ultrasoft test                                                    
   LEXCH  = PE                                                                  
   EATOM  =    12.4884 eV,    0.9179 Ry                                         
                                                                                
   TITEL  = PAW_PBE H 15Jun2001                                                 
   LULTRA =        F    use ultrasoft PP ?                                      
   IUNSCR =        0    unscreen: 0-lin 1-nonlin 2-no                           
   RPACOR =    0.000    partial core radius                                     
   POMASS =    1.000; ZVAL   =    1.000    mass and valenz                      
   RCORE  =    1.100    outmost cutoff radius                                   
   RWIGS  =    0.700; RWIGS  =    0.370    wigner-seitz radius (au A)           
   ENMAX  =  250.000; ENMIN  =  200.000 eV                                      
   RCLOC  =    0.701    cutoff for local pot                                    
   LCOR   =        T    correct aug charges                                     
   LPAW   =        T    paw PP                                                  
   EAUG   =  400.000                                                            
   RMAX   =    1.123    core radius for proj-oper                               
   RAUG   =    1.200    factor for augmentation sphere                          
   RDEP   =    1.112    radius for radial grids                                 
   RDEPT  =    0.926    core radius for aug-charge                              
                                                                                
   Atomic configuration                                                         
    2 entries                                                                   
     n  l   j            E        occ.                                          
     1  0  0.50        -6.4927   1.0000                                         
     2  1  0.50        -3.4015   0.0000                                         
   Description                                                                  
     l       E           TYP  RCUT    TYP  RCUT                                 
     0     -6.4927494     23  1.100                                             
     0      6.8029130     23  1.100                                             
     1     -4.0817478     23  1.100                                             
  local pseudopotential read in
  atomic valenz-charges read in
  non local Contribution for L=           0  read in
    real space projection operators read in
  non local Contribution for L=           0  read in
    real space projection operators read in
  non local Contribution for L=           1  read in
    real space projection operators read in
    PAW grid and wavefunctions read in
 
   number of l-projection  operators is LMAX  =           3
   number of lm-projection operators is LMMAX =           5
 
 Optimization of the real space projectors (new method)

 maximal supplied QI-value         = 14.36
 optimisation between [QCUT,QGAM] = [ 11.92, 23.98] = [ 39.79,161.09] Ry 
 Optimized for a Real-space Cutoff    1.49 Angstroem

   l    n(q)    QCUT    max X(q) W(low)/X(q) W(high)/X(q)  e(spline) 
   2     10    11.920    66.195    0.79E-04    0.18E-03    0.24E-06
   2     10    11.920    64.643    0.81E-04    0.19E-03    0.24E-06
   0     11    11.920    95.520    0.28E-04    0.54E-04    0.18E-06
   0     11    11.920    63.403    0.27E-04    0.52E-04    0.17E-06
   1     10    11.920    19.961    0.18E-04    0.11E-03    0.23E-06
   1     10    11.920    13.289    0.25E-04    0.87E-04    0.19E-06
 Optimization of the real space projectors (new method)

 maximal supplied QI-value         = 34.20
 optimisation between [QCUT,QGAM] = [ 11.97, 23.94] = [ 40.13,160.53] Ry 
 Optimized for a Real-space Cutoff    1.18 Angstroem

   l    n(q)    QCUT    max X(q) W(low)/X(q) W(high)/X(q)  e(spline) 
   0      8    11.971    19.460    0.15E-03    0.31E-03    0.25E-06
   0      8    11.971    12.209    0.13E-03    0.29E-03    0.25E-06
   1      8    11.971     4.655    0.22E-03    0.24E-03    0.21E-06
  PAW_PBE Pt 04Feb2005                  :
 energy of atom  1       EATOM= -729.1176
 kinetic energy error for atom=    0.0021 (will be added to EATOM!!)
  PAW_PBE H 15Jun2001                   :
 energy of atom  2       EATOM=  -12.4884
 kinetic energy error for atom=    0.0008 (will be added to EATOM!!)
 
 
 POSCAR: Pt111\(1\1\1)\(2)                       
  positions in cartesian coordinates
  No initial velocities read in
 exchange correlation table for  LEXCH =        8
   RHO(1)=    0.500       N(1)  =     2000
   RHO(2)=  100.500       N(2)  =     4000
 


--------------------------------------------------------------------------------------------------------


 ion  position               nearest neighbor table
   1  1.000  0.000  0.056-   5 2.64   9 2.64  13 2.64  29 2.64  57 2.64  37 2.64  42 2.82  54 2.83
                            14 2.92
   2  0.334  0.169  0.180-  26 2.61  14 2.62   6 2.63  30 2.64  42 2.64  38 2.67  11 2.79   7 2.81
                             9 2.90  21 2.91  13 2.92  15 3.02
   3  0.169  0.333  0.310-  15 2.61   7 2.61  43 2.61  39 2.62  27 2.66  31 2.66   8 2.72   6 2.80
                            48 2.96  14 3.02  10 3.03  12 3.06
   4  0.001  0.002  0.415-  16 2.63   8 2.63  32 2.64  12 2.64  40 2.65  60 2.67   7 2.80  27 2.83
                            63 2.91
   5  1.000  0.250  0.056-   1 2.64  45 2.64  33 2.64   9 2.64  29 2.64  25 2.64  18 2.86  14 2.91
                            10 2.91
   6  0.333  0.417  0.192-  62 2.63  14 2.63  10 2.63  34 2.63  26 2.63   2 2.63  43 2.80   3 2.80
                            15 2.82  45 3.13   9 3.13  49 3.13
   7  0.169  0.087  0.298-   3 2.61  15 2.62  11 2.63  27 2.64  63 2.68  35 2.68  16 2.77   4 2.80
                             2 2.81  14 2.82  42 2.92  12 3.24
   8  0.999  0.250  0.422-   4 2.63  28 2.63  32 2.64  36 2.64  12 2.65  48 2.66   3 2.72  31 2.93
                            27 2.94
   9  0.250  0.250  0.056-  21 2.64  13 2.64   1 2.64  49 2.64  45 2.64   5 2.64  14 2.90   2 2.90
                             6 3.13
  10  0.085  0.417  0.180-  14 2.62  34 2.62   6 2.63  46 2.64  18 2.65  22 2.66  31 2.79  39 2.82
                            45 2.90   5 2.91  33 2.92   3 3.03
  11  0.417  0.085  0.296-  19 2.62   7 2.63  23 2.64  35 2.65  15 2.65  47 2.67   2 2.79  16 2.81
                            30 2.82  20 2.86  38 2.87  24 2.97
  12  0.245  0.246  0.443-  66 1.93  65 1.98   4 2.64   8 2.65  16 2.67  48 2.71  24 2.72  52 2.73
                             3 3.06  15 3.08   7 3.24
  13  0.250  0.000  0.056-  21 2.64   9 2.64  17 2.64   1 2.64  37 2.64  41 2.64  42 2.82  38 2.83
                             2 2.92
  14  0.086  0.169  0.180-  10 2.62   2 2.62   6 2.63  42 2.64  18 2.65  54 2.67  27 2.79   7 2.82
                             9 2.90   5 2.91   1 2.92   3 3.02
  15  0.416  0.334  0.311-   3 2.61  43 2.61   7 2.62  55 2.62  11 2.65  19 2.65  24 2.76   6 2.82
                             2 3.02  26 3.02  52 3.07  12 3.08
  16  0.249  0.001  0.414-   4 2.63  40 2.64  24 2.65  44 2.65  20 2.66  12 2.67   7 2.77  11 2.81
                            35 2.89
  17  0.500  0.000  0.056-  29 2.64  25 2.64  13 2.64  21 2.64  41 2.64  53 2.64  38 2.83  58 2.86
                            30 2.87
  18  0.834  0.167  0.177-  22 2.64  54 2.64  10 2.65  14 2.65  58 2.65  30 2.66  31 2.82  27 2.83
                            23 2.84   5 2.86  25 2.86  29 2.86
  19  0.665  0.333  0.296-  11 2.62  55 2.63  23 2.64  59 2.65  15 2.65  31 2.67  26 2.79  64 2.81
                            30 2.82  28 2.85  22 2.87  24 2.97
  20  0.500  1.000  0.417-  24 2.62  56 2.63  44 2.64  28 2.64  32 2.64  16 2.66  23 2.85  11 2.86
                            47 2.86
  21  0.500  0.250  0.056-  25 2.64  61 2.64   9 2.64  13 2.64  49 2.64  17 2.64  30 2.86  26 2.91
                             2 2.91
  22  0.833  0.416  0.175-  18 2.64  30 2.64  50 2.64  46 2.64  10 2.66  26 2.67  59 2.78  25 2.83
                            33 2.83  61 2.83  31 2.87  19 2.87
  23  0.667  0.083  0.296-  47 2.64  31 2.64  19 2.64  11 2.64  51 2.65  27 2.65  30 2.83  58 2.84
                            18 2.84  28 2.85  20 2.85  32 2.85
  24  0.502  0.248  0.425-  66 1.74  28 2.62  20 2.62  64 2.65  16 2.65  52 2.72  12 2.72  15 2.76
                            11 2.97  19 2.97
  25  0.750  0.250  0.056-  17 2.64  21 2.64  29 2.64  61 2.64  33 2.64   5 2.64  22 2.83  18 2.86
                            30 2.87
  26  0.581  0.416  0.180-   2 2.61  62 2.62   6 2.63  30 2.64  50 2.64  22 2.67  19 2.79  55 2.81
                            49 2.90  21 2.91  61 2.92  15 3.02
  27  0.918  0.084  0.296-  31 2.62   7 2.64  63 2.64  23 2.65   3 2.66  51 2.67  14 2.79  18 2.83
                             4 2.83  54 2.86  32 2.86   8 2.94
  28  0.750  0.250  0.417-  24 2.62   8 2.63  36 2.64  20 2.64  32 2.64  64 2.66  23 2.85  19 2.85
                            31 2.86
  29  0.750  0.000  0.056-  17 2.64  25 2.64   5 2.64  53 2.64   1 2.64  57 2.64  54 2.83  18 2.86
                            58 2.86
  30  0.583  0.167  0.177-  38 2.64  22 2.64   2 2.64  26 2.64  58 2.66  18 2.66  19 2.82  11 2.82
                            23 2.83  21 2.86  17 2.87  25 2.87
  31  0.918  0.332  0.296-  27 2.62  39 2.64  23 2.64  59 2.64   3 2.66  19 2.67  10 2.79  18 2.82
                            36 2.83  28 2.86  22 2.87   8 2.93
  32  0.750  1.000  0.417-   4 2.64  60 2.64  56 2.64   8 2.64  20 2.64  28 2.64  23 2.85  51 2.86
                            27 2.86
  33  1.000  0.500  0.056-  37 2.64  41 2.64   5 2.64  45 2.64  25 2.64  61 2.64  46 2.82  22 2.83
                            10 2.92
  34  0.333  0.665  0.180-  62 2.62  10 2.62   6 2.63  46 2.64  58 2.65  38 2.66  47 2.79  39 2.82
                            45 2.90  53 2.91  41 2.92  43 3.03
  35  0.168  0.834  0.292-  47 2.64  11 2.65  59 2.66  63 2.66   7 2.68  39 2.68  38 2.78  46 2.80
                            42 2.81  40 2.82  16 2.89  44 2.90
  36  0.999  0.500  0.415-  48 2.63  28 2.64   8 2.64  44 2.65  40 2.65  64 2.65  39 2.79  31 2.83
                            59 2.90
  37  1.000  0.750  0.056-  33 2.64  41 2.64  61 2.64  57 2.64  13 2.64   1 2.64  42 2.83  50 2.83
                            46 2.83
  38  0.334  0.917  0.175-  58 2.64  30 2.64  42 2.64  46 2.64  34 2.66   2 2.67  35 2.78  17 2.83
                            41 2.83  13 2.83  47 2.87  11 2.87
  39  0.169  0.581  0.299-  43 2.62   3 2.62  47 2.64  31 2.64  35 2.68  59 2.68  36 2.79  44 2.79
                            10 2.82  34 2.82  46 2.93  48 3.10
  40  0.999  0.750  0.410-  16 2.64  64 2.64   4 2.65  60 2.65  36 2.65  44 2.65  63 2.81  59 2.82
                            35 2.82
  41  0.250  0.750  0.056-  45 2.64  33 2.64  37 2.64  53 2.64  17 2.64  13 2.64  46 2.82  38 2.83
                            34 2.92
  42  0.084  0.918  0.174-  14 2.64  38 2.64   2 2.64  54 2.65  46 2.67  50 2.67  63 2.80  35 2.81
                            13 2.82   1 2.82  37 2.83   7 2.92
  43  0.416  0.581  0.310-  15 2.61  55 2.61   3 2.61  39 2.62  51 2.66  47 2.66  56 2.72   6 2.80
                            48 2.96  62 3.02  34 3.03  52 3.06
  44  0.250  0.750  0.415-  48 2.63  20 2.64  56 2.64  36 2.65  40 2.65  16 2.65  39 2.79  47 2.83
                            35 2.90
  45  0.250  0.500  0.056-  41 2.64  53 2.64   5 2.64   9 2.64  49 2.64  33 2.64  10 2.90  34 2.90
                             6 3.13
  46  0.084  0.666  0.175-  10 2.64  34 2.64  22 2.64  38 2.64  50 2.67  42 2.67  35 2.80  59 2.80
                            33 2.82  41 2.82  37 2.83  39 2.93
  47  0.417  0.832  0.296-  51 2.62  39 2.64  23 2.64  35 2.64  43 2.66  11 2.67  34 2.79  58 2.82
                            44 2.83  20 2.86  38 2.87  56 2.93
  48  0.247  0.503  0.437-  65 1.70  36 2.63  44 2.63   8 2.66  56 2.66  52 2.71  12 2.71  43 2.96
                             3 2.96  39 3.10
  49  0.500  0.500  0.056-  61 2.64  53 2.64  57 2.64  21 2.64   9 2.64  45 2.64  62 2.90  26 2.90
                             6 3.13
  50  0.832  0.666  0.174-  62 2.64  22 2.64  26 2.64  54 2.65  46 2.67  42 2.67  63 2.80  59 2.81
                            61 2.82  57 2.82  37 2.83  55 2.92
  51  0.665  0.832  0.296-  47 2.62  55 2.64  63 2.64  23 2.65  43 2.66  27 2.67  62 2.79  58 2.83
                            60 2.83  32 2.86  54 2.86  56 2.94
  52  0.504  0.504  0.443-  66 1.93  65 1.98  60 2.64  56 2.65  64 2.67  48 2.71  24 2.72  12 2.73
                            43 3.06  15 3.07  55 3.24
  53  0.500  0.750  0.056-  49 2.64  57 2.64  45 2.64  41 2.64  29 2.64  17 2.64  58 2.86  62 2.91
                            34 2.91
  54  0.833  0.917  0.175-  18 2.64  58 2.64  50 2.65  42 2.65  62 2.67  14 2.67  63 2.78  29 2.83
                            57 2.83   1 2.83  27 2.86  51 2.86
  55  0.663  0.581  0.298-  43 2.61  15 2.62  19 2.63  51 2.64  63 2.68  59 2.68  64 2.77  60 2.80
                            26 2.81  62 2.82  50 2.92  52 3.24
  56  0.500  0.751  0.422-  60 2.63  20 2.63  32 2.64  44 2.64  52 2.65  48 2.66  43 2.72  47 2.93
                            51 2.94
  57  0.750  0.750  0.056-  61 2.64  49 2.64  53 2.64  37 2.64   1 2.64  29 2.64  50 2.82  54 2.83
                            62 2.92
  58  0.583  0.916  0.177-  38 2.64  54 2.64  34 2.65  62 2.65  18 2.65  30 2.66  47 2.82  51 2.83
                            23 2.84  53 2.86  17 2.86  29 2.86
  59  0.916  0.582  0.292-  31 2.64  19 2.65  35 2.66  63 2.66  55 2.68  39 2.68  22 2.78  46 2.80
                            50 2.81  40 2.82  64 2.89  36 2.90
  60  0.748  0.749  0.415-  64 2.63  56 2.63  32 2.64  52 2.64  40 2.65   4 2.67  55 2.80  51 2.83
                            63 2.91
  61  0.750  0.500  0.056-  49 2.64  57 2.64  21 2.64  25 2.64  37 2.64  33 2.64  50 2.82  22 2.83
                            26 2.92
  62  0.581  0.664  0.180-  34 2.62  26 2.62   6 2.63  50 2.64  58 2.65  54 2.67  51 2.79  55 2.82
                            49 2.90  53 2.91  57 2.92  43 3.02
  63  0.916  0.834  0.292-  51 2.64  27 2.64  59 2.66  35 2.66   7 2.68  55 2.68  54 2.78  50 2.80
                            42 2.80  40 2.81   4 2.91  60 2.91
  64  0.749  0.501  0.414-  60 2.63  40 2.64  24 2.65  36 2.65  28 2.66  52 2.67  55 2.77  19 2.81
                            59 2.89
  65  0.317  0.433  0.492-  48 1.70  52 1.98  12 1.98
  66  0.433  0.316  0.486-  24 1.74  12 1.93  52 1.93
 
  LATTYP: Found a hexagonal cell.
 ALAT       =    10.5600004196
 C/A-ratio  =     1.8939393187
  
  Lattice vectors:
  
 A1 = (  10.5600004196,   0.0000000000,   0.0000000000)
 A2 = (  -5.2800002098,   9.1452286274,   0.0000000000)
 A3 = (   0.0000000000,   0.0000000000,  20.0000000000)


Analysis of symmetry for initial positions (statically):
=====================================================================
 Subroutine PRICEL returns:
 Original cell was already a primitive cell.
 

 Routine SETGRP: Setting up the symmetry group for a 
 hexagonal supercell.


 Subroutine GETGRP returns: Found  1 space group operations
 (whereof  1 operations were pure point group operations)
 out of a pool of 24 trial point group operations.


The static configuration has the point symmetry C_1 .


Analysis of symmetry for dynamics (positions and initial velocities):
=====================================================================
 Subroutine PRICEL returns:
 Original cell was already a primitive cell.
 

 Routine SETGRP: Setting up the symmetry group for a 
 hexagonal supercell.


 Subroutine GETGRP returns: Found  1 space group operations
 (whereof  1 operations were pure point group operations)
 out of a pool of 24 trial point group operations.


The dynamic configuration has the point symmetry C_1 .


Analysis of constrained symmetry for selective dynamics:
=====================================================================
 Subroutine PRICEL returns:
 Original cell was already a primitive cell.
 

 Routine SETGRP: Setting up the symmetry group for a 
 hexagonal supercell.


 Subroutine GETGRP returns: Found  1 space group operations
 (whereof  1 operations were pure point group operations)
 out of a pool of 24 trial point group operations.


The constrained configuration has the point symmetry C_1 .


Analysis of structural, dynamic, and magnetic symmetry:
=====================================================================
 Subroutine PRICEL returns:
 Original cell was already a primitive cell.
 

 Routine SETGRP: Setting up the symmetry group for a 
 hexagonal supercell.


 Subroutine GETGRP returns: Found  1 space group operations
 (whereof  1 operations were pure point group operations)
 out of a pool of 24 trial point group operations.


The magnetic configuration has the point symmetry C_1 .


 Subroutine INISYM returns: Found  1 space group operations
 (whereof  1 operations are pure point group operations),
 and found     1 'primitive' translations

 
 
 KPOINTS: mesh auto                               

Automatic generation of k-mesh.
Space group operators:
 irot       det(A)        alpha          n_x          n_y          n_z        tau_x        tau_y        tau_z
    1     1.000000     0.000000     1.000000     0.000000     0.000000     0.000000     0.000000     0.000000
 
 Subroutine IBZKPT returns following result:
 ===========================================
 
 Found      4 irreducible k-points:
 
 Following reciprocal coordinates:
            Coordinates               Weight
  0.000000  0.000000  0.000000      1.000000
  0.500000 -0.000000  0.000000      1.000000
  0.000000  0.500000  0.000000      1.000000
  0.500000  0.500000  0.000000      1.000000
 
 Following cartesian coordinates:
            Coordinates               Weight
  0.000000  0.000000  0.000000      1.000000
  0.047348  0.027337  0.000000      1.000000
  0.000000  0.054673  0.000000      1.000000
  0.047348  0.082010  0.000000      1.000000
 
 TETIRR: Found     12 inequivalent tetrahedra from       24
 
 Subroutine IBZKPT_HF returns following result:
 ==============================================
 
 Found      4 k-points in 1st BZ
 the following      4 k-points will be used (e.g. in the exchange kernel)
 Following reciprocal coordinates:   # in IRBZ
  0.000000  0.000000  0.000000    0.25000000   1 t-inv F
  0.500000 -0.000000  0.000000    0.25000000   2 t-inv F
  0.000000  0.500000  0.000000    0.25000000   3 t-inv F
  0.500000  0.500000  0.000000    0.25000000   4 t-inv F


--------------------------------------------------------------------------------------------------------




 Dimension of arrays:
   k-points           NKPTS =      4   k-points in BZ     NKDIM =      4   number of bands    NBANDS=    480
   number of dos      NEDOS =    301   number of ions     NIONS =     66
   non local maximal  LDIM  =      6   non local SUM 2l+1 LMDIM =     18
   total plane-waves  NPLWV = ******
   max r-space proj   IRMAX =   8171   max aug-charges    IRDMAX=  35597
   dimension x,y,z NGX =    84 NGY =   84 NGZ =  160
   dimension x,y,z NGXF=   168 NGYF=  168 NGZF=  320
   support grid    NGXF=   168 NGYF=  168 NGZF=  320
   ions per type =              64   2
   NGX,Y,Z   is equivalent  to a cutoff of  13.22, 13.22, 13.30 a.u.
   NGXF,Y,Z  is equivalent  to a cutoff of  26.45, 26.45, 26.60 a.u.

 SYSTEM =  Pt111                                   
 POSCAR =  Pt111\(1\1\1)\(2)                       

 Startparameter for this run:
   NWRITE =      2    write-flag & timer
   PREC   = accura    normal or accurate (medium, high low for compatibility)
   ISTART =      0    job   : 0-new  1-cont  2-samecut
   ICHARG =      2    charge: 1-file 2-atom 10-const
   ISPIN  =      2    spin polarized calculation?
   LNONCOLLINEAR =      F non collinear calculations
   LSORBIT =      F    spin-orbit coupling
   INIWAV =      1    electr: 0-lowe 1-rand  2-diag
   LASPH  =      F    aspherical Exc in radial PAW
   METAGGA=      F    non-selfconsistent MetaGGA calc.

 Electronic Relaxation 1
   ENCUT  =  550.0 eV  40.42 Ry    6.36 a.u.  20.19 20.19 38.24*2*pi/ulx,y,z
   ENINI  =  550.0     initial cutoff
   ENAUG  =  400.0 eV  augmentation charge cutoff
   NELM   =    200;   NELMIN=  2; NELMDL= -5     # of ELM steps 
   EDIFF  = 0.1E-04   stopping-criterion for ELM
   LREAL  =      T    real-space projection
   NLSPLINE    = F    spline interpolate recip. space projectors
   LCOMPAT=      F    compatible to vasp.4.4
   GGA_COMPAT  = T    GGA compatible to vasp.4.4-vasp.4.6
   LMAXPAW     = -100 max onsite density
   LMAXMIX     =    2 max onsite mixed and CHGCAR
   VOSKOWN=      0    Vosko Wilk Nusair interpolation
   ROPT   =   -0.00025  -0.00025
 Ionic relaxation
   EDIFFG = -.5E-01   stopping-criterion for IOM
   NSW    =    829    number of steps for IOM
   NBLOCK =      1;   KBLOCK =    829    inner block; outer block 
   IBRION =      5    ionic relax: 0-MD 1-quasi-New 2-CG
   NFREE  =      2    steps in history (QN), initial steepest desc. (CG)
   ISIF   =      2    stress and relaxation
   IWAVPR =     11    prediction:  0-non 1-charg 2-wave 3-comb
   ISYM   =      2    0-nonsym 1-usesym 2-fastsym
   LCORR  =      T    Harris-Foulkes like correction to forces

   POTIM  = 0.5000    time-step for ionic-motion
   TEIN   =    0.0    initial temperature
   TEBEG  =    0.0;   TEEND  =   0.0 temperature during run
   SMASS  =  -3.00    Nose mass-parameter (am)
   estimated Nose-frequenzy (Omega)   =  0.10E-29 period in steps =****** mass=  -0.255E-26a.u.
   SCALEE = 1.0000    scale energy and forces
   NPACO  =    256;   APACO  = 16.0  distance and # of slots for P.C.
   PSTRESS=    0.0 pullay stress

  Mass of Ions in am
   POMASS = 195.08  1.00
  Ionic Valenz
   ZVAL   =  10.00  1.00
  Atomic Wigner-Seitz radii
   RWIGS  =  -1.00 -1.00
  virtual crystal weights 
   VCA    =   1.00  1.00
   NELECT =     642.0000    total number of electrons
   NUPDOWN=      -1.0000    fix difference up-down

 DOS related values:
   EMIN   =  10.00;   EMAX   =-10.00  energy-range for DOS
   EFERMI =   0.00
   ISMEAR =    -5;   SIGMA  =   0.10  broadening in eV -4-tet -1-fermi 0-gaus

 Electronic relaxation 2 (details)
   IALGO  =     68    algorithm
   LDIAG  =      T    sub-space diagonalisation (order eigenvalues)
   LSUBROT=      F    optimize rotation matrix (better conditioning)
   TURBO    =      0    0=normal 1=particle mesh
   IRESTART =      0    0=no restart 2=restart with 2 vectors
   NREBOOT  =      0    no. of reboots
   NMIN     =      0    reboot dimension
   EREF     =   0.00    reference energy to select bands
   IMIX   =      4    mixing-type and parameters
     AMIX     =   0.40;   BMIX     =  1.00
     AMIX_MAG =   1.60;   BMIX_MAG =  1.00
     AMIN     =   0.10
     WC   =   100.;   INIMIX=   1;  MIXPRE=   1;  MAXMIX= -45

 Intra band minimization:
   WEIMIN = 0.0010     energy-eigenvalue tresh-hold
   EBREAK =  0.52E-08  absolut break condition
   DEPER  =   0.30     relativ break condition  

   TIME   =   0.40     timestep for ELM

  volume/ion in A,a.u.               =      29.26       197.49
  Fermi-wavevector in a.u.,A,eV,Ry     =   1.134028  2.143002 17.497349  1.286019
  Thomas-Fermi vector in A             =   2.270731
 
 Write flags
   LWAVE        =      F    write WAVECAR
   LDOWNSAMPLE  =      F    k-point downsampling of WAVECAR
   LCHARG       =      F    write CHGCAR
   LVTOT        =      F    write LOCPOT, total local potential
   LVHAR        =      F    write LOCPOT, Hartree potential only
   LELF         =      F    write electronic localiz. function (ELF)
   LORBIT       =      0    0 simple, 1 ext, 2 COOP (PROOUT), +10 PAW based schemes


 Dipole corrections
   LMONO  =      F    monopole corrections only (constant potential shift)
   LDIPOL =      F    correct potential (dipole corrections)
   IDIPOL =      0    1-x, 2-y, 3-z, 4-all directions 
   EPSILON=  1.0000000 bulk dielectric constant

 Exchange correlation treatment:
   GGA     =    --    GGA type
   LEXCH   =     8    internal setting for exchange type
   VOSKOWN=      0    Vosko Wilk Nusair interpolation
   LHFCALC =     F    Hartree Fock is set to
   LHFONE  =     F    Hartree Fock one center treatment
   AEXX    =    0.0000 exact exchange contribution

 Linear response parameters
   LEPSILON=     F    determine dielectric tensor
   LRPA    =     F    only Hartree local field effects (RPA)
   LNABLA  =     F    use nabla operator in PAW spheres
   LVEL    =     F    velocity operator in full k-point grid
   LINTERFAST=   F  fast interpolation
   KINTER  =     0    interpolate to denser k-point grid
   CSHIFT  =0.1000    complex shift for real part using Kramers Kronig
   OMEGAMAX=  -1.0    maximum frequency
   DEG_THRESHOLD= 0.2000000E-02 threshold for treating states as degnerate
   RTIME   =   -0.100 relaxation time in fs
  (WPLASMAI=    0.000 imaginary part of plasma frequency in eV, 0.658/RTIME)
   DFIELD  = 0.0000000 0.0000000 0.0000000 field for delta impulse in time
 
 Orbital magnetization related:
   ORBITALMAG=     F  switch on orbital magnetization
   LCHIMAG   =     F  perturbation theory with respect to B field
   DQ        =  0.001000  dq finite difference perturbation B field
   LLRAUG    =     F  two centre corrections for induced B field



--------------------------------------------------------------------------------------------------------


 finite differences
   using selective dynamics as specified on POSCAR
   WARNING: If single coordinates had been selected the selection of coordinates
            is made according to the corresponding   d i r e c t   coordinates!
            Don't support selection of single cartesian coordinates -- sorry ...
  !
 charge density and potential will be updated during run
 spin polarized calculation
 RMM-DIIS sequential band-by-band and
  variant of blocked Davidson during initial phase
 perform sub-space diagonalisation
    before iterative eigenvector-optimisation
 modified Broyden-mixing scheme, WC =      100.0
 initial mixing is a Kerker type mixing with AMIX =  0.4000 and BMIX =      1.0000
 Hartree-type preconditioning will be used
 using additional bands          159
 real space projection scheme for non local part
 use partial core corrections
 calculate Harris-corrections to forces 
   (improved forces if not selfconsistent)
 use gradient corrections 
 use of overlap-Matrix (Vanderbilt PP)
 Fermi weights with tetrahedron method with Bloechl corrections


--------------------------------------------------------------------------------------------------------


  energy-cutoff  :      550.00
  volume of cell :     1931.47
      direct lattice vectors                 reciprocal lattice vectors
    10.560000420  0.000000000  0.000000000     0.094696966  0.054673319  0.000000000
    -5.280000210  9.145228627  0.000000000     0.000000000  0.109346638  0.000000000
     0.000000000  0.000000000 20.000000000     0.000000000  0.000000000  0.050000000

  length of vectors
    10.560000420 10.560000420 20.000000000     0.109346638  0.109346638  0.050000000


 
 k-points in units of 2pi/SCALE and weight: mesh auto                               
   0.00000000  0.00000000  0.00000000       0.250
   0.04734848  0.02733666  0.00000000       0.250
   0.00000000  0.05467332  0.00000000       0.250
   0.04734848  0.08200998  0.00000000       0.250
 
 k-points in reciprocal lattice and weights: mesh auto                               
   0.00000000  0.00000000  0.00000000       0.250
   0.50000000 -0.00000000  0.00000000       0.250
   0.00000000  0.50000000  0.00000000       0.250
   0.50000000  0.50000000  0.00000000       0.250
 
 position of ions in fractional coordinates (direct lattice) 
   0.99999844  0.00000156  0.05579229
   0.33367775  0.16911787  0.17987373
   0.16902701  0.33342325  0.31030747
   0.00081017  0.00152404  0.41538643
   0.99999844  0.25000155  0.05579229
   0.33321441  0.41678012  0.19229472
   0.16888912  0.08716349  0.29844683
   0.99936697  0.24976412  0.42197888
   0.24999844  0.25000155  0.05579229
   0.08546023  0.41663901  0.17968138
   0.41723222  0.08502069  0.29647609
   0.24543703  0.24593849  0.44348621
   0.24999844  0.00000156  0.05579229
   0.08562113  0.16906895  0.17956206
   0.41617780  0.33374521  0.31102800
   0.24922481  0.00086090  0.41421682
   0.49999844  0.00000156  0.05579229
   0.83408820  0.16707790  0.17691543
   0.66489988  0.33268368  0.29647253
   0.50000445  0.99958748  0.41675275
   0.49999843  0.25000155  0.05579229
   0.83313014  0.41624105  0.17504031
   0.66676484  0.08315532  0.29642294
   0.50154088  0.24837687  0.42483043
   0.74999841  0.25000155  0.05579229
   0.58086807  0.41630885  0.17986715
   0.91791033  0.08445144  0.29604008
   0.75029755  0.24989305  0.41673045
   0.74999842  0.00000156  0.05579229
   0.58270917  0.16726320  0.17734884
   0.91781622  0.33244013  0.29601495
   0.75031804  0.99957187  0.41688186
   0.99999844  0.50000154  0.05579229
   0.33335499  0.66454071  0.17969709
   0.16800884  0.83350279  0.29165357
   0.99947887  0.49988989  0.41515441
   0.99999843  0.75000151  0.05579229
   0.33374584  0.91685369  0.17504602
   0.16910102  0.58083546  0.29900365
   0.99947046  0.75042811  0.40991068
   0.24999843  0.75000151  0.05579229
   0.08431408  0.91840332  0.17443868
   0.41649715  0.58089802  0.31031896
   0.25001583  0.75043404  0.41518910
   0.24999844  0.50000154  0.05579229
   0.08416872  0.66580661  0.17462485
   0.41748606  0.83211211  0.29604010
   0.24670496  0.50319055  0.43651065
   0.49999844  0.50000154  0.05579229
   0.83157697  0.66566919  0.17444096
   0.66547966  0.83202067  0.29605708
   0.50395575  0.50445525  0.44346155
   0.49999843  0.75000151  0.05579229
   0.83307592  0.91690728  0.17521969
   0.66275983  0.58104128  0.29845239
   0.50014655  0.75055035  0.42200370
   0.74999841  0.75000151  0.05579229
   0.58289917  0.91589166  0.17692213
   0.91641696  0.58192976  0.29164902
   0.74835829  0.74906232  0.41540519
   0.74999839  0.50000154  0.05579229
   0.58091302  0.66436476  0.17957086
   0.91624973  0.83367694  0.29169202
   0.74902533  0.50066136  0.41422196
   0.31728783  0.43283295  0.49224653
   0.43302366  0.31612919  0.48577245
 
 position of ions in cartesian coordinates  (Angst):
  10.55997578  0.00001422  1.11584590
   2.63069478  1.54662155  3.59747455
   0.02445045  3.04923187  6.20614948
   0.00050845  0.01393766  8.30772850
   9.23997574  2.28632132  1.11584590
   1.31814516  3.81154946  3.84589438
   1.32324587  0.79713007  5.96893669
   9.23456095  2.28415002  8.43957758
   1.31997542  2.28632132  1.11584590
  -1.29739403  3.81025901  3.59362770
   3.95706310  0.77753367  5.92952184
   1.29325984  2.24916376  8.86972424
   2.63997547  0.00001422  1.11584590
   0.01147510  1.54617421  3.59124119
   2.63266296  3.05217626  6.22056009
   2.62726852  0.00787313  8.28433635
   5.27997557  0.00001422  1.11584590
   7.92580040  1.52796563  3.53830859
   5.26477311  3.04246833  5.92945056
   0.00222506  9.14145601  8.33505500
   3.95997540  2.28632132  1.11584590
   6.60010182  3.80661957  3.50080617
   6.60197686  0.76047441  5.92845888
   3.98484196  2.27146327  8.49660860
   6.59997527  2.28632132  1.11584590
   3.93585623  3.80723957  3.59734301
   9.24722983  0.77232773  5.92080154
   6.60370711  2.28532908  8.33460891
   7.91997543  0.00001422  1.11584590
   5.27025937  1.52966019  3.54697681
   7.93685566  3.04024099  5.92029890
   2.64561919  9.14131324  8.33763717
   7.91997567  4.57262842  1.11584590
   0.01145372  6.07737676  3.59394175
  -2.62672142  7.62257354  5.83307133
   7.91507857  4.57160734  8.30308818
   6.59997574  6.85893527  1.11584590
  -1.31663146  8.38483663  3.50092044
  -1.28110452  5.31187309  5.98007304
   6.59214786  6.86283664  8.19821355
  -1.32002457  6.85893527  1.11584590
  -3.95881297  8.39900835  3.48877353
   1.33106839  5.31244519  6.20637917
  -1.32212466  6.86289089  8.30378197
  -0.00002464  4.57262842  1.11584590
  -2.62663737  6.08895370  3.49249704
   0.01510084  7.60985547  5.92080192
  -0.05164172  4.60179264  8.73021306
   2.63997546  4.57262842  1.11584590
   5.26671966  6.08769694  3.48881917
   2.63439619  7.60901926  5.92114167
   2.65824915  4.61335856  8.86923109
   1.31997553  6.85893527  1.11584590
   3.95601147  8.38532673  3.50439372
   3.93084596  5.31375533  5.96904790
   1.31864182  6.86395454  8.44007405
   3.95997540  6.85893527  1.11584590
   1.31950736  8.37603864  3.53844261
   6.60477417  5.32188072  5.83298046
   3.94761468  6.85034620  8.30810386
   5.27997509  4.57262842  1.11584590
   2.62659559  6.07576766  3.59141725
   5.27378316  7.62416617  5.83384042
   5.26621567  4.57866259  8.28443915
   1.06520156  3.95835628  9.84493058
   2.90356780  2.89107376  9.71544895
 


--------------------------------------------------------------------------------------------------------


 k-point  1 :   0.0000 0.0000 0.0000  plane waves:   56579
 k-point  2 :   0.5000-0.0000 0.0000  plane waves:   56606
 k-point  3 :   0.0000 0.5000 0.0000  plane waves:   56606
 k-point  4 :   0.5000 0.5000 0.0000  plane waves:   56606

 maximum and minimum number of plane-waves per node :     56606    56579

 maximum number of plane-waves:     56606
 maximum index in each direction: 
   IXMAX=   20   IYMAX=   20   IZMAX=   38
   IXMIN=  -20   IYMIN=  -20   IZMIN=  -38


 serial   3D FFT for wavefunctions
 parallel 3D FFT for charge:
    minimum data exchange during FFTs selected (reduces bandwidth)


 total amount of memory used by VASP MPI-rank0   335957. kBytes
=======================================================================

   base      :      30000. kBytes
   nonlr-proj:      89575. kBytes
   fftplans  :      13334. kBytes
   grid      :     112154. kBytes
   one-center:       2052. kBytes
   wavefun   :      88842. kBytes
 
     INWAV:  cpu time    0.0000: real time    0.0000
 Broyden mixing: mesh for mixing (old mesh)
   NGX = 41   NGY = 41   NGZ = 77
  (NGX  =168   NGY  =168   NGZ  =320)
  gives a total of 129437 points

 initial charge density was supplied:
 charge density of overlapping atoms calculated
 number of electron     642.0000000 magnetization     130.0000000
 keeping initial charge density in first step


--------------------------------------------------------------------------------------------------------


 Maximum index for non-local projection operator         7918
 Maximum index for augmentation-charges         2181 (set IRDMAX)


--------------------------------------------------------------------------------------------------------


 First call to EWALD:  gamma=   0.142
 Maximum number of real-space cells 4x 4x 2
 Maximum number of reciprocal cells 2x 2x 4

    FEWALD:  cpu time    0.0044: real time    0.0044


--------------------------------------- Iteration      1(   1)  ---------------------------------------


    POTLOK:  cpu time    0.5627: real time    0.5869
    SETDIJ:  cpu time    0.0452: real time    0.0456
     EDDAV:  cpu time   53.6051: real time   53.9719
 BZINTS: Fermi energy: 14.004871;642.000000 electrons
         Band energy:4677.582441;  BLOECHL correction: -0.000352
       DOS:  cpu time    0.0147: real time    0.0148
    --------------------------------------------
      LOOP:  cpu time   54.2277: real time   54.6192

 eigenvalue-minimisations  :  7680
 total energy-change (2. order) : 0.4350527E+04  (-0.3121972E+05)
 number of electron     642.0000000 magnetization     130.0000000
 augmentation part      642.0000000 magnetization     130.0000000

 Free energy of the ion-electron system (eV)
  ---------------------------------------------------
  alpha Z        PSCENC =      2023.78361127
  Ewald energy   TEWEN  =    123984.33645405
  -Hartree energ DENC   =   -175096.33328438
  -exchange      EXHF   =         0.00000000
  -V(xc)+E(xc)   XCENC  =       263.74932627
  PAW double counting   =     44535.65345321   -42726.61560978
  entropy T*S    EENTRO =         0.00000000
  eigenvalues    EBANDS =      4677.58244126
  atomic energy  EATOM  =     46688.37031544
  Solvation  Ediel_sol  =         0.00000000
  ---------------------------------------------------
  free energy    TOTEN  =      4350.52670733 eV

  energy without entropy =     4350.52670733  energy(sigma->0) =     4350.52670733


--------------------------------------------------------------------------------------------------------




--------------------------------------- Iteration      1(   2)  ---------------------------------------


     EDDAV:  cpu time   57.6630: real time   57.8007
 BZINTS: Fermi energy:  4.269081;642.000000 electrons
         Band energy: 149.605369;  BLOECHL correction: -0.539453
       DOS:  cpu time    0.0195: real time    0.0195
    --------------------------------------------
      LOOP:  cpu time   57.6825: real time   57.8202

 eigenvalue-minimisations  :  8480
 total energy-change (2. order) :-0.4527977E+04  (-0.4146710E+04)
 number of electron     642.0000000 magnetization     130.0000000
 augmentation part      642.0000000 magnetization     130.0000000

 Free energy of the ion-electron system (eV)
  ---------------------------------------------------
  alpha Z        PSCENC =      2023.78361127
  Ewald energy   TEWEN  =    123984.33645405
  -Hartree energ DENC   =   -175096.33328438
  -exchange      EXHF   =         0.00000000
  -V(xc)+E(xc)   XCENC  =       263.74932627
  PAW double counting   =     44535.65345321   -42726.61560978
  entropy T*S    EENTRO =         0.00000000
  eigenvalues    EBANDS =       149.60536903
  atomic energy  EATOM  =     46688.37031544
  Solvation  Ediel_sol  =         0.00000000
  ---------------------------------------------------
  free energy    TOTEN  =      -177.45036489 eV

  energy without entropy =     -177.45036489  energy(sigma->0) =     -177.45036489


--------------------------------------------------------------------------------------------------------




--------------------------------------- Iteration      1(   3)  ---------------------------------------


     EDDAV:  cpu time   59.5635: real time   59.7370
 BZINTS: Fermi energy:  3.792531;642.000000 electrons
         Band energy: -43.033590;  BLOECHL correction: -0.736163
       DOS:  cpu time    0.0208: real time    0.0208
    --------------------------------------------
      LOOP:  cpu time   59.5843: real time   59.7579

 eigenvalue-minimisations  :  8800
 total energy-change (2. order) :-0.1926390E+03  (-0.1859177E+03)
 number of electron     642.0000000 magnetization     130.0000000
 augmentation part      642.0000000 magnetization     130.0000000

 Free energy of the ion-electron system (eV)
  ---------------------------------------------------
  alpha Z        PSCENC =      2023.78361127
  Ewald energy   TEWEN  =    123984.33645405
  -Hartree energ DENC   =   -175096.33328438
  -exchange      EXHF   =         0.00000000
  -V(xc)+E(xc)   XCENC  =       263.74932627
  PAW double counting   =     44535.65345321   -42726.61560978
  entropy T*S    EENTRO =         0.00000000
  eigenvalues    EBANDS =       -43.03358967
  atomic energy  EATOM  =     46688.37031544
  Solvation  Ediel_sol  =         0.00000000
  ---------------------------------------------------
  free energy    TOTEN  =      -370.08932360 eV

  energy without entropy =     -370.08932360  energy(sigma->0) =     -370.08932360


--------------------------------------------------------------------------------------------------------




--------------------------------------- Iteration      1(   4)  ---------------------------------------


     EDDAV:  cpu time   61.4269: real time   61.6075
 BZINTS: Fermi energy:  3.783748;642.000000 electrons
         Band energy: -46.307674;  BLOECHL correction: -0.736223
       DOS:  cpu time    0.0215: real time    0.0215
    --------------------------------------------
      LOOP:  cpu time   61.4484: real time   61.6290

 eigenvalue-minimisations  :  9120
 total energy-change (2. order) :-0.3274084E+01  (-0.3266883E+01)
 number of electron     642.0000000 magnetization     130.0000000
 augmentation part      642.0000000 magnetization     130.0000000

 Free energy of the ion-electron system (eV)
  ---------------------------------------------------
  alpha Z        PSCENC =      2023.78361127
  Ewald energy   TEWEN  =    123984.33645405
  -Hartree energ DENC   =   -175096.33328438
  -exchange      EXHF   =         0.00000000
  -V(xc)+E(xc)   XCENC  =       263.74932627
  PAW double counting   =     44535.65345321   -42726.61560978
  entropy T*S    EENTRO =         0.00000000
  eigenvalues    EBANDS =       -46.30767388
  atomic energy  EATOM  =     46688.37031544
  Solvation  Ediel_sol  =         0.00000000
  ---------------------------------------------------
  free energy    TOTEN  =      -373.36340781 eV

  energy without entropy =     -373.36340781  energy(sigma->0) =     -373.36340781


--------------------------------------------------------------------------------------------------------




--------------------------------------- Iteration      1(   5)  ---------------------------------------


     EDDAV:  cpu time   58.5463: real time   58.6848
 BZINTS: Fermi energy:  3.783522;642.000000 electrons
         Band energy: -46.388070;  BLOECHL correction: -0.736082
       DOS:  cpu time    0.0215: real time    0.0216
    CHARGE:  cpu time    2.5806: real time    2.5870
    MIXING:  cpu time    0.0123: real time    0.0134
    --------------------------------------------
      LOOP:  cpu time   61.1607: real time   61.3068

 eigenvalue-minimisations  :  8680
 total energy-change (2. order) :-0.8039624E-01  (-0.8043815E-01)
 number of electron     642.0000055 magnetization     117.4979223
 augmentation part      185.4521434 magnetization      93.3954931

 Broyden mixing:
  rms(total) = 0.11279E+02    rms(broyden)= 0.11279E+02
  rms(prec ) = 0.11374E+02
  weight for this iteration     100.00

 Free energy of the ion-electron system (eV)
  ---------------------------------------------------
  alpha Z        PSCENC =      2023.78361127
  Ewald energy   TEWEN  =    123984.33645405
  -Hartree energ DENC   =   -175096.33328438
  -exchange      EXHF   =         0.00000000
  -V(xc)+E(xc)   XCENC  =       263.74932627
  PAW double counting   =     44535.65345321   -42726.61560978
  entropy T*S    EENTRO =         0.00000000
  eigenvalues    EBANDS =       -46.38807012
  atomic energy  EATOM  =     46688.37031544
  Solvation  Ediel_sol  =         0.00000000
  ---------------------------------------------------
  free energy    TOTEN  =      -373.44380405 eV

  energy without entropy =     -373.44380405  energy(sigma->0) =     -373.44380405


--------------------------------------------------------------------------------------------------------




--------------------------------------- Iteration      1(   6)  ---------------------------------------


    POTLOK:  cpu time    0.5036: real time    0.5048
    SETDIJ:  cpu time    0.0451: real time    0.0452
    EDDIAG:  cpu time    8.1659: real time    8.1860
  RMM-DIIS:  cpu time   33.0961: real time   33.1746
    ORTHCH:  cpu time    1.2320: real time    1.2349
 BZINTS: Fermi energy:  2.852872;642.000000 electrons
         Band energy:-539.559498;  BLOECHL correction: -0.119165
       DOS:  cpu time    0.0222: real time    0.0223
    CHARGE:  cpu time    2.5661: real time    2.5722
    MIXING:  cpu time    0.0108: real time    0.0124
    --------------------------------------------
      LOOP:  cpu time   45.6418: real time   45.7524

 eigenvalue-minimisations  :  7715
 total energy-change (2. order) : 0.6591801E+02  (-0.1064245E+02)
 number of electron     642.0000055 magnetization     102.6564908
 augmentation part      196.4966136 magnetization      77.5223382

 Broyden mixing:
  rms(total) = 0.72008E+01    rms(broyden)= 0.72008E+01
  rms(prec ) = 0.74296E+01
  weight for this iteration     100.00

 eigenvalues of (default mixing * dielectric matrix)
  average eigenvalue GAMMA=   1.0103
  1.0103

 Free energy of the ion-electron system (eV)
  ---------------------------------------------------
  alpha Z        PSCENC =      2023.78361127
  Ewald energy   TEWEN  =    123984.33645405
  -Hartree energ DENC   =   -174437.14950830
  -exchange      EXHF   =         0.00000000
  -V(xc)+E(xc)   XCENC  =       271.84744222
  PAW double counting   =     50903.66094037   -49202.81555078
  entropy T*S    EENTRO =         0.00000000
  eigenvalues    EBANDS =      -539.55949779
  atomic energy  EATOM  =     46688.37031544
  Solvation  Ediel_sol  =         0.00000000
  ---------------------------------------------------
  free energy    TOTEN  =      -307.52579352 eV

  energy without entropy =     -307.52579352  energy(sigma->0) =     -307.52579352


--------------------------------------------------------------------------------------------------------




--------------------------------------- Iteration      1(   7)  ---------------------------------------


    POTLOK:  cpu time    0.5000: real time    0.5012
    SETDIJ:  cpu time    0.0452: real time    0.0453
    EDDIAG:  cpu time    8.0931: real time    8.1126
  RMM-DIIS:  cpu time   31.9003: real time   31.9901
    ORTHCH:  cpu time    1.2312: real time    1.2349
 BZINTS: Fermi energy:  4.365216;642.000000 electrons
         Band energy:  15.254238;  BLOECHL correction: -0.094741
       DOS:  cpu time    0.0226: real time    0.0226
    CHARGE:  cpu time    2.5521: real time    2.5602
    MIXING:  cpu time    0.0122: real time    0.0122
    --------------------------------------------
      LOOP:  cpu time   44.3566: real time   44.4791

 eigenvalue-minimisations  :  7682
 total energy-change (2. order) :-0.6903294E+02  (-0.7763442E+01)
 number of electron     642.0000063 magnetization      93.4080317
 augmentation part      194.8405016 magnetization      69.8711741

 Broyden mixing:
  rms(total) = 0.87429E+01    rms(broyden)= 0.87429E+01
  rms(prec ) = 0.10550E+02
  weight for this iteration     100.00

 eigenvalues of (default mixing * dielectric matrix)
  average eigenvalue GAMMA=   0.9037
  1.3676  0.4398

 Free energy of the ion-electron system (eV)
  ---------------------------------------------------
  alpha Z        PSCENC =      2023.78361127
  Ewald energy   TEWEN  =    123984.33645405
  -Hartree energ DENC   =   -175005.65818135
  -exchange      EXHF   =         0.00000000
  -V(xc)+E(xc)   XCENC  =       271.16788690
  PAW double counting   =     56377.92445518   -54731.73751001
  entropy T*S    EENTRO =         0.00000000
  eigenvalues    EBANDS =        15.25423815
  atomic energy  EATOM  =     46688.37031544
  Solvation  Ediel_sol  =         0.00000000
  ---------------------------------------------------
  free energy    TOTEN  =      -376.55873038 eV

  energy without entropy =     -376.55873038  energy(sigma->0) =     -376.55873038


--------------------------------------------------------------------------------------------------------




--------------------------------------- Iteration      1(   8)  ---------------------------------------


    POTLOK:  cpu time    0.5001: real time    0.5015
    SETDIJ:  cpu time    0.0450: real time    0.0451
    EDDIAG:  cpu time    8.0725: real time    8.0975
  RMM-DIIS:  cpu time   32.5267: real time   32.6277
    ORTHCH:  cpu time    1.4014: real time    1.4060
 BZINTS: Fermi energy:  3.166137;642.000000 electrons
         Band energy:-308.352866;  BLOECHL correction: -0.139362
       DOS:  cpu time    0.0216: real time    0.0217
    CHARGE:  cpu time    2.5546: real time    2.5613
    MIXING:  cpu time    0.0122: real time    0.0122
    --------------------------------------------
      LOOP:  cpu time   45.1342: real time   45.2730

 eigenvalue-minimisations  :  7712
 total energy-change (2. order) : 0.8431591E+02  (-0.4826470E+01)
 number of electron     642.0000057 magnetization      83.7417673
 augmentation part      198.9151952 magnetization      61.7381630

 Broyden mixing:
  rms(total) = 0.40885E+01    rms(broyden)= 0.40885E+01
  rms(prec ) = 0.47240E+01
  weight for this iteration     100.00

 eigenvalues of (default mixing * dielectric matrix)
  average eigenvalue GAMMA=   0.9937
  2.0515  0.6541  0.2756

 Free energy of the ion-electron system (eV)
  ---------------------------------------------------
  alpha Z        PSCENC =      2023.78361127
  Ewald energy   TEWEN  =    123984.33645405
  -Hartree energ DENC   =   -174576.82498035
  -exchange      EXHF   =         0.00000000
  -V(xc)+E(xc)   XCENC  =       280.03215008
  PAW double counting   =     59092.88223282   -57476.46973397
  entropy T*S    EENTRO =         0.00000000
  eigenvalues    EBANDS =      -308.35286631
  atomic energy  EATOM  =     46688.37031544
  Solvation  Ediel_sol  =         0.00000000
  ---------------------------------------------------
  free energy    TOTEN  =      -292.24281698 eV

  energy without entropy =     -292.24281698  energy(sigma->0) =     -292.24281698


--------------------------------------------------------------------------------------------------------




--------------------------------------- Iteration      1(   9)  ---------------------------------------


    POTLOK:  cpu time    0.4993: real time    0.5005
    SETDIJ:  cpu time    0.0451: real time    0.0452
    EDDIAG:  cpu time    8.1111: real time    8.1307
  RMM-DIIS:  cpu time   32.7031: real time   32.7806
    ORTHCH:  cpu time    1.2282: real time    1.2312
 BZINTS: Fermi energy:  3.666563;642.000000 electrons
         Band energy:-243.530918;  BLOECHL correction: -0.043755
       DOS:  cpu time    0.0192: real time    0.0192
    CHARGE:  cpu time    2.5426: real time    2.5487
    MIXING:  cpu time    0.0127: real time    0.0127
    --------------------------------------------
      LOOP:  cpu time   45.1613: real time   45.2687

 eigenvalue-minimisations  :  7700
 total energy-change (2. order) :-0.3567367E+02  (-0.2012826E+01)
 number of electron     642.0000053 magnetization      78.9819313
 augmentation part      197.7303625 magnetization      59.2010949

 Broyden mixing:
  rms(total) = 0.60379E+01    rms(broyden)= 0.60379E+01
  rms(prec ) = 0.90030E+01
  weight for this iteration     100.00

 eigenvalues of (default mixing * dielectric matrix)
  average eigenvalue GAMMA=   0.8589
  2.2330  0.7063  0.3043  0.1920

 Free energy of the ion-electron system (eV)
  ---------------------------------------------------
  alpha Z        PSCENC =      2023.78361127
  Ewald energy   TEWEN  =    123984.33645405
  -Hartree energ DENC   =   -174656.20898047
  -exchange      EXHF   =         0.00000000
  -V(xc)+E(xc)   XCENC  =       274.82727287
  PAW double counting   =     60915.49777645   -59314.99201922
  entropy T*S    EENTRO =         0.00000000
  eigenvalues    EBANDS =      -243.53091821
  atomic energy  EATOM  =     46688.37031544
  Solvation  Ediel_sol  =         0.00000000
  ---------------------------------------------------
  free energy    TOTEN  =      -327.91648782 eV

  energy without entropy =     -327.91648782  energy(sigma->0) =     -327.91648782


--------------------------------------------------------------------------------------------------------




--------------------------------------- Iteration      1(  10)  ---------------------------------------


    POTLOK:  cpu time    0.4998: real time    0.5010
    SETDIJ:  cpu time    0.0453: real time    0.0454
    EDDIAG:  cpu time    8.1160: real time    8.1354
  RMM-DIIS:  cpu time   32.6774: real time   32.7810
    ORTHCH:  cpu time    1.2267: real time    1.2302
 BZINTS: Fermi energy:  3.494381;642.000000 electrons
         Band energy:-127.433969;  BLOECHL correction: -0.148789
       DOS:  cpu time    0.0221: real time    0.0222
    CHARGE:  cpu time    2.5616: real time    2.5696
    MIXING:  cpu time    0.0141: real time    0.0142
    --------------------------------------------
      LOOP:  cpu time   45.1630: real time   45.2989

 eigenvalue-minimisations  :  7722
 total energy-change (2. order) : 0.2044380E+02  (-0.8892091E+00)
 number of electron     642.0000060 magnetization      74.2321804
 augmentation part      198.1811953 magnetization      52.0338134

 Broyden mixing:
  rms(total) = 0.38870E+01    rms(broyden)= 0.38870E+01
  rms(prec ) = 0.51393E+01
  weight for this iteration     100.00

 eigenvalues of (default mixing * dielectric matrix)
  average eigenvalue GAMMA=   0.7729
  2.2849  0.7450  0.4594  0.2488  0.1264

 Free energy of the ion-electron system (eV)
  ---------------------------------------------------
  alpha Z        PSCENC =      2023.78361127
  Ewald energy   TEWEN  =    123984.33645405
  -Hartree energ DENC   =   -174742.60351734
  -exchange      EXHF   =         0.00000000
  -V(xc)+E(xc)   XCENC  =       271.32483977
  PAW double counting   =     61573.62973177   -59978.88015499
  entropy T*S    EENTRO =         0.00000000
  eigenvalues    EBANDS =      -127.43396938
  atomic energy  EATOM  =     46688.37031544
  Solvation  Ediel_sol  =         0.00000000
  ---------------------------------------------------
  free energy    TOTEN  =      -307.47268941 eV

  energy without entropy =     -307.47268941  energy(sigma->0) =     -307.47268941


--------------------------------------------------------------------------------------------------------




--------------------------------------- Iteration      1(  11)  ---------------------------------------


    POTLOK:  cpu time    0.5050: real time    0.5062
    SETDIJ:  cpu time    0.0454: real time    0.0455
    EDDIAG:  cpu time    8.0944: real time    8.1195
  RMM-DIIS:  cpu time   32.4989: real time   32.5995
    ORTHCH:  cpu time    1.2204: real time    1.2242
 BZINTS: Fermi energy:  3.467834;642.000000 electrons
         Band energy: -95.484875;  BLOECHL correction: -0.335791
       DOS:  cpu time    0.0226: real time    0.0227
    CHARGE:  cpu time    2.5622: real time    2.5703
    MIXING:  cpu time    0.0136: real time    0.0136
    --------------------------------------------
      LOOP:  cpu time   44.9625: real time   45.1015

 eigenvalue-minimisations  :  7708
 total energy-change (2. order) : 0.9408317E-01  (-0.7536660E+00)
 number of electron     642.0000056 magnetization      70.3785067
 augmentation part      197.7597460 magnetization      50.5389764

 Broyden mixing:
  rms(total) = 0.21764E+01    rms(broyden)= 0.21764E+01
  rms(prec ) = 0.24936E+01
  weight for this iteration     100.00

 eigenvalues of (default mixing * dielectric matrix)
  average eigenvalue GAMMA=   0.7390
  2.0827  0.8734  0.7809  0.2881  0.2881  0.1209

 Free energy of the ion-electron system (eV)
  ---------------------------------------------------
  alpha Z        PSCENC =      2023.78361127
  Ewald energy   TEWEN  =    123984.33645405
  -Hartree energ DENC   =   -174767.03940372
  -exchange      EXHF   =         0.00000000
  -V(xc)+E(xc)   XCENC  =       265.89996396
  PAW double counting   =     61797.92387855   -60205.16855049
  entropy T*S    EENTRO =         0.00000000
  eigenvalues    EBANDS =       -95.48487529
  atomic energy  EATOM  =     46688.37031544
  Solvation  Ediel_sol  =         0.00000000
  ---------------------------------------------------
  free energy    TOTEN  =      -307.37860624 eV

  energy without entropy =     -307.37860624  energy(sigma->0) =     -307.37860624


--------------------------------------------------------------------------------------------------------




--------------------------------------- Iteration      1(  12)  ---------------------------------------


    POTLOK:  cpu time    0.5024: real time    0.5037
    SETDIJ:  cpu time    0.0451: real time    0.0454
    EDDIAG:  cpu time    8.1244: real time    8.1498
  RMM-DIIS:  cpu time   32.9138: real time   33.0239
    ORTHCH:  cpu time    1.4042: real time    1.4106
 BZINTS: Fermi energy:  3.357706;642.000000 electrons
         Band energy:-152.016370;  BLOECHL correction: -0.218157
       DOS:  cpu time    0.0213: real time    0.0213
    CHARGE:  cpu time    2.5619: real time    2.5681
    MIXING:  cpu time    0.0141: real time    0.0141
    --------------------------------------------
      LOOP:  cpu time   45.5872: real time   45.7367

 eigenvalue-minimisations  :  7716
 total energy-change (2. order) :-0.7560731E+01  (-0.3314579E+00)
 number of electron     642.0000055 magnetization      65.1081871
 augmentation part      197.5138304 magnetization      46.5522744

 Broyden mixing:
  rms(total) = 0.17163E+01    rms(broyden)= 0.17163E+01
  rms(prec ) = 0.17652E+01
  weight for this iteration     100.00

 eigenvalues of (default mixing * dielectric matrix)
  average eigenvalue GAMMA=   0.7237
  2.1067  0.7577  0.7577  0.7515  0.2860  0.2860  0.1206

 Free energy of the ion-electron system (eV)
  ---------------------------------------------------
  alpha Z        PSCENC =      2023.78361127
  Ewald energy   TEWEN  =    123984.33645405
  -Hartree energ DENC   =   -174719.89470755
  -exchange      EXHF   =         0.00000000
  -V(xc)+E(xc)   XCENC  =       261.08907156
  PAW double counting   =     61071.75134216   -59472.35905381
  entropy T*S    EENTRO =         0.00000000
  eigenvalues    EBANDS =      -152.01637017
  atomic energy  EATOM  =     46688.37031544
  Solvation  Ediel_sol  =         0.00000000
  ---------------------------------------------------
  free energy    TOTEN  =      -314.93933705 eV

  energy without entropy =     -314.93933705  energy(sigma->0) =     -314.93933705


--------------------------------------------------------------------------------------------------------




--------------------------------------- Iteration      1(  13)  ---------------------------------------


    POTLOK:  cpu time    0.5008: real time    0.5020
    SETDIJ:  cpu time    0.0452: real time    0.0454
    EDDIAG:  cpu time    8.1262: real time    8.1458
  RMM-DIIS:  cpu time   32.8697: real time   32.9479
    ORTHCH:  cpu time    1.2292: real time    1.2321
 BZINTS: Fermi energy:  3.370870;642.000000 electrons
         Band energy:-145.008397;  BLOECHL correction: -0.265155
       DOS:  cpu time    0.0227: real time    0.0227
    CHARGE:  cpu time    2.5552: real time    2.5613
    MIXING:  cpu time    0.0138: real time    0.0138
    --------------------------------------------
      LOOP:  cpu time   45.3627: real time   45.4709

 eigenvalue-minimisations  :  7716
 total energy-change (2. order) :-0.5046541E+01  (-0.1336615E+00)
 number of electron     642.0000056 magnetization      54.3807714
 augmentation part      197.5733951 magnetization      36.8230175

 Broyden mixing:
  rms(total) = 0.16383E+01    rms(broyden)= 0.16383E+01
  rms(prec ) = 0.17648E+01
  weight for this iteration     100.00

 eigenvalues of (default mixing * dielectric matrix)
  average eigenvalue GAMMA=   0.7358
  2.0666  1.1647  0.7992  0.7992  0.3369  0.2995  0.2995  0.1205

 Free energy of the ion-electron system (eV)
  ---------------------------------------------------
  alpha Z        PSCENC =      2023.78361127
  Ewald energy   TEWEN  =    123984.33645405
  -Hartree energ DENC   =   -174727.50507646
  -exchange      EXHF   =         0.00000000
  -V(xc)+E(xc)   XCENC  =       258.36699762
  PAW double counting   =     61130.45896242   -59532.78874461
  entropy T*S    EENTRO =         0.00000000
  eigenvalues    EBANDS =      -145.00839729
  atomic energy  EATOM  =     46688.37031544
  Solvation  Ediel_sol  =         0.00000000
  ---------------------------------------------------
  free energy    TOTEN  =      -319.98587756 eV

  energy without entropy =     -319.98587756  energy(sigma->0) =     -319.98587756


--------------------------------------------------------------------------------------------------------




--------------------------------------- Iteration      1(  14)  ---------------------------------------


    POTLOK:  cpu time    0.5020: real time    0.5032
    SETDIJ:  cpu time    0.0452: real time    0.0453
    EDDIAG:  cpu time    8.1927: real time    8.2124
  RMM-DIIS:  cpu time   32.9719: real time   33.0500
    ORTHCH:  cpu time    1.2209: real time    1.2238
 BZINTS: Fermi energy:  3.321829;642.000000 electrons
         Band energy:-165.614157;  BLOECHL correction: -0.144054
       DOS:  cpu time    0.0220: real time    0.0220
    CHARGE:  cpu time    2.5629: real time    2.5691
    MIXING:  cpu time    0.0150: real time    0.0150
    --------------------------------------------
      LOOP:  cpu time   45.5326: real time   45.6409

 eigenvalue-minimisations  :  7706
 total energy-change (2. order) :-0.1237845E+02  (-0.4187872E+00)
 number of electron     642.0000055 magnetization      39.4218460
 augmentation part      197.3919604 magnetization      24.4880955

 Broyden mixing:
  rms(total) = 0.15002E+01    rms(broyden)= 0.15002E+01
  rms(prec ) = 0.16456E+01
  weight for this iteration     100.00

 eigenvalues of (default mixing * dielectric matrix)
  average eigenvalue GAMMA=   0.8041
  2.3004  1.6593  0.9125  0.9125  0.5028  0.1205  0.2884  0.2884  0.2519

 Free energy of the ion-electron system (eV)
  ---------------------------------------------------
  alpha Z        PSCENC =      2023.78361127
  Ewald energy   TEWEN  =    123984.33645405
  -Hartree energ DENC   =   -174710.28411602
  -exchange      EXHF   =         0.00000000
  -V(xc)+E(xc)   XCENC  =       250.67865049
  PAW double counting   =     61072.49558906   -59476.13067648
  entropy T*S    EENTRO =         0.00000000
  eigenvalues    EBANDS =      -165.61415700
  atomic energy  EATOM  =     46688.37031544
  Solvation  Ediel_sol  =         0.00000000
  ---------------------------------------------------
  free energy    TOTEN  =      -332.36432921 eV

  energy without entropy =     -332.36432921  energy(sigma->0) =     -332.36432921


--------------------------------------------------------------------------------------------------------




--------------------------------------- Iteration      1(  15)  ---------------------------------------


    POTLOK:  cpu time    0.4997: real time    0.5009
    SETDIJ:  cpu time    0.0452: real time    0.0453
    EDDIAG:  cpu time    8.1261: real time    8.1456
  RMM-DIIS:  cpu time   32.9549: real time   33.0347
    ORTHCH:  cpu time    1.2660: real time    1.2701
 BZINTS: Fermi energy:  3.335046;642.000000 electrons
         Band energy:-149.659278;  BLOECHL correction: -0.128149
       DOS:  cpu time    0.0171: real time    0.0172
    CHARGE:  cpu time    2.4508: real time    2.4579
    MIXING:  cpu time    0.0154: real time    0.0154
    --------------------------------------------
      LOOP:  cpu time   45.3753: real time   45.4871

 eigenvalue-minimisations  :  7706
 total energy-change (2. order) :-0.1710236E+02  (-0.8936697E+00)
 number of electron     642.0000057 magnetization      30.0256863
 augmentation part      197.3437481 magnetization      19.0536642

 Broyden mixing:
  rms(total) = 0.10795E+01    rms(broyden)= 0.10795E+01
  rms(prec ) = 0.11650E+01
  weight for this iteration     100.00

 eigenvalues of (default mixing * dielectric matrix)
  average eigenvalue GAMMA=   0.8711
  2.5777  2.2532  0.9449  0.9449  0.5722  0.4872  0.1205  0.2854  0.2854  0.2396

 Free energy of the ion-electron system (eV)
  ---------------------------------------------------
  alpha Z        PSCENC =      2023.78361127
  Ewald energy   TEWEN  =    123984.33645405
  -Hartree energ DENC   =   -174729.17351233
  -exchange      EXHF   =         0.00000000
  -V(xc)+E(xc)   XCENC  =       239.28716425
  PAW double counting   =     61105.10621405   -59511.51766066
  entropy T*S    EENTRO =         0.00000000
  eigenvalues    EBANDS =      -149.65927848
  atomic energy  EATOM  =     46688.37031544
  Solvation  Ediel_sol  =         0.00000000
  ---------------------------------------------------
  free energy    TOTEN  =      -349.46669242 eV

  energy without entropy =     -349.46669242  energy(sigma->0) =     -349.46669242


--------------------------------------------------------------------------------------------------------




--------------------------------------- Iteration      1(  16)  ---------------------------------------


    POTLOK:  cpu time    0.4739: real time    0.4756
    SETDIJ:  cpu time    0.0428: real time    0.0429
    EDDIAG:  cpu time    8.3572: real time    8.3830
  RMM-DIIS:  cpu time   32.9140: real time   33.0147
    ORTHCH:  cpu time    1.2731: real time    1.2768
 BZINTS: Fermi energy:  3.268123;642.000000 electrons
         Band energy:-176.220956;  BLOECHL correction: -0.144803
       DOS:  cpu time    0.0212: real time    0.0214
    CHARGE:  cpu time    2.4623: real time    2.4698
    MIXING:  cpu time    0.0149: real time    0.0150
    --------------------------------------------
      LOOP:  cpu time   45.5595: real time   45.6992

 eigenvalue-minimisations  :  7704
 total energy-change (2. order) :-0.1080331E+02  (-0.7192281E+00)
 number of electron     642.0000056 magnetization      20.5189480
 augmentation part      197.0897216 magnetization      11.9779238

 Broyden mixing:
  rms(total) = 0.75596E+00    rms(broyden)= 0.75596E+00
  rms(prec ) = 0.82094E+00
  weight for this iteration     100.00

 eigenvalues of (default mixing * dielectric matrix)
  average eigenvalue GAMMA=   1.0066
  4.1979  2.2578  0.9957  0.9957  0.6806  0.6806  0.1205  0.2897  0.2897  0.3364
  0.2279

 Free energy of the ion-electron system (eV)
  ---------------------------------------------------
  alpha Z        PSCENC =      2023.78361127
  Ewald energy   TEWEN  =    123984.33645405
  -Hartree energ DENC   =   -174707.66521068
  -exchange      EXHF   =         0.00000000
  -V(xc)+E(xc)   XCENC  =       232.30412753
  PAW double counting   =     60861.12977800   -59266.30812620
  entropy T*S    EENTRO =         0.00000000
  eigenvalues    EBANDS =      -176.22095636
  atomic energy  EATOM  =     46688.37031544
  Solvation  Ediel_sol  =         0.00000000
  ---------------------------------------------------
  free energy    TOTEN  =      -360.27000695 eV

  energy without entropy =     -360.27000695  energy(sigma->0) =     -360.27000695


--------------------------------------------------------------------------------------------------------




--------------------------------------- Iteration      1(  17)  ---------------------------------------


    POTLOK:  cpu time    0.4751: real time    0.4762
    SETDIJ:  cpu time    0.0424: real time    0.0427
    EDDIAG:  cpu time    8.3121: real time    8.3374
  RMM-DIIS:  cpu time   32.8365: real time   32.9373
    ORTHCH:  cpu time    1.3444: real time    1.3485
 BZINTS: Fermi energy:  3.211297;642.000000 electrons
         Band energy:-201.424333;  BLOECHL correction: -0.130795
       DOS:  cpu time    0.0195: real time    0.0195
    CHARGE:  cpu time    2.4658: real time    2.4743
    MIXING:  cpu time    0.0157: real time    0.0157
    --------------------------------------------
      LOOP:  cpu time   45.5115: real time   45.6517

 eigenvalue-minimisations  :  7699
 total energy-change (2. order) :-0.7611163E+01  (-0.6109053E+00)
 number of electron     642.0000057 magnetization      16.0823869
 augmentation part      197.0112706 magnetization       9.3363572

 Broyden mixing:
  rms(total) = 0.80873E+00    rms(broyden)= 0.80873E+00
  rms(prec ) = 0.94850E+00
  weight for this iteration     100.00

 eigenvalues of (default mixing * dielectric matrix)
  average eigenvalue GAMMA=   1.1109
  5.8400  2.3307  1.0272  1.0272  0.8381  0.5718  0.4909  0.1205  0.2892  0.2892
  0.2786  0.2270

 Free energy of the ion-electron system (eV)
  ---------------------------------------------------
  alpha Z        PSCENC =      2023.78361127
  Ewald energy   TEWEN  =    123984.33645405
  -Hartree energ DENC   =   -174685.57943075
  -exchange      EXHF   =         0.00000000
  -V(xc)+E(xc)   XCENC  =       227.28868922
  PAW double counting   =     60676.34602516   -59081.00250137
  entropy T*S    EENTRO =         0.00000000
  eigenvalues    EBANDS =      -201.42433318
  atomic energy  EATOM  =     46688.37031544
  Solvation  Ediel_sol  =         0.00000000
  ---------------------------------------------------
  free energy    TOTEN  =      -367.88117018 eV

  energy without entropy =     -367.88117018  energy(sigma->0) =     -367.88117018


--------------------------------------------------------------------------------------------------------




--------------------------------------- Iteration      1(  18)  ---------------------------------------


    POTLOK:  cpu time    0.4765: real time    0.4776
    SETDIJ:  cpu time    0.0428: real time    0.0429
    EDDIAG:  cpu time    8.6709: real time    8.6919
  RMM-DIIS:  cpu time   32.7833: real time   32.8610
    ORTHCH:  cpu time    1.2587: real time    1.2617
 BZINTS: Fermi energy:  3.137153;642.000000 electrons
         Band energy:-240.665455;  BLOECHL correction: -0.116791
       DOS:  cpu time    0.0196: real time    0.0196
    CHARGE:  cpu time    2.4765: real time    2.4823
    MIXING:  cpu time    0.0164: real time    0.0165
    --------------------------------------------
      LOOP:  cpu time   45.7447: real time   45.8535

 eigenvalue-minimisations  :  7702
 total energy-change (2. order) :-0.2425268E+01  (-0.2108909E+00)
 number of electron     642.0000057 magnetization      13.4834829
 augmentation part      196.9587933 magnetization       7.8528364

 Broyden mixing:
  rms(total) = 0.55906E+00    rms(broyden)= 0.55906E+00
  rms(prec ) = 0.63105E+00
  weight for this iteration     100.00

 eigenvalues of (default mixing * dielectric matrix)
  average eigenvalue GAMMA=   1.1534
  6.9794  2.3143  1.0926  1.0926  0.8498  0.5900  0.5900  0.1205  0.3275  0.2879
  0.2879  0.2366  0.2253

 Free energy of the ion-electron system (eV)
  ---------------------------------------------------
  alpha Z        PSCENC =      2023.78361127
  Ewald energy   TEWEN  =    123984.33645405
  -Hartree energ DENC   =   -174648.33618027
  -exchange      EXHF   =         0.00000000
  -V(xc)+E(xc)   XCENC  =       225.61239268
  PAW double counting   =     60497.13266260   -58900.54023875
  entropy T*S    EENTRO =         0.00000000
  eigenvalues    EBANDS =      -240.66545497
  atomic energy  EATOM  =     46688.37031544
  Solvation  Ediel_sol  =         0.00000000
  ---------------------------------------------------
  free energy    TOTEN  =      -370.30643795 eV

  energy without entropy =     -370.30643795  energy(sigma->0) =     -370.30643795


--------------------------------------------------------------------------------------------------------




--------------------------------------- Iteration      1(  19)  ---------------------------------------


    POTLOK:  cpu time    0.4748: real time    0.4759
    SETDIJ:  cpu time    0.0426: real time    0.0426
    EDDIAG:  cpu time    8.3018: real time    8.3215
  RMM-DIIS:  cpu time   32.9025: real time   32.9804
    ORTHCH:  cpu time    1.2681: real time    1.2711
 BZINTS: Fermi energy:  3.088529;642.000000 electrons
         Band energy:-269.619747;  BLOECHL correction: -0.068994
       DOS:  cpu time    0.0196: real time    0.0196
    CHARGE:  cpu time    2.4768: real time    2.4827
    MIXING:  cpu time    0.0165: real time    0.0165
    --------------------------------------------
      LOOP:  cpu time   45.5026: real time   45.6103

 eigenvalue-minimisations  :  7708
 total energy-change (2. order) :-0.9325608E+00  (-0.6879089E-01)
 number of electron     642.0000057 magnetization      11.5333145
 augmentation part      197.0250857 magnetization       6.7140129

 Broyden mixing:
  rms(total) = 0.43888E+00    rms(broyden)= 0.43888E+00
  rms(prec ) = 0.48275E+00
  weight for this iteration     100.00

 eigenvalues of (default mixing * dielectric matrix)
  average eigenvalue GAMMA=   1.1708
  7.6210  2.3008  1.2499  1.2499  0.7007  0.7007  0.6688  0.4619  0.1205  0.2885
  0.2885  0.3028  0.2316  0.2050

 Free energy of the ion-electron system (eV)
  ---------------------------------------------------
  alpha Z        PSCENC =      2023.78361127
  Ewald energy   TEWEN  =    123984.33645405
  -Hartree energ DENC   =   -174619.32323695
  -exchange      EXHF   =         0.00000000
  -V(xc)+E(xc)   XCENC  =       224.65644299
  PAW double counting   =     60472.97786283   -58876.42070103
  entropy T*S    EENTRO =         0.00000000
  eigenvalues    EBANDS =      -269.61974733
  atomic energy  EATOM  =     46688.37031544
  Solvation  Ediel_sol  =         0.00000000
  ---------------------------------------------------
  free energy    TOTEN  =      -371.23899874 eV

  energy without entropy =     -371.23899874  energy(sigma->0) =     -371.23899874


[...]
 
   4 f  =   13.168098 THz    82.737598 2PiTHz  439.240448 cm-1    54.458894 meV
             X         Y         Z           dx          dy          dz
     10.559976  0.000014  1.115846            0           0           0  
      2.630695  1.546622  3.597475            0           0           0  
      0.024450  3.049232  6.206149            0           0           0  
      0.000508  0.013938  8.307729            0           0           0  
      9.239976  2.286321  1.115846            0           0           0  
      1.318145  3.811549  3.845894            0           0           0  
      1.323246  0.797130  5.968937            0           0           0  
      9.234561  2.284150  8.439578            0           0           0  
      1.319975  2.286321  1.115846            0           0           0  
     -1.297394  3.810259  3.593628            0           0           0  
      3.957063  0.777534  5.929522            0           0           0  
      1.293260  2.249164  8.869724            0           0           0  
      2.639975  0.000014  1.115846            0           0           0  
      0.011475  1.546174  3.591241            0           0           0  
      2.632663  3.052176  6.220560            0           0           0  
      2.627269  0.007873  8.284336            0           0           0  
      5.279976  0.000014  1.115846            0           0           0  
      7.925800  1.527966  3.538309            0           0           0  
      5.264773  3.042468  5.929451            0           0           0  
      0.002225  9.141456  8.335055            0           0           0  
      3.959975  2.286321  1.115846            0           0           0  
      6.600102  3.806620  3.500806            0           0           0  
      6.601977  0.760474  5.928459            0           0           0  
      3.984842  2.271463  8.496609            0           0           0  
      6.599975  2.286321  1.115846            0           0           0  
      3.935856  3.807240  3.597343            0           0           0  
      9.247230  0.772328  5.920802            0           0           0  
      6.603707  2.285329  8.334609            0           0           0  
      7.919975  0.000014  1.115846            0           0           0  
      5.270259  1.529660  3.546977            0           0           0  
      7.936856  3.040241  5.920299            0           0           0  
      2.645619  9.141313  8.337637            0           0           0  
      7.919976  4.572628  1.115846            0           0           0  
      0.011454  6.077377  3.593942            0           0           0  
     -2.626721  7.622574  5.833071            0           0           0  
      7.915079  4.571607  8.303088            0           0           0  
      6.599976  6.858935  1.115846            0           0           0  
     -1.316631  8.384837  3.500920            0           0           0  
     -1.281105  5.311873  5.980073            0           0           0  
      6.592148  6.862837  8.198214            0           0           0  
     -1.320025  6.858935  1.115846            0           0           0  
     -3.958813  8.399008  3.488774            0           0           0  
      1.331068  5.312445  6.206379            0           0           0  
     -1.322125  6.862891  8.303782            0           0           0  
     -0.000025  4.572628  1.115846            0           0           0  
     -2.626637  6.088954  3.492497            0           0           0  
      0.015101  7.609855  5.920802            0           0           0  
     -0.051642  4.601793  8.730213            0           0           0  
      2.639975  4.572628  1.115846            0           0           0  
      5.266720  6.087697  3.488819            0           0           0  
      2.634396  7.609019  5.921142            0           0           0  
      2.658249  4.613359  8.869231            0           0           0  
      1.319976  6.858935  1.115846            0           0           0  
      3.956011  8.385327  3.504394            0           0           0  
      3.930846  5.313755  5.969048            0           0           0  
      1.318642  6.863955  8.440074            0           0           0  
      3.959975  6.858935  1.115846            0           0           0  
      1.319507  8.376039  3.538443            0           0           0  
      6.604774  5.321881  5.832980            0           0           0  
      3.947615  6.850346  8.308104            0           0           0  
      5.279975  4.572628  1.115846            0           0           0  
      2.626596  6.075768  3.591417            0           0           0  
      5.273783  7.624166  5.833840            0           0           0  
      5.266216  4.578663  8.284439            0           0           0  
      1.065202  3.958356  9.844931     0.663059   -0.379503   -0.370231  
      2.903568  2.891074  9.715449     0.455544   -0.243561    0.111433  
 
   5 f/i=    4.821542 THz    30.294640 2PiTHz  160.829315 cm-1    19.940301 meV
             X         Y         Z           dx          dy          dz
     10.559976  0.000014  1.115846            0           0           0  
      2.630695  1.546622  3.597475            0           0           0  
      0.024450  3.049232  6.206149            0           0           0  
      0.000508  0.013938  8.307729            0           0           0  
      9.239976  2.286321  1.115846            0           0           0  
      1.318145  3.811549  3.845894            0           0           0  
      1.323246  0.797130  5.968937            0           0           0  
      9.234561  2.284150  8.439578            0           0           0  
      1.319975  2.286321  1.115846            0           0           0  
     -1.297394  3.810259  3.593628            0           0           0  
      3.957063  0.777534  5.929522            0           0           0  
      1.293260  2.249164  8.869724            0           0           0  
      2.639975  0.000014  1.115846            0           0           0  
      0.011475  1.546174  3.591241            0           0           0  
      2.632663  3.052176  6.220560            0           0           0  
      2.627269  0.007873  8.284336            0           0           0  
      5.279976  0.000014  1.115846            0           0           0  
      7.925800  1.527966  3.538309            0           0           0  
      5.264773  3.042468  5.929451            0           0           0  
      0.002225  9.141456  8.335055            0           0           0  
      3.959975  2.286321  1.115846            0           0           0  
      6.600102  3.806620  3.500806            0           0           0  
      6.601977  0.760474  5.928459            0           0           0  
      3.984842  2.271463  8.496609            0           0           0  
      6.599975  2.286321  1.115846            0           0           0  
      3.935856  3.807240  3.597343            0           0           0  
      9.247230  0.772328  5.920802            0           0           0  
      6.603707  2.285329  8.334609            0           0           0  
      7.919975  0.000014  1.115846            0           0           0  
      5.270259  1.529660  3.546977            0           0           0  
      7.936856  3.040241  5.920299            0           0           0  
      2.645619  9.141313  8.337637            0           0           0  
      7.919976  4.572628  1.115846            0           0           0  
      0.011454  6.077377  3.593942            0           0           0  
     -2.626721  7.622574  5.833071            0           0           0  
      7.915079  4.571607  8.303088            0           0           0  
      6.599976  6.858935  1.115846            0           0           0  
     -1.316631  8.384837  3.500920            0           0           0  
     -1.281105  5.311873  5.980073            0           0           0  
      6.592148  6.862837  8.198214            0           0           0  
     -1.320025  6.858935  1.115846            0           0           0  
     -3.958813  8.399008  3.488774            0           0           0  
      1.331068  5.312445  6.206379            0           0           0  
     -1.322125  6.862891  8.303782            0           0           0  
     -0.000025  4.572628  1.115846            0           0           0  
     -2.626637  6.088954  3.492497            0           0           0  
      0.015101  7.609855  5.920802            0           0           0  
     -0.051642  4.601793  8.730213            0           0           0  
      2.639975  4.572628  1.115846            0           0           0  
      5.266720  6.087697  3.488819            0           0           0  
      2.634396  7.609019  5.921142            0           0           0  
      2.658249  4.613359  8.869231            0           0           0  
      1.319976  6.858935  1.115846            0           0           0  
      3.956011  8.385327  3.504394            0           0           0  
      3.930846  5.313755  5.969048            0           0           0  
      1.318642  6.863955  8.440074            0           0           0  
      3.959975  6.858935  1.115846            0           0           0  
      1.319507  8.376039  3.538443            0           0           0  
      6.604774  5.321881  5.832980            0           0           0  
      3.947615  6.850346  8.308104            0           0           0  
      5.279975  4.572628  1.115846            0           0           0  
      2.626596  6.075768  3.591417            0           0           0  
      5.273783  7.624166  5.833840            0           0           0  
      5.266216  4.578663  8.284439            0           0           0  
      1.065202  3.958356  9.844931    -0.118788   -0.231739   -0.008006  
      2.903568  2.891074  9.715449    -0.476282   -0.839805    0.002485  
 
   6 f/i=    9.140880 THz    57.433840 2PiTHz  304.906911 cm-1    37.803653 meV
             X         Y         Z           dx          dy          dz
     10.559976  0.000014  1.115846            0           0           0  
      2.630695  1.546622  3.597475            0           0           0  
      0.024450  3.049232  6.206149            0           0           0  
      0.000508  0.013938  8.307729            0           0           0  
      9.239976  2.286321  1.115846            0           0           0  
      1.318145  3.811549  3.845894            0           0           0  
      1.323246  0.797130  5.968937            0           0           0  
      9.234561  2.284150  8.439578            0           0           0  
      1.319975  2.286321  1.115846            0           0           0  
     -1.297394  3.810259  3.593628            0           0           0  
      3.957063  0.777534  5.929522            0           0           0  
      1.293260  2.249164  8.869724            0           0           0  
      2.639975  0.000014  1.115846            0           0           0  
      0.011475  1.546174  3.591241            0           0           0  
      2.632663  3.052176  6.220560            0           0           0  
      2.627269  0.007873  8.284336            0           0           0  
      5.279976  0.000014  1.115846            0           0           0  
      7.925800  1.527966  3.538309            0           0           0  
      5.264773  3.042468  5.929451            0           0           0  
      0.002225  9.141456  8.335055            0           0           0  
      3.959975  2.286321  1.115846            0           0           0  
      6.600102  3.806620  3.500806            0           0           0  
      6.601977  0.760474  5.928459            0           0           0  
      3.984842  2.271463  8.496609            0           0           0  
      6.599975  2.286321  1.115846            0           0           0  
      3.935856  3.807240  3.597343            0           0           0  
      9.247230  0.772328  5.920802            0           0           0  
      6.603707  2.285329  8.334609            0           0           0  
      7.919975  0.000014  1.115846            0           0           0  
      5.270259  1.529660  3.546977            0           0           0  
      7.936856  3.040241  5.920299            0           0           0  
      2.645619  9.141313  8.337637            0           0           0  
      7.919976  4.572628  1.115846            0           0           0  
      0.011454  6.077377  3.593942            0           0           0  
     -2.626721  7.622574  5.833071            0           0           0  
      7.915079  4.571607  8.303088            0           0           0  
      6.599976  6.858935  1.115846            0           0           0  
     -1.316631  8.384837  3.500920            0           0           0  
     -1.281105  5.311873  5.980073            0           0           0  
      6.592148  6.862837  8.198214            0           0           0  
     -1.320025  6.858935  1.115846            0           0           0  
     -3.958813  8.399008  3.488774            0           0           0  
      1.331068  5.312445  6.206379            0           0           0  
     -1.322125  6.862891  8.303782            0           0           0  
     -0.000025  4.572628  1.115846            0           0           0  
     -2.626637  6.088954  3.492497            0           0           0  
      0.015101  7.609855  5.920802            0           0           0  
     -0.051642  4.601793  8.730213            0           0           0  
      2.639975  4.572628  1.115846            0           0           0  
      5.266720  6.087697  3.488819            0           0           0  
      2.634396  7.609019  5.921142            0           0           0  
      2.658249  4.613359  8.869231            0           0           0  
      1.319976  6.858935  1.115846            0           0           0  
      3.956011  8.385327  3.504394            0           0           0  
      3.930846  5.313755  5.969048            0           0           0  
      1.318642  6.863955  8.440074            0           0           0  
      3.959975  6.858935  1.115846            0           0           0  
      1.319507  8.376039  3.538443            0           0           0  
      6.604774  5.321881  5.832980            0           0           0  
      3.947615  6.850346  8.308104            0           0           0  
      5.279975  4.572628  1.115846            0           0           0  
      2.626596  6.075768  3.591417            0           0           0  
      5.273783  7.624166  5.833840            0           0           0  
      5.266216  4.578663  8.284439            0           0           0  
      1.065202  3.958356  9.844931     0.485134    0.834862   -0.000481  
      2.903568  2.891074  9.715449    -0.131094   -0.224644   -0.000120  
 
 Finite differences POTIM=  1.500000000000000E-002
  LATTYP: Found a hexagonal cell.
 ALAT       =    10.5600004196
 C/A-ratio  =     1.8939393187
  
  Lattice vectors:
  
 A1 = (  10.5600004196,   0.0000000000,   0.0000000000)
 A2 = (  -5.2800002098,   9.1452286274,   0.0000000000)
 A3 = (   0.0000000000,   0.0000000000,  20.0000000000)


Analysis of symmetry for initial positions (statically):
=====================================================================
 Subroutine PRICEL returns:
 Original cell was already a primitive cell.
 

 Routine SETGRP: Setting up the symmetry group for a 
 hexagonal supercell.


 Subroutine GETGRP returns: Found  1 space group operations
 (whereof  1 operations were pure point group operations)
 out of a pool of 24 trial point group operations.


The static configuration has the point symmetry C_1 .


Analysis of symmetry for dynamics (positions and initial velocities):
=====================================================================
 Subroutine PRICEL returns:
 Original cell was already a primitive cell.
 

 Routine SETGRP: Setting up the symmetry group for a 
 hexagonal supercell.


 Subroutine GETGRP returns: Found  1 space group operations
 (whereof  1 operations were pure point group operations)
 out of a pool of 24 trial point group operations.


The dynamic configuration has the point symmetry C_1 .


Analysis of constrained symmetry for selective dynamics:
=====================================================================
 Subroutine PRICEL returns:
 Original cell was already a primitive cell.
 

 Routine SETGRP: Setting up the symmetry group for a 
 hexagonal supercell.


 Subroutine GETGRP returns: Found  1 space group operations
 (whereof  1 operations were pure point group operations)
 out of a pool of 24 trial point group operations.


The constrained configuration has the point symmetry C_1 .


Analysis of structural, dynamic, and magnetic symmetry:
=====================================================================
 Subroutine PRICEL returns:
 Original cell was already a primitive cell.
 

 Routine SETGRP: Setting up the symmetry group for a 
 hexagonal supercell.


 Subroutine GETGRP returns: Found  1 space group operations
 (whereof  1 operations were pure point group operations)
 out of a pool of 24 trial point group operations.


The magnetic configuration has the point symmetry C_1 .


 Subroutine INISYM returns: Found  1 space group operations
 (whereof  1 operations are pure point group operations),
 and found     1 'primitive' translations

 
 KPOINTS: mesh auto                               

Automatic generation of k-mesh.
Space group operators:
 irot       det(A)        alpha          n_x          n_y          n_z        tau_x        tau_y        tau_z
    1     1.000000     0.000000     1.000000     0.000000     0.000000     0.000000     0.000000     0.000000
 
 Subroutine IBZKPT returns following result:
 ===========================================
 
 Found      4 irreducible k-points:
 
 Following reciprocal coordinates:
            Coordinates               Weight
  0.000000  0.000000  0.000000      1.000000
  0.500000 -0.000000  0.000000      1.000000
  0.000000  0.500000  0.000000      1.000000
  0.500000  0.500000  0.000000      1.000000
 
 Following cartesian coordinates:
            Coordinates               Weight
  0.000000  0.000000  0.000000      1.000000
  0.047348  0.027337  0.000000      1.000000
  0.000000  0.054673  0.000000      1.000000
  0.047348  0.082010  0.000000      1.000000
 
 TETIRR: Found     12 inequivalent tetrahedra from       24
     LOOP+:  cpu time  420.0653: real time  421.2321
    4ORBIT:  cpu time    0.0000: real time    0.0000
 BZINTS: Fermi energy:  2.720631;642.000000 electrons
         Band energy:-497.324503;  BLOECHL correction: -0.069740

 total amount of memory used by VASP MPI-rank0   335957. kBytes
=======================================================================

   base      :      30000. kBytes
   nonlr-proj:      89575. kBytes
   fftplans  :      13334. kBytes
   grid      :     112154. kBytes
   one-center:       2052. kBytes
   wavefun   :      88842. kBytes
 
  
  
 General timing and accounting informations for this job:
 ========================================================
  
                  Total CPU time used (sec):     8100.988
                            User time (sec):     8055.614
                          System time (sec):       45.374
                         Elapsed time (sec):     8127.012
  
                   Maximum memory used (kb):     1019368.
                   Average memory used (kb):           0.
  
                          Minor page faults:      3087967
                          Major page faults:            0
                 Voluntary context switches:         5423
