 vasp.5.4.4.18Apr17-6-g9f103f2a35 (build Nov 30 2020 22:55:02) complex          
  
 executed on             LinuxIFC date 2023.09.11  11:25:50
 running on   40 total cores
 distrk:  each k-point on   40 cores,    1 groups
 distr:  one band on NCORES_PER_BAND=   1 cores,   40 groups


--------------------------------------------------------------------------------------------------------


 INCAR:
 POTCAR:    PAW_PBE Cu 22Jun2005                  
 POTCAR:    PAW_PBE Pt 04Feb2005                  
 POTCAR:    PAW_PBE H 15Jun2001                   

 ----------------------------------------------------------------------------- 
|                                                                             |
|           W    W    AA    RRRRR   N    N  II  N    N   GGGG   !!!           |
|           W    W   A  A   R    R  NN   N  II  NN   N  G    G  !!!           |
|           W    W  A    A  R    R  N N  N  II  N N  N  G       !!!           |
|           W WW W  AAAAAA  RRRRR   N  N N  II  N  N N  G  GGG   !            |
|           WW  WW  A    A  R   R   N   NN  II  N   NN  G    G                |
|           W    W  A    A  R    R  N    N  II  N    N   GGGG   !!!           |
|                                                                             |
|      For optimal performance we recommend to set                            |
|        NCORE= 4 - approx SQRT( number of cores)                             |
|      NCORE specifies how many cores store one orbital (NPAR=cpu/NCORE).     |
|      This setting can  greatly improve the performance of VASP for DFT.     |
|      The default,   NCORE=1            might be grossly inefficient         |
|      on modern multi-core architectures or massively parallel machines.     |
|      Do your own testing !!!!                                               |
|      Unfortunately you need to use the default for GW and RPA calculations. |
|      (for HF NCORE is supported but not extensively tested yet)             |
|                                                                             |
 ----------------------------------------------------------------------------- 

 POTCAR:    PAW_PBE Cu 22Jun2005                  
   VRHFIN =Cu: d10 p1                                                           
   LEXCH  = PE                                                                  
   EATOM  =  1390.9808 eV,  102.2342 Ry                                         
                                                                                
   TITEL  = PAW_PBE Cu 22Jun2005                                                
   LULTRA =        F    use ultrasoft PP ?                                      
   IUNSCR =        1    unscreen: 0-lin 1-nonlin 2-no                           
   RPACOR =    2.000    partial core radius                                     
   POMASS =   63.546; ZVAL   =   11.000    mass and valenz                      
   RCORE  =    2.300    outmost cutoff radius                                   
   RWIGS  =    2.200; RWIGS  =    1.164    wigner-seitz radius (au A)           
   ENMAX  =  295.446; ENMIN  =  221.585 eV                                      
   ICORE  =        3    local potential                                         
   LCOR   =        T    correct aug charges                                     
   LPAW   =        T    paw PP                                                  
   EAUG   =  586.980                                                            
   DEXC   =    0.000                                                            
   RMAX   =    2.344    core radius for proj-oper                               
   RAUG   =    1.300    factor for augmentation sphere                          
   RDEP   =    2.302    radius for radial grids                                 
   RDEPT  =    1.771    core radius for aug-charge                              
                                                                                
   Atomic configuration                                                         
    9 entries                                                                   
     n  l   j            E        occ.                                          
     1  0  0.50     -8850.2468   2.0000                                         
     2  0  0.50     -1062.3498   2.0000                                         
     2  1  1.50      -916.8226   6.0000                                         
     3  0  0.50      -114.6929   2.0000                                         
     3  1  1.50       -72.1325   6.0000                                         
     3  2  2.50        -5.0394  10.0000                                         
     4  0  0.50        -4.6097   1.0000                                         
     4  1  0.50        -4.0817   0.0000                                         
     4  3  2.50        -1.3606   0.0000                                         
   Description                                                                  
     l       E           TYP  RCUT    TYP  RCUT                                 
     2     -5.0393973     23  2.200                                             
     2     10.8846608     23  2.200                                             
     0     -4.6097109     23  2.200                                             
     0      8.2520465     23  2.200                                             
     1     -2.7211652     23  2.200                                             
     1     21.7055443     23  2.200                                             
     3      2.7211652     23  2.300                                             
  local pseudopotential read in
  partial core-charges read in
  partial kinetic energy density read in
  atomic valenz-charges read in
  non local Contribution for L=           2  read in
    real space projection operators read in
  non local Contribution for L=           2  read in
    real space projection operators read in
  non local Contribution for L=           0  read in
    real space projection operators read in
  non local Contribution for L=           0  read in
    real space projection operators read in
  non local Contribution for L=           1  read in
    real space projection operators read in
  non local Contribution for L=           1  read in
    real space projection operators read in
    PAW grid and wavefunctions read in
 
   number of l-projection  operators is LMAX  =           6
   number of lm-projection operators is LMMAX =          18
 
 POTCAR:    PAW_PBE Pt 04Feb2005                  
   VRHFIN =Pt: s1d9                                                             
   LEXCH  = PE                                                                  
   EATOM  =   729.1176 eV,   53.5886 Ry                                         
                                                                                
   TITEL  = PAW_PBE Pt 04Feb2005                                                
   LULTRA =        F    use ultrasoft PP ?                                      
   IUNSCR =        1    unscreen: 0-lin 1-nonlin 2-no                           
   RPACOR =    2.330    partial core radius                                     
   POMASS =  195.080; ZVAL   =   10.000    mass and valenz                      
   RCORE  =    2.600    outmost cutoff radius                                   
   RWIGS  =    2.750; RWIGS  =    1.455    wigner-seitz radius (au A)           
   ENMAX  =  230.283; ENMIN  =  172.712 eV                                      
   ICORE  =        3    local potential                                         
   LCOR   =        T    correct aug charges                                     
   LPAW   =        T    paw PP                                                  
   EAUG   =  358.966                                                            
   DEXC   =    0.000                                                            
   RMAX   =    2.658    core radius for proj-oper                               
   RAUG   =    1.300    factor for augmentation sphere                          
   RDEP   =    2.761    radius for radial grids                                 
   RDEPT  =    2.203    core radius for aug-charge                              
                                                                                
   Atomic configuration                                                         
   16 entries                                                                   
     n  l   j            E        occ.                                          
     1  0  0.50    -78401.1885   2.0000                                         
     2  0  0.50    -13770.7750   2.0000                                         
     2  1  1.50    -11931.0468   6.0000                                         
     3  0  0.50     -3234.7234   2.0000                                         
     3  1  1.50     -2699.2216   6.0000                                         
     3  2  2.50     -2119.5714  10.0000                                         
     4  0  0.50      -695.1528   2.0000                                         
     4  1  1.50      -519.6034   6.0000                                         
     4  2  2.50      -306.6786  10.0000                                         
     4  3  3.50       -70.1041  14.0000                                         
     5  0  0.50      -101.7747   2.0000                                         
     5  1  1.50       -55.9873   6.0000                                         
     5  2  2.50        -6.1423   9.0000                                         
     6  0  0.50        -5.6573   1.0000                                         
     6  1  1.50        -6.8029   0.0000                                         
     5  3  2.50        -1.3606   0.0000                                         
   Description                                                                  
     l       E           TYP  RCUT    TYP  RCUT                                 
     2     -6.1423404     23  2.500                                             
     2     -7.5029230     23  2.500                                             
     0     -5.6573207     23  2.500                                             
     0      0.7416693     23  2.500                                             
     1     -2.7211652     23  2.600                                             
     1     20.4087390     23  2.600                                             
     3     -1.3605826     23  2.500                                             
  local pseudopotential read in
  partial core-charges read in
  partial kinetic energy density read in
  atomic valenz-charges read in
  non local Contribution for L=           2  read in
    real space projection operators read in
  non local Contribution for L=           2  read in
    real space projection operators read in
  non local Contribution for L=           0  read in
    real space projection operators read in
  non local Contribution for L=           0  read in
    real space projection operators read in
  non local Contribution for L=           1  read in
    real space projection operators read in
  non local Contribution for L=           1  read in
    real space projection operators read in
    PAW grid and wavefunctions read in
 
   number of l-projection  operators is LMAX  =           6
   number of lm-projection operators is LMMAX =          18
 
 POTCAR:    PAW_PBE H 15Jun2001                   
   VRHFIN =H: ultrasoft test                                                    
   LEXCH  = PE                                                                  
   EATOM  =    12.4884 eV,    0.9179 Ry                                         
                                                                                
   TITEL  = PAW_PBE H 15Jun2001                                                 
   LULTRA =        F    use ultrasoft PP ?                                      
   IUNSCR =        0    unscreen: 0-lin 1-nonlin 2-no                           
   RPACOR =    0.000    partial core radius                                     
   POMASS =    1.000; ZVAL   =    1.000    mass and valenz                      
   RCORE  =    1.100    outmost cutoff radius                                   
   RWIGS  =    0.700; RWIGS  =    0.370    wigner-seitz radius (au A)           
   ENMAX  =  250.000; ENMIN  =  200.000 eV                                      
   RCLOC  =    0.701    cutoff for local pot                                    
   LCOR   =        T    correct aug charges                                     
   LPAW   =        T    paw PP                                                  
   EAUG   =  400.000                                                            
   RMAX   =    1.123    core radius for proj-oper                               
   RAUG   =    1.200    factor for augmentation sphere                          
   RDEP   =    1.112    radius for radial grids                                 
   RDEPT  =    0.926    core radius for aug-charge                              
                                                                                
   Atomic configuration                                                         
    2 entries                                                                   
     n  l   j            E        occ.                                          
     1  0  0.50        -6.4927   1.0000                                         
     2  1  0.50        -3.4015   0.0000                                         
   Description                                                                  
     l       E           TYP  RCUT    TYP  RCUT                                 
     0     -6.4927494     23  1.100                                             
     0      6.8029130     23  1.100                                             
     1     -4.0817478     23  1.100                                             
  local pseudopotential read in
  atomic valenz-charges read in
  non local Contribution for L=           0  read in
    real space projection operators read in
  non local Contribution for L=           0  read in
    real space projection operators read in
  non local Contribution for L=           1  read in
    real space projection operators read in
    PAW grid and wavefunctions read in
 
   number of l-projection  operators is LMAX  =           3
   number of lm-projection operators is LMMAX =           5
 
 Optimization of the real space projectors (new method)

 maximal supplied QI-value         = 16.25
 optimisation between [QCUT,QGAM] = [ 11.86, 23.89] = [ 39.41,159.82] Ry 
 Optimized for a Real-space Cutoff    1.49 Angstroem

   l    n(q)    QCUT    max X(q) W(low)/X(q) W(high)/X(q)  e(spline) 
   2     10    11.864     4.610    0.10E-03    0.20E-03    0.29E-06
   2     10    11.864     8.522    0.17E-03    0.33E-03    0.50E-06
   0     11    11.864    51.609    0.52E-04    0.55E-04    0.33E-06
   0     11    11.864    27.747    0.46E-04    0.52E-04    0.31E-06
   1     10    11.864    20.408    0.54E-04    0.25E-04    0.21E-06
   1     10    11.864    13.425    0.48E-04    0.22E-04    0.18E-06
 Optimization of the real space projectors (new method)

 maximal supplied QI-value         = 14.36
 optimisation between [QCUT,QGAM] = [ 11.92, 23.98] = [ 39.79,161.09] Ry 
 Optimized for a Real-space Cutoff    1.49 Angstroem

   l    n(q)    QCUT    max X(q) W(low)/X(q) W(high)/X(q)  e(spline) 
   2     10    11.920    66.195    0.79E-04    0.18E-03    0.24E-06
   2     10    11.920    64.643    0.81E-04    0.19E-03    0.24E-06
   0     11    11.920    95.520    0.28E-04    0.54E-04    0.18E-06
   0     11    11.920    63.403    0.27E-04    0.52E-04    0.17E-06
   1     10    11.920    19.961    0.18E-04    0.11E-03    0.23E-06
   1     10    11.920    13.289    0.25E-04    0.87E-04    0.19E-06
 Optimization of the real space projectors (new method)

 maximal supplied QI-value         = 34.20
 optimisation between [QCUT,QGAM] = [ 11.97, 23.94] = [ 40.13,160.53] Ry 
 Optimized for a Real-space Cutoff    1.18 Angstroem

   l    n(q)    QCUT    max X(q) W(low)/X(q) W(high)/X(q)  e(spline) 
   0      8    11.971    19.460    0.15E-03    0.31E-03    0.25E-06
   0      8    11.971    12.209    0.13E-03    0.29E-03    0.25E-06
   1      8    11.971     4.655    0.22E-03    0.24E-03    0.21E-06
  PAW_PBE Cu 22Jun2005                  :
 energy of atom  1       EATOM=-1390.9808
 kinetic energy error for atom=    0.0036 (will be added to EATOM!!)
  PAW_PBE Pt 04Feb2005                  :
 energy of atom  2       EATOM= -729.1176
 kinetic energy error for atom=    0.0021 (will be added to EATOM!!)
  PAW_PBE H 15Jun2001                   :
 energy of atom  3       EATOM=  -12.4884
 kinetic energy error for atom=    0.0008 (will be added to EATOM!!)
 
 
 POSCAR: PtM\(2)                                 
  positions in cartesian coordinates
  No initial velocities read in
 exchange correlation table for  LEXCH =        8
   RHO(1)=    0.500       N(1)  =     2000
   RHO(2)=  100.500       N(2)  =     4000
 


--------------------------------------------------------------------------------------------------------


 ion  position               nearest neighbor table
   1  0.785  0.869  0.314-  55 2.49  20 2.49  39 2.50  57 2.64   2 2.64  40 2.64   3 2.64  56 2.64
                            29 2.64  73 2.66  65 2.66  72 2.67
   2  0.035  0.870  0.314-  49 2.49  52 2.49  39 2.49  56 2.64  33 2.64   1 2.64  23 2.64   3 2.64
                            77 2.64  41 2.65  67 2.66  65 2.67
   3  0.035  0.619  0.314-  39 2.49  60 2.49  12 2.49   9 2.63  40 2.64  15 2.64   1 2.64   2 2.64
                            77 2.65  41 2.65  66 2.66  73 2.67
   4  0.786  0.868  0.045-  21 2.50  62 2.50  19 2.51  30 2.64  59 2.64  58 2.64  42 2.64   6 2.64
                             5 2.64
   5  0.036  0.868  0.045-  54 2.50  35 2.50  62 2.51  43 2.64   6 2.64  34 2.64  24 2.64  58 2.64
                             4 2.64
   6  0.036  0.618  0.045-  32 2.50  54 2.50  21 2.51   5 2.64  10 2.64  43 2.64   4 2.64  42 2.64
                            18 2.64
   7  0.619  0.202  0.135-  55 2.49  63 2.50  64 2.50  28 2.50  30 2.50  58 2.51  45 2.64  22 2.64
                            37 2.64  11 2.64  19 2.64  62 2.64
   8  0.369  0.952  0.135-  53 2.49  26 2.49  50 2.50  16 2.50  24 2.50  59 2.51  19 2.64  35 2.64
                            44 2.64  37 2.64  25 2.64  38 2.64
   9  0.035  0.370  0.314-  12 2.49  61 2.49  46 2.49   3 2.63  40 2.64  13 2.64  33 2.64  47 2.64
                            15 2.65  71 2.65  66 2.66  68 2.66
  10  0.036  0.368  0.045-  38 2.50  32 2.50  31 2.51  16 2.64   6 2.64  34 2.64  18 2.64  42 2.64
                            48 2.64
  11  0.869  0.202  0.135-  49 2.49  61 2.49  48 2.50  63 2.50  58 2.50  34 2.51  31 2.64  38 2.64
                            22 2.64  62 2.64   7 2.64  35 2.64
  12  0.952  0.535  0.225-   9 2.49  31 2.49   3 2.49  21 2.49  40 2.49  32 2.49  61 2.64  46 2.64
                            39 2.64  20 2.64  60 2.65  51 2.65
  13  0.285  0.119  0.314-  46 2.49  53 2.49  26 2.49  29 2.64  57 2.64  23 2.64  15 2.64   9 2.64
                            33 2.65  69 2.65  71 2.66  74 2.66
  14  0.534  0.619  0.316-  36 2.50  50 2.51  51 2.51  27 2.62  41 2.62  47 2.64  23 2.64  80 2.65
                            40 2.65  57 2.65  76 2.69  75 2.69
  15  0.285  0.370  0.315-  60 2.49  64 2.50  46 2.50  27 2.63  41 2.64   3 2.64  29 2.64  13 2.64
                             9 2.65  74 2.65  66 2.66  79 2.67
  16  0.286  0.118  0.045-   8 2.50  37 2.50  38 2.51  24 2.64  10 2.64  34 2.64  59 2.64  18 2.64
                            30 2.64
  17  0.536  0.618  0.045-  22 2.50  25 2.50  44 2.51  42 2.64  48 2.64  59 2.64  28 2.64  24 2.64
                            43 2.64
  18  0.286  0.368  0.045-  37 2.50  45 2.50  32 2.51  28 2.64  30 2.64  43 2.64  10 2.64  16 2.64
                             6 2.64
  19  0.619  0.952  0.135-  20 2.49  55 2.49  53 2.49  30 2.50  59 2.50   4 2.51  25 2.64   8 2.64
                            37 2.64  21 2.64   7 2.64  62 2.64
  20  0.702  0.785  0.225-  40 2.49  25 2.49  19 2.49  57 2.49   1 2.49  21 2.49  12 2.64  55 2.64
                            39 2.64  51 2.64  53 2.64  50 2.64
  21  0.869  0.702  0.135-  12 2.49  39 2.49  20 2.49   4 2.50  42 2.50   6 2.51  32 2.64  31 2.64
                            25 2.64  62 2.64  54 2.64  19 2.64
  22  0.619  0.452  0.135-  51 2.49  63 2.49  17 2.50  28 2.50  36 2.51  48 2.51  44 2.64  45 2.64
                             7 2.64  25 2.64  11 2.64  31 2.64
  23  0.285  0.869  0.315-  52 2.49  50 2.49  26 2.49  41 2.64  14 2.64  57 2.64   2 2.64  33 2.64
                            13 2.64  69 2.66  67 2.66  75 2.67
  24  0.286  0.868  0.045-  44 2.50   8 2.50  35 2.51  59 2.64  16 2.64  17 2.64  43 2.64   5 2.64
                            34 2.64
  25  0.619  0.702  0.135-  20 2.49  51 2.50  50 2.50  59 2.50  17 2.50  42 2.51  19 2.64  44 2.64
                             8 2.64  22 2.64  21 2.64  31 2.64
  26  0.202  0.036  0.225-  38 2.49  13 2.49  35 2.49  33 2.49   8 2.49  23 2.49  53 2.64  49 2.64
                            52 2.64  50 2.64  46 2.65  61 2.65
  27  0.534  0.370  0.316-  36 2.50  64 2.51  63 2.51  14 2.62  41 2.62  15 2.63  47 2.64  78 2.64
                            56 2.65  29 2.65  76 2.69  79 2.69
  28  0.536  0.368  0.045-   7 2.50  22 2.50  45 2.51  48 2.64  18 2.64  43 2.64  17 2.64  58 2.64
                            30 2.64
  29  0.535  0.119  0.314-  64 2.48  53 2.49  55 2.49  57 2.64  13 2.64   1 2.64  56 2.64  15 2.64
                            78 2.65  27 2.65  72 2.66  74 2.67
  30  0.536  0.118  0.045-  19 2.50   7 2.50  37 2.51   4 2.64  18 2.64  58 2.64  59 2.64  16 2.64
                            28 2.64
  31  0.869  0.452  0.135-  12 2.49  61 2.49  42 2.50  48 2.50  51 2.50  10 2.51  38 2.64  11 2.64
                            21 2.64  32 2.64  22 2.64  25 2.64
  32  0.119  0.452  0.135-  46 2.49  12 2.49  60 2.50   6 2.50  10 2.50  18 2.51  54 2.64  45 2.64
                            21 2.64  37 2.64  38 2.64  31 2.64
  33  0.035  0.119  0.314-  61 2.49  49 2.49  26 2.49  56 2.64   2 2.64  23 2.64  47 2.64   9 2.64
                            13 2.65  71 2.65  67 2.65  70 2.66
  34  0.036  0.118  0.045-  35 2.50  38 2.50  11 2.51  58 2.64  16 2.64   5 2.64  10 2.64  24 2.64
                            48 2.64
  35  0.119  0.952  0.135-  49 2.49  26 2.49  52 2.50  34 2.50   5 2.50  24 2.51   8 2.64  44 2.64
                            62 2.64  54 2.64  11 2.64  38 2.64
  36  0.452  0.536  0.226-  27 2.50  14 2.50  41 2.50  44 2.50  45 2.50  22 2.51  51 2.63  60 2.63
                            63 2.63  64 2.63  50 2.63  52 2.63
  37  0.369  0.202  0.135-  53 2.49  46 2.49  64 2.50  18 2.50  16 2.50  30 2.51  38 2.64  32 2.64
                             7 2.64   8 2.64  19 2.64  45 2.64
  38  0.119  0.202  0.135-  26 2.49  46 2.50  61 2.50  10 2.50  34 2.50  16 2.51  31 2.64  37 2.64
                            32 2.64  11 2.64   8 2.64  35 2.64
  39  0.952  0.785  0.225-   3 2.49   2 2.49  62 2.49  21 2.49  54 2.49   1 2.50  12 2.64  20 2.64
                            55 2.64  60 2.64  49 2.64  52 2.64
  40  0.785  0.619  0.314-  51 2.49  20 2.49  12 2.49   9 2.64   3 2.64  47 2.64   1 2.64  57 2.64
                            14 2.65  80 2.65  68 2.66  73 2.66
  41  0.286  0.619  0.316-  36 2.50  52 2.51  60 2.51  14 2.62  27 2.62  15 2.64  23 2.64   3 2.65
                             2 2.65  77 2.65  79 2.69  75 2.69
  42  0.786  0.618  0.045-  31 2.50  21 2.50  25 2.51  17 2.64  59 2.64  48 2.64   4 2.64   6 2.64
                            10 2.64
  43  0.286  0.618  0.045-  45 2.50  44 2.50  54 2.51  28 2.64   5 2.64  18 2.64  17 2.64  24 2.64
                             6 2.64
  44  0.369  0.702  0.135-  50 2.49  52 2.50  24 2.50  43 2.50  36 2.50  17 2.51  22 2.64  25 2.64
                            35 2.64   8 2.64  54 2.64  45 2.64
  45  0.369  0.452  0.135-  64 2.49  60 2.50  43 2.50  18 2.50  36 2.50  28 2.51  54 2.64  32 2.64
                             7 2.64  22 2.64  37 2.64  44 2.64
  46  0.202  0.286  0.225-  13 2.49  32 2.49   9 2.49  37 2.49  38 2.50  15 2.50  12 2.64  60 2.64
                            53 2.64  64 2.64  26 2.65  61 2.65
  47  0.784  0.370  0.315-  51 2.49  63 2.49  61 2.50  27 2.64  14 2.64  40 2.64  33 2.64  56 2.64
                             9 2.64  70 2.65  68 2.66  76 2.68
  48  0.786  0.368  0.045-  11 2.50  31 2.50  22 2.51  28 2.64  17 2.64  42 2.64  58 2.64  34 2.64
                            10 2.64
  49  0.952  0.036  0.225-   2 2.49  11 2.49  33 2.49  62 2.49  56 2.49  35 2.49  26 2.64  61 2.64
                            55 2.64  39 2.64  52 2.65  63 2.65
  50  0.452  0.785  0.225-  57 2.48  23 2.49  44 2.49   8 2.50  25 2.50  14 2.51  52 2.63  51 2.63
                            36 2.63  26 2.64  20 2.64  53 2.65
  51  0.701  0.536  0.225-  40 2.49  47 2.49  22 2.49  25 2.50  31 2.50  14 2.51  36 2.63  50 2.63
                            63 2.63  61 2.64  20 2.64  12 2.65
  52  0.203  0.785  0.225-   2 2.49  23 2.49  44 2.50  54 2.50  35 2.50  41 2.51  50 2.63  60 2.63
                            36 2.63  26 2.64  39 2.64  49 2.65
  53  0.452  0.036  0.225-  57 2.49  37 2.49   8 2.49  29 2.49  13 2.49  19 2.49  26 2.64  46 2.64
                            55 2.64  20 2.64  50 2.65  64 2.65
  54  0.119  0.702  0.135-  39 2.49  60 2.50  52 2.50   5 2.50   6 2.50  43 2.51  45 2.64  32 2.64
                            44 2.64  35 2.64  62 2.64  21 2.64
  55  0.702  0.036  0.225-  56 2.49   7 2.49  29 2.49  19 2.49   1 2.49  62 2.49  20 2.64  39 2.64
                            53 2.64  49 2.64  64 2.64  63 2.64
  56  0.785  0.119  0.314-  63 2.48  55 2.49  49 2.49   2 2.64  33 2.64   1 2.64  29 2.64  47 2.64
                            27 2.65  78 2.65  65 2.66  70 2.66
  57  0.535  0.870  0.314-  50 2.48  53 2.49  20 2.49  29 2.64  13 2.64   1 2.64  23 2.64  40 2.64
                            80 2.64  14 2.65  72 2.66  69 2.67
  58  0.786  0.118  0.045-  62 2.50  11 2.50   7 2.51  34 2.64  30 2.64   4 2.64  48 2.64  28 2.64
                             5 2.64
  59  0.536  0.868  0.045-  25 2.50  19 2.50   8 2.51  24 2.64  17 2.64  42 2.64   4 2.64  16 2.64
                            30 2.64
  60  0.203  0.536  0.225-   3 2.49  15 2.49  54 2.50  45 2.50  32 2.50  41 2.51  36 2.63  52 2.63
                            64 2.63  46 2.64  39 2.64  12 2.65
  61  0.951  0.286  0.225-  33 2.49  31 2.49   9 2.49  11 2.49  38 2.50  47 2.50  12 2.64  51 2.64
                            63 2.64  49 2.64  26 2.65  46 2.65
  62  0.869  0.952  0.135-  39 2.49  49 2.49  55 2.49  58 2.50   4 2.50   5 2.51  35 2.64  54 2.64
                            11 2.64  21 2.64  19 2.64   7 2.64
  63  0.701  0.286  0.225-  56 2.48  47 2.49  22 2.49   7 2.50  11 2.50  27 2.51  36 2.63  64 2.63
                            51 2.63  61 2.64  55 2.64  49 2.65
  64  0.452  0.286  0.225-  29 2.48  45 2.49  15 2.50   7 2.50  37 2.50  27 2.51  36 2.63  63 2.63
                            60 2.63  46 2.64  55 2.64  53 2.65
  65  0.868  0.954  0.414-  78 2.61  77 2.62  70 2.63  67 2.63  73 2.65  72 2.65  56 2.66   1 2.66
                             2 2.67
  66  0.117  0.454  0.414-  79 2.61  68 2.62  73 2.63  71 2.64  77 2.64  74 2.65   3 2.66   9 2.66
                            15 2.66
  67  0.117  0.954  0.413-  75 2.61  70 2.63  65 2.63  71 2.64  77 2.64  69 2.65  33 2.65  23 2.66
                             2 2.66
  68  0.868  0.454  0.414-  76 2.61  66 2.62  73 2.63  71 2.64  80 2.64  70 2.65  40 2.66  47 2.66
                             9 2.66
  69  0.368  0.954  0.413-  75 2.61  74 2.63  72 2.63  71 2.64  80 2.64  67 2.65  13 2.65  23 2.66
                            57 2.67
  70  0.868  0.203  0.414-  76 2.61  67 2.63  65 2.63  71 2.64  78 2.64  47 2.65  68 2.65  33 2.66
                            56 2.66
  71  0.117  0.204  0.413-  68 2.64  66 2.64  74 2.64  70 2.64  69 2.64  67 2.64   9 2.65  33 2.65
                            13 2.66
  72  0.617  0.954  0.414-  78 2.61  80 2.62  69 2.63  74 2.63  73 2.65  65 2.65  29 2.66  57 2.66
                             1 2.67
  73  0.868  0.703  0.414-  80 2.61  77 2.61  68 2.63  66 2.63  65 2.65  72 2.65   1 2.66  40 2.66
                             3 2.67
  74  0.368  0.203  0.414-  79 2.61  69 2.63  72 2.63  71 2.64  78 2.64  15 2.65  66 2.65  13 2.66
                            29 2.67
  75  0.365  0.709  0.416-  81 1.84  67 2.61  69 2.61  77 2.67  23 2.67  80 2.67  41 2.69  14 2.69
                            79 2.71  76 2.72
  76  0.622  0.451  0.416-  81 1.84  70 2.61  68 2.61  78 2.67  80 2.67  47 2.68  14 2.69  27 2.69
                            79 2.71  75 2.72
  77  0.114  0.705  0.413-  73 2.61  65 2.62  66 2.64  67 2.64   2 2.64   3 2.65  41 2.65  79 2.67
                            75 2.67
  78  0.619  0.200  0.413-  65 2.61  72 2.61  27 2.64  70 2.64  74 2.64  29 2.65  56 2.65  76 2.67
                            79 2.67
  79  0.365  0.451  0.416-  81 1.86  74 2.61  66 2.61  77 2.67  78 2.67  15 2.67  41 2.69  27 2.69
                            76 2.71  75 2.71
  80  0.619  0.705  0.413-  73 2.61  72 2.62  68 2.64  69 2.64  57 2.64  14 2.65  40 2.65  76 2.67
                            75 2.67
  81  0.451  0.539  0.461-  75 1.84  76 1.84  79 1.86
 
  LATTYP: Found a hexagonal cell.
 ALAT       =    10.5600004196
 C/A-ratio  =     2.0833332505
  
  Lattice vectors:
  
 A1 = (   5.2800002098,  -9.1452286274,   0.0000000000)
 A2 = ( -10.5600004196,   0.0000000000,   0.0000000000)
 A3 = (   0.0000000000,   0.0000000000, -22.0000000000)


Analysis of symmetry for initial positions (statically):
=====================================================================
 Subroutine PRICEL returns:
 Original cell was already a primitive cell.
 

 Routine SETGRP: Setting up the symmetry group for a 
 hexagonal supercell.


 Subroutine GETGRP returns: Found  1 space group operations
 (whereof  1 operations were pure point group operations)
 out of a pool of 24 trial point group operations.


The static configuration has the point symmetry C_1 .


Analysis of symmetry for dynamics (positions and initial velocities):
=====================================================================
 Subroutine PRICEL returns:
 Original cell was already a primitive cell.
 

 Routine SETGRP: Setting up the symmetry group for a 
 hexagonal supercell.


 Subroutine GETGRP returns: Found  1 space group operations
 (whereof  1 operations were pure point group operations)
 out of a pool of 24 trial point group operations.


The dynamic configuration has the point symmetry C_1 .


Analysis of constrained symmetry for selective dynamics:
=====================================================================
 Subroutine PRICEL returns:
 Original cell was already a primitive cell.
 

 Routine SETGRP: Setting up the symmetry group for a 
 hexagonal supercell.


 Subroutine GETGRP returns: Found  1 space group operations
 (whereof  1 operations were pure point group operations)
 out of a pool of 24 trial point group operations.


The constrained configuration has the point symmetry C_1 .


Analysis of structural, dynamic, and magnetic symmetry:
=====================================================================
 Subroutine PRICEL returns:
 Original cell was already a primitive cell.
 

 Routine SETGRP: Setting up the symmetry group for a 
 hexagonal supercell.


 Subroutine GETGRP returns: Found  1 space group operations
 (whereof  1 operations were pure point group operations)
 out of a pool of 24 trial point group operations.


The magnetic configuration has the point symmetry C_1 .


 Subroutine INISYM returns: Found  1 space group operations
 (whereof  1 operations are pure point group operations),
 and found     1 'primitive' translations

 
 
 KPOINTS: mesh auto                               

Automatic generation of k-mesh.
Space group operators:
 irot       det(A)        alpha          n_x          n_y          n_z        tau_x        tau_y        tau_z
    1     1.000000     0.000001     1.000000     0.000000     0.000000     0.000000     0.000000     0.000000
 
 Subroutine IBZKPT returns following result:
 ===========================================
 
 Found      4 irreducible k-points:
 
 Following reciprocal coordinates:
            Coordinates               Weight
  0.000000  0.000000  0.000000      1.000000
  0.500000  0.000000  0.000000      1.000000
  0.000000  0.500000  0.000000      1.000000
  0.500000  0.500000  0.000000      1.000000
 
 Following cartesian coordinates:
            Coordinates               Weight
  0.000000  0.000000  0.000000      1.000000
  0.047348 -0.027337  0.000000      1.000000
  0.000000  0.054673  0.000000      1.000000
  0.047348  0.027337  0.000000      1.000000
 
 TETIRR: Found     12 inequivalent tetrahedra from       24
 
 Subroutine IBZKPT_HF returns following result:
 ==============================================
 
 Found      4 k-points in 1st BZ
 the following      4 k-points will be used (e.g. in the exchange kernel)
 Following reciprocal coordinates:   # in IRBZ
  0.000000  0.000000  0.000000    0.25000000   1 t-inv F
  0.500000  0.000000  0.000000    0.25000000   2 t-inv F
  0.000000  0.500000  0.000000    0.25000000   3 t-inv F
  0.500000  0.500000  0.000000    0.25000000   4 t-inv F


--------------------------------------------------------------------------------------------------------




 Dimension of arrays:
   k-points           NKPTS =      4   k-points in BZ     NKDIM =      4   number of bands    NBANDS=    560
   number of dos      NEDOS =    301   number of ions     NIONS =     81
   non local maximal  LDIM  =      6   non local SUM 2l+1 LMDIM =     18
   total plane-waves  NPLWV = ******
   max r-space proj   IRMAX =   7802   max aug-charges    IRDMAX=  33988
   dimension x,y,z NGX =    84 NGY =   84 NGZ =  168
   dimension x,y,z NGXF=   168 NGYF=  168 NGZF=  336
   support grid    NGXF=   168 NGYF=  168 NGZF=  336
   ions per type =              64  16   1
   NGX,Y,Z   is equivalent  to a cutoff of  13.22, 13.22, 12.70 a.u.
   NGXF,Y,Z  is equivalent  to a cutoff of  26.45, 26.45, 25.39 a.u.

 SYSTEM =  Pt111                                   
 POSCAR =  PtM\(2)                                 

 Startparameter for this run:
   NWRITE =      2    write-flag & timer
   PREC   = accura    normal or accurate (medium, high low for compatibility)
   ISTART =      0    job   : 0-new  1-cont  2-samecut
   ICHARG =      2    charge: 1-file 2-atom 10-const
   ISPIN  =      2    spin polarized calculation?
   LNONCOLLINEAR =      F non collinear calculations
   LSORBIT =      F    spin-orbit coupling
   INIWAV =      1    electr: 0-lowe 1-rand  2-diag
   LASPH  =      F    aspherical Exc in radial PAW
   METAGGA=      F    non-selfconsistent MetaGGA calc.

 Electronic Relaxation 1
   ENCUT  =  550.0 eV  40.42 Ry    6.36 a.u.  20.19 20.19 42.07*2*pi/ulx,y,z
   ENINI  =  550.0     initial cutoff
   ENAUG  =  587.0 eV  augmentation charge cutoff
   NELM   =    200;   NELMIN=  2; NELMDL= -5     # of ELM steps 
   EDIFF  = 0.1E-04   stopping-criterion for ELM
   LREAL  =      T    real-space projection
   NLSPLINE    = F    spline interpolate recip. space projectors
   LCOMPAT=      F    compatible to vasp.4.4
   GGA_COMPAT  = T    GGA compatible to vasp.4.4-vasp.4.6
   LMAXPAW     = -100 max onsite density
   LMAXMIX     =    2 max onsite mixed and CHGCAR
   VOSKOWN=      0    Vosko Wilk Nusair interpolation
   ROPT   =   -0.00025  -0.00025  -0.00025
 Ionic relaxation
   EDIFFG = -.5E-01   stopping-criterion for IOM
   NSW    =   1009    number of steps for IOM
   NBLOCK =      1;   KBLOCK =   1009    inner block; outer block 
   IBRION =      5    ionic relax: 0-MD 1-quasi-New 2-CG
   NFREE  =      2    steps in history (QN), initial steepest desc. (CG)
   ISIF   =      2    stress and relaxation
   IWAVPR =     11    prediction:  0-non 1-charg 2-wave 3-comb
   ISYM   =      2    0-nonsym 1-usesym 2-fastsym
   LCORR  =      T    Harris-Foulkes like correction to forces

   POTIM  = 0.5000    time-step for ionic-motion
   TEIN   =    0.0    initial temperature
   TEBEG  =    0.0;   TEEND  =   0.0 temperature during run
   SMASS  =  -3.00    Nose mass-parameter (am)
   estimated Nose-frequenzy (Omega)   =  0.10E-29 period in steps =****** mass=  -0.255E-26a.u.
   SCALEE = 1.0000    scale energy and forces
   NPACO  =    256;   APACO  = 16.0  distance and # of slots for P.C.
   PSTRESS=    0.0 pullay stress

  Mass of Ions in am
   POMASS =  63.55195.08  1.00
  Ionic Valenz
   ZVAL   =  11.00 10.00  1.00
  Atomic Wigner-Seitz radii
   RWIGS  =  -1.00 -1.00 -1.00
  virtual crystal weights 
   VCA    =   1.00  1.00  1.00
   NELECT =     865.0000    total number of electrons
   NUPDOWN=      -1.0000    fix difference up-down

 DOS related values:
   EMIN   =  10.00;   EMAX   =-10.00  energy-range for DOS
   EFERMI =   0.00
   ISMEAR =    -5;   SIGMA  =   0.10  broadening in eV -4-tet -1-fermi 0-gaus

 Electronic relaxation 2 (details)
   IALGO  =     68    algorithm
   LDIAG  =      T    sub-space diagonalisation (order eigenvalues)
   LSUBROT=      F    optimize rotation matrix (better conditioning)
   TURBO    =      0    0=normal 1=particle mesh
   IRESTART =      0    0=no restart 2=restart with 2 vectors
   NREBOOT  =      0    no. of reboots
   NMIN     =      0    reboot dimension
   EREF     =   0.00    reference energy to select bands
   IMIX   =      4    mixing-type and parameters
     AMIX     =   0.40;   BMIX     =  1.00
     AMIX_MAG =   1.60;   BMIX_MAG =  1.00
     AMIN     =   0.10
     WC   =   100.;   INIMIX=   1;  MIXPRE=   1;  MAXMIX= -45

 Intra band minimization:
   WEIMIN = 0.0010     energy-eigenvalue tresh-hold
   EBREAK =  0.45E-08  absolut break condition
   DEPER  =   0.30     relativ break condition  

   TIME   =   0.40     timestep for ELM

  volume/ion in A,a.u.               =      26.23       177.01
  Fermi-wavevector in a.u.,A,eV,Ry     =   1.213351  2.292901 20.030780  1.472221
  Thomas-Fermi vector in A             =   2.348806
 
 Write flags
   LWAVE        =      F    write WAVECAR
   LDOWNSAMPLE  =      F    k-point downsampling of WAVECAR
   LCHARG       =      F    write CHGCAR
   LVTOT        =      F    write LOCPOT, total local potential
   LVHAR        =      F    write LOCPOT, Hartree potential only
   LELF         =      F    write electronic localiz. function (ELF)
   LORBIT       =      0    0 simple, 1 ext, 2 COOP (PROOUT), +10 PAW based schemes


 Dipole corrections
   LMONO  =      F    monopole corrections only (constant potential shift)
   LDIPOL =      F    correct potential (dipole corrections)
   IDIPOL =      0    1-x, 2-y, 3-z, 4-all directions 
   EPSILON=  1.0000000 bulk dielectric constant

 Exchange correlation treatment:
   GGA     =    --    GGA type
   LEXCH   =     8    internal setting for exchange type
   VOSKOWN=      0    Vosko Wilk Nusair interpolation
   LHFCALC =     F    Hartree Fock is set to
   LHFONE  =     F    Hartree Fock one center treatment
   AEXX    =    0.0000 exact exchange contribution

 Linear response parameters
   LEPSILON=     F    determine dielectric tensor
   LRPA    =     F    only Hartree local field effects (RPA)
   LNABLA  =     F    use nabla operator in PAW spheres
   LVEL    =     F    velocity operator in full k-point grid
   LINTERFAST=   F  fast interpolation
   KINTER  =     0    interpolate to denser k-point grid
   CSHIFT  =0.1000    complex shift for real part using Kramers Kronig
   OMEGAMAX=  -1.0    maximum frequency
   DEG_THRESHOLD= 0.2000000E-02 threshold for treating states as degnerate
   RTIME   =   -0.100 relaxation time in fs
  (WPLASMAI=    0.000 imaginary part of plasma frequency in eV, 0.658/RTIME)
   DFIELD  = 0.0000000 0.0000000 0.0000000 field for delta impulse in time
 
 Orbital magnetization related:
   ORBITALMAG=     F  switch on orbital magnetization
   LCHIMAG   =     F  perturbation theory with respect to B field
   DQ        =  0.001000  dq finite difference perturbation B field
   LLRAUG    =     F  two centre corrections for induced B field



--------------------------------------------------------------------------------------------------------


 finite differences
   using selective dynamics as specified on POSCAR
   WARNING: If single coordinates had been selected the selection of coordinates
            is made according to the corresponding   d i r e c t   coordinates!
            Don't support selection of single cartesian coordinates -- sorry ...
  !
 charge density and potential will be updated during run
 spin polarized calculation
 RMM-DIIS sequential band-by-band and
  variant of blocked Davidson during initial phase
 perform sub-space diagonalisation
    before iterative eigenvector-optimisation
 modified Broyden-mixing scheme, WC =      100.0
 initial mixing is a Kerker type mixing with AMIX =  0.4000 and BMIX =      1.0000
 Hartree-type preconditioning will be used
 using additional bands          127
 real space projection scheme for non local part
 use partial core corrections
 calculate Harris-corrections to forces 
   (improved forces if not selfconsistent)
 use gradient corrections 
 use of overlap-Matrix (Vanderbilt PP)
 Fermi weights with tetrahedron method with Bloechl corrections


--------------------------------------------------------------------------------------------------------


  energy-cutoff  :      550.00
  volume of cell :     2124.62
      direct lattice vectors                 reciprocal lattice vectors
    10.560000420  0.000000000  0.000000000     0.094696966 -0.054673319  0.000000000
     5.280000210  9.145228627  0.000000000     0.000000000  0.109346638  0.000000000
     0.000000000  0.000000000 22.000000000     0.000000000  0.000000000  0.045454545

  length of vectors
    10.560000420 10.560000420 22.000000000     0.109346638  0.109346638  0.045454545


 
 k-points in units of 2pi/SCALE and weight: mesh auto                               
   0.00000000  0.00000000  0.00000000       0.250
   0.04734848 -0.02733666  0.00000000       0.250
   0.00000000  0.05467332  0.00000000       0.250
   0.04734848  0.02733666  0.00000000       0.250
 
 k-points in reciprocal lattice and weights: mesh auto                               
   0.00000000  0.00000000  0.00000000       0.250
   0.50000000  0.00000000  0.00000000       0.250
   0.00000000  0.50000000  0.00000000       0.250
   0.50000000  0.50000000  0.00000000       0.250
 
 position of ions in fractional coordinates (direct lattice) 
   0.78506449  0.86907521  0.31449814
   0.03475617  0.86950681  0.31422029
   0.03493731  0.61910542  0.31432054
   0.78624900  0.86835803  0.04490293
   0.03632593  0.86831096  0.04490378
   0.03629270  0.61834538  0.04490407
   0.61900594  0.20203528  0.13527817
   0.36902872  0.95201797  0.13527936
   0.03478302  0.36969157  0.31443770
   0.03632232  0.36834008  0.04490425
   0.86903544  0.20201704  0.13528693
   0.95208200  0.53542073  0.22480552
   0.28524614  0.11943581  0.31435420
   0.53442841  0.61885000  0.31605394
   0.28529563  0.36967483  0.31503549
   0.28627437  0.11834063  0.04490500
   0.53631616  0.61834530  0.04488591
   0.28635483  0.36832902  0.04489700
   0.61901160  0.95199349  0.13527291
   0.70202693  0.78546178  0.22483278
   0.86905623  0.70197733  0.13528016
   0.61901543  0.45202163  0.13527904
   0.28491422  0.86943498  0.31485148
   0.28633138  0.86834683  0.04488814
   0.61902971  0.70201856  0.13527944
   0.20201455  0.03558156  0.22490357
   0.53445727  0.37036625  0.31610232
   0.53629100  0.36836874  0.04488825
   0.53503908  0.11901411  0.31424719
   0.53631492  0.11831875  0.04489277
   0.86908216  0.45197647  0.13527762
   0.11905660  0.45201537  0.13528985
   0.03455842  0.11940777  0.31433607
   0.03628167  0.11834476  0.04490753
   0.11906013  0.95198965  0.13527885
   0.45204311  0.53555523  0.22566307
   0.36902445  0.20201498  0.13528569
   0.11903031  0.20204112  0.13529147
   0.95212347  0.78544378  0.22483531
   0.78514504  0.61912255  0.31432458
   0.28590150  0.61891172  0.31599592
   0.78625855  0.61835147  0.04489831
   0.28631485  0.61834448  0.04489351
   0.36906041  0.70200853  0.13527467
   0.36902898  0.45201831  0.13528487
   0.20211867  0.28603854  0.22499327
   0.78436028  0.36964329  0.31504105
   0.78624559  0.36836494  0.04489780
   0.95211843  0.03571653  0.22477596
   0.45193851  0.78505917  0.22528370
   0.70120042  0.53568513  0.22524028
   0.20260876  0.78511931  0.22526881
   0.45176104  0.03571524  0.22477790
   0.11907534  0.70197617  0.13528836
   0.70201028  0.03555753  0.22483619
   0.78514544  0.11901344  0.31424827
   0.53496587  0.86951576  0.31422776
   0.78630020  0.11833290  0.04491016
   0.53626603  0.86832649  0.04487574
   0.20269821  0.53568090  0.22523953
   0.95144049  0.28604624  0.22498499
   0.86907018  0.95198510  0.13528489
   0.70138704  0.28621728  0.22526043
   0.45203126  0.28621535  0.22526213
   0.86759678  0.95387341  0.41364078
   0.11667950  0.45388273  0.41363593
   0.11674620  0.95404549  0.41347865
   0.86807404  0.45394231  0.41361939
   0.36775735  0.95410149  0.41348562
   0.86796422  0.20284937  0.41350018
   0.11745387  0.20363791  0.41291066
   0.61699115  0.95391605  0.41365765
   0.86756641  0.70338148  0.41365600
   0.36765431  0.20298068  0.41353267
   0.36493334  0.70855402  0.41602648
   0.62222142  0.45113141  0.41635921
   0.11422659  0.70509329  0.41304681
   0.61908777  0.20039334  0.41305964
   0.36520317  0.45138442  0.41628960
   0.61929247  0.70512816  0.41305843
   0.45133150  0.53883168  0.46077936
 
 position of ions in cartesian coordinates  (Angst):
  12.87899866  7.94789149  6.91895913
   4.95802135  7.95183857  6.91284645
   3.63781475  5.66186059  6.91505191
  12.88772033  7.94133272  0.98786446
   4.96828393  7.94090224  0.98788306
   3.64811462  5.65490987  0.98788947
   7.60344927  1.84765881  2.97611975
   8.92359848  8.70642196  2.97614598
   2.31928022  3.38091389  6.91762948
   2.32839939  3.36855426  0.98789358
  10.24366464  1.84749206  2.97631248
  12.88100789  4.89654500  4.94572143
   3.64282050  1.09226777  6.91579244
   8.91109235  5.65952472  6.95318664
   4.96460520  3.38076087  6.93078078
   3.64789606  1.08225215  0.98791005
   8.92836215  5.65490912  0.98748999
   4.96868441  3.36845313  0.98773405
  11.56328854  8.70619814  2.97600392
  11.56064306  7.18322757  4.94632117
  12.88367467  6.41974322  2.97616357
   8.92347749  4.13384112  2.97613890
   7.59931110  7.95118164  6.92673264
   7.60853096  7.94123032  0.98753917
  10.24361217  6.42012028  2.97614778
   2.32114435  0.32540151  4.94787851
   7.59940289  3.38708403  6.95425096
   7.60822020  3.36881638  0.98754146
   6.27840740  1.08841120  6.91343818
   6.28820881  1.08205200  0.98764103
  11.56394379  4.13342813  2.97610764
   3.64387901  4.13378388  2.97637661
   0.99540999  1.09201140  6.91539351
   1.00799478  1.08228986  0.98796576
   6.28378054  8.70616301  2.97613461
   7.60130714  4.89777499  4.96458754
   4.96353744  1.84747315  2.97628524
   2.32373725  1.84771228  2.97641232
  14.20156761  7.18306296  4.94637679
  11.56009918  5.66201723  6.91514075
   6.28697394  5.66008913  6.95191031
  11.56778653  5.65496554  0.98776285
   6.28834392  5.65490162  0.98765720
   7.60388330  6.42002854  2.97604272
   6.28360299  4.13381078  2.97626705
   3.64465679  2.61588783  4.94985200
  10.23456156  3.38047241  6.93090304
  10.24772068  3.36878157  0.98775169
  10.24295426  0.32663582  4.94507116
   8.91758342  7.17954561  4.95624146
  10.23309430  4.89896297  4.95528620
   6.28497868  7.18009559  4.95591382
   4.95917323  0.32662402  4.94511370
   4.96386992  6.41973253  2.97634381
   7.60097269  0.32518178  4.94639608
   8.91952715  1.08840508  6.91346186
  10.24028314  7.95192038  6.91301063
   8.92812813  1.08218139  0.98802358
  10.24773354  7.94104423  0.98726635
   4.96888844  4.89892430  4.95526968
  11.55753617  2.61595830  4.94966968
  14.20386302  8.70612141  2.97626755
   8.91787468  2.61752245  4.95572935
   6.28466743  2.61750481  4.95576696
  14.19827411  8.72339037  9.10009722
   3.62863647  4.15086131  9.09999050
   6.27020031  8.72496408  9.09653035
  11.56367769  4.15140618  9.09962658
   8.92117381  8.72547622  9.09668370
  10.23674726  1.85510389  9.09700401
   2.31552109  1.86231525  9.08403460
  11.55210377  8.72378033  9.10046824
  12.87535597  6.43258440  9.10043190
   4.95416773  1.85630472  9.09771876
   7.59486161  6.47988848  9.15258250
   8.95263241  4.12569993  9.15990253
   4.92912560  6.44823936  9.08702975
   7.59564395  1.83264293  9.08731203
   6.23985542  4.12801368  9.15837111
  10.26280559  6.44855823  9.08728543
   7.61109220  4.92773890 10.13714594
 


--------------------------------------------------------------------------------------------------------


 k-point  1 :   0.0000 0.0000 0.0000  plane waves:   62167
 k-point  2 :   0.5000 0.0000 0.0000  plane waves:   62242
 k-point  3 :   0.0000 0.5000 0.0000  plane waves:   62242
 k-point  4 :   0.5000 0.5000 0.0000  plane waves:   62242

 maximum and minimum number of plane-waves per node :     62242    62167

 maximum number of plane-waves:     62242
 maximum index in each direction: 
   IXMAX=   20   IYMAX=   20   IZMAX=   42
   IXMIN=  -20   IYMIN=  -20   IZMIN=  -42


 serial   3D FFT for wavefunctions
 parallel 3D FFT for charge:
    minimum data exchange during FFTs selected (reduces bandwidth)


 total amount of memory used by VASP MPI-rank0   387129. kBytes
=======================================================================

   base      :      30000. kBytes
   nonlr-proj:     106342. kBytes
   fftplans  :      13995. kBytes
   grid      :     120016. kBytes
   one-center:       2519. kBytes
   wavefun   :     114257. kBytes
 
     INWAV:  cpu time    0.0000: real time    0.0000
 Broyden mixing: mesh for mixing (old mesh)
   NGX = 41   NGY = 41   NGZ = 85
  (NGX  =168   NGY  =168   NGZ  =336)
  gives a total of 142885 points

 initial charge density was supplied:
 charge density of overlapping atoms calculated
 number of electron     865.0000000 magnetization      81.0000000
 keeping initial charge density in first step


--------------------------------------------------------------------------------------------------------


 Maximum index for non-local projection operator         7562
 Maximum index for augmentation-charges         1208 (set IRDMAX)


--------------------------------------------------------------------------------------------------------


 First call to EWALD:  gamma=   0.138
 Maximum number of real-space cells 4x 4x 2
 Maximum number of reciprocal cells 2x 2x 4

    FEWALD:  cpu time    0.0042: real time    0.0042


--------------------------------------- Iteration      1(   1)  ---------------------------------------


    POTLOK:  cpu time    0.4821: real time    0.5121
    SETDIJ:  cpu time    0.0317: real time    0.0320
     EDDAV:  cpu time   55.6383: real time   55.8100
 BZINTS: Fermi energy: 20.985484;865.000000 electrons
         Band energy:9090.633038;  BLOECHL correction: -0.018826
       DOS:  cpu time    0.0181: real time    0.0182
    --------------------------------------------
      LOOP:  cpu time   56.1702: real time   56.3723

 eigenvalue-minimisations  :  8960
 total energy-change (2. order) : 0.9209794E+04  (-0.3760422E+05)
 number of electron     865.0000000 magnetization      81.0000000
 augmentation part      865.0000000 magnetization      81.0000000

 Free energy of the ion-electron system (eV)
  ---------------------------------------------------
  alpha Z        PSCENC =      2352.55678678
  Ewald energy   TEWEN  =    310841.49278641
  -Hartree energ DENC   =   -410442.72496824
  -exchange      EXHF   =         0.00000000
  -V(xc)+E(xc)   XCENC  =      2987.20227912
  PAW double counting   =     89736.77449389   -96057.01770219
  entropy T*S    EENTRO =         0.00000000
  eigenvalues    EBANDS =      9090.63303835
  atomic energy  EATOM  =    100700.87774686
  Solvation  Ediel_sol  =         0.00000000
  ---------------------------------------------------
  free energy    TOTEN  =      9209.79446099 eV

  energy without entropy =     9209.79446099  energy(sigma->0) =     9209.79446099


--------------------------------------------------------------------------------------------------------




--------------------------------------- Iteration      1(   2)  ---------------------------------------


     EDDAV:  cpu time   55.7192: real time   55.8847
 BZINTS: Fermi energy:  7.958737;865.000000 electrons
         Band energy:1357.314959;  BLOECHL correction:  0.000000
       DOS:  cpu time    0.0053: real time    0.0053
    --------------------------------------------
      LOOP:  cpu time   55.7245: real time   55.8900

 eigenvalue-minimisations  :  8960
 total energy-change (2. order) :-0.7733318E+04  (-0.7242740E+04)
 number of electron     865.0000000 magnetization      81.0000000
 augmentation part      865.0000000 magnetization      81.0000000

 Free energy of the ion-electron system (eV)
  ---------------------------------------------------
  alpha Z        PSCENC =      2352.55678678
  Ewald energy   TEWEN  =    310841.49278641
  -Hartree energ DENC   =   -410442.72496824
  -exchange      EXHF   =         0.00000000
  -V(xc)+E(xc)   XCENC  =      2987.20227912
  PAW double counting   =     89736.77449389   -96057.01770219
  entropy T*S    EENTRO =         0.00000000
  eigenvalues    EBANDS =      1357.31495942
  atomic energy  EATOM  =    100700.87774686
  Solvation  Ediel_sol  =         0.00000000
  ---------------------------------------------------
  free energy    TOTEN  =      1476.47638206 eV

  energy without entropy =     1476.47638206  energy(sigma->0) =     1476.47638206


--------------------------------------------------------------------------------------------------------




--------------------------------------- Iteration      1(   3)  ---------------------------------------


     EDDAV:  cpu time   57.7334: real time   57.9024
 BZINTS: Fermi energy:  2.857825;865.000000 electrons
         Band energy:-298.198645;  BLOECHL correction: -0.058964
       DOS:  cpu time    0.0182: real time    0.0183
    --------------------------------------------
      LOOP:  cpu time   57.7517: real time   57.9207

 eigenvalue-minimisations  :  9360
 total energy-change (2. order) :-0.1655514E+04  (-0.1483977E+04)
 number of electron     865.0000000 magnetization      81.0000000
 augmentation part      865.0000000 magnetization      81.0000000

 Free energy of the ion-electron system (eV)
  ---------------------------------------------------
  alpha Z        PSCENC =      2352.55678678
  Ewald energy   TEWEN  =    310841.49278641
  -Hartree energ DENC   =   -410442.72496824
  -exchange      EXHF   =         0.00000000
  -V(xc)+E(xc)   XCENC  =      2987.20227912
  PAW double counting   =     89736.77449389   -96057.01770219
  entropy T*S    EENTRO =         0.00000000
  eigenvalues    EBANDS =      -298.19864477
  atomic energy  EATOM  =    100700.87774686
  Solvation  Ediel_sol  =         0.00000000
  ---------------------------------------------------
  free energy    TOTEN  =      -179.03722213 eV

  energy without entropy =     -179.03722213  energy(sigma->0) =     -179.03722213


--------------------------------------------------------------------------------------------------------




--------------------------------------- Iteration      1(   4)  ---------------------------------------


     EDDAV:  cpu time   79.3930: real time   79.6268
 BZINTS: Fermi energy:  2.258473;865.000000 electrons
         Band energy:-488.356191;  BLOECHL correction: -0.090315
       DOS:  cpu time    0.0169: real time    0.0169
    --------------------------------------------
      LOOP:  cpu time   79.4099: real time   79.6437

 eigenvalue-minimisations  : 13920
 total energy-change (2. order) :-0.1901575E+03  (-0.1739009E+03)
 number of electron     865.0000000 magnetization      81.0000000
 augmentation part      865.0000000 magnetization      81.0000000

 Free energy of the ion-electron system (eV)
  ---------------------------------------------------
  alpha Z        PSCENC =      2352.55678678
  Ewald energy   TEWEN  =    310841.49278641
  -Hartree energ DENC   =   -410442.72496824
  -exchange      EXHF   =         0.00000000
  -V(xc)+E(xc)   XCENC  =      2987.20227912
  PAW double counting   =     89736.77449389   -96057.01770219
  entropy T*S    EENTRO =         0.00000000
  eigenvalues    EBANDS =      -488.35619102
  atomic energy  EATOM  =    100700.87774686
  Solvation  Ediel_sol  =         0.00000000
  ---------------------------------------------------
  free energy    TOTEN  =      -369.19476838 eV

  energy without entropy =     -369.19476838  energy(sigma->0) =     -369.19476838


--------------------------------------------------------------------------------------------------------




--------------------------------------- Iteration      1(   5)  ---------------------------------------


     EDDAV:  cpu time   77.2996: real time   77.5296
 BZINTS: Fermi energy:  2.247377;865.000000 electrons
         Band energy:-493.418632;  BLOECHL correction: -0.090791
       DOS:  cpu time    0.0171: real time    0.0172
    CHARGE:  cpu time    3.0667: real time    3.0758
    MIXING:  cpu time    0.0100: real time    0.0108
    --------------------------------------------
      LOOP:  cpu time   80.3935: real time   80.6334

 eigenvalue-minimisations  : 13360
 total energy-change (2. order) :-0.5062441E+01  (-0.5021031E+01)
 number of electron     865.0000423 magnetization      72.9388714
 augmentation part      462.1044905 magnetization      70.5052778

 Broyden mixing:
  rms(total) = 0.90741E+01    rms(broyden)= 0.90741E+01
  rms(prec ) = 0.93889E+01
  weight for this iteration     100.00

 Free energy of the ion-electron system (eV)
  ---------------------------------------------------
  alpha Z        PSCENC =      2352.55678678
  Ewald energy   TEWEN  =    310841.49278641
  -Hartree energ DENC   =   -410442.72496824
  -exchange      EXHF   =         0.00000000
  -V(xc)+E(xc)   XCENC  =      2987.20227912
  PAW double counting   =     89736.77449389   -96057.01770219
  entropy T*S    EENTRO =         0.00000000
  eigenvalues    EBANDS =      -493.41863171
  atomic energy  EATOM  =    100700.87774686
  Solvation  Ediel_sol  =         0.00000000
  ---------------------------------------------------
  free energy    TOTEN  =      -374.25720908 eV

  energy without entropy =     -374.25720908  energy(sigma->0) =     -374.25720908


--------------------------------------------------------------------------------------------------------




--------------------------------------- Iteration      1(   6)  ---------------------------------------


    POTLOK:  cpu time    0.4383: real time    0.4396
    SETDIJ:  cpu time    0.0316: real time    0.0317
    EDDIAG:  cpu time    8.7734: real time    8.7999
  RMM-DIIS:  cpu time   36.0647: real time   36.1729
    ORTHCH:  cpu time    1.3092: real time    1.3127
 BZINTS: Fermi energy:  1.422407;865.000000 electrons
         Band energy:***********;  BLOECHL correction: -0.245831
       DOS:  cpu time    0.0187: real time    0.0187
    CHARGE:  cpu time    3.1342: real time    3.1429
    MIXING:  cpu time    0.0100: real time    0.0247
    --------------------------------------------
      LOOP:  cpu time   49.7801: real time   49.9433

 eigenvalue-minimisations  :  8994
 total energy-change (2. order) :-0.1030186E+01  (-0.7771892E+02)
 number of electron     865.0000486 magnetization      69.6588969
 augmentation part      514.2549110 magnetization      47.5365639

 Broyden mixing:
  rms(total) = 0.61910E+01    rms(broyden)= 0.61909E+01
  rms(prec ) = 0.89389E+01
  weight for this iteration     100.00

 eigenvalues of (default mixing * dielectric matrix)
  average eigenvalue GAMMA=   0.7278
  0.7278

 Free energy of the ion-electron system (eV)
  ---------------------------------------------------
  alpha Z        PSCENC =      2352.55678678
  Ewald energy   TEWEN  =    310841.49278641
  -Hartree energ DENC   =   -408270.61531496
  -exchange      EXHF   =         0.00000000
  -V(xc)+E(xc)   XCENC  =      2905.69535624
  PAW double counting   =     92146.24363406   -98114.17220161
  entropy T*S    EENTRO =         0.00000000
  eigenvalues    EBANDS =     -2937.36618880
  atomic energy  EATOM  =    100700.87774686
  Solvation  Ediel_sol  =         0.00000000
  ---------------------------------------------------
  free energy    TOTEN  =      -375.28739502 eV

  energy without entropy =     -375.28739502  energy(sigma->0) =     -375.28739502


--------------------------------------------------------------------------------------------------------




--------------------------------------- Iteration      1(   7)  ---------------------------------------


    POTLOK:  cpu time    0.4394: real time    0.4405
    SETDIJ:  cpu time    0.0315: real time    0.0316
    EDDIAG:  cpu time    8.6674: real time    8.6930
  RMM-DIIS:  cpu time   37.6431: real time   37.7555
    ORTHCH:  cpu time    1.2050: real time    1.2085
 BZINTS: Fermi energy:  2.485687;865.000000 electrons
         Band energy:***********;  BLOECHL correction: -0.009904
       DOS:  cpu time    0.0199: real time    0.0199
    CHARGE:  cpu time    3.0986: real time    3.1077
    MIXING:  cpu time    0.0099: real time    0.0099
    --------------------------------------------
      LOOP:  cpu time   51.1148: real time   51.2666

 eigenvalue-minimisations  :  9544
 total energy-change (2. order) :-0.6146849E+02  (-0.2425455E+02)
 number of electron     865.0000412 magnetization      67.4689243
 augmentation part      485.8866250 magnetization      49.5220422

 Broyden mixing:
  rms(total) = 0.10671E+02    rms(broyden)= 0.10671E+02
  rms(prec ) = 0.14639E+02
  weight for this iteration     100.00

 eigenvalues of (default mixing * dielectric matrix)
  average eigenvalue GAMMA=   0.4484
  0.7909  0.1059

 Free energy of the ion-electron system (eV)
  ---------------------------------------------------
  alpha Z        PSCENC =      2352.55678678
  Ewald energy   TEWEN  =    310841.49278641
  -Hartree energ DENC   =   -409658.30681105
  -exchange      EXHF   =         0.00000000
  -V(xc)+E(xc)   XCENC  =      2932.36658364
  PAW double counting   =     93945.26688881  -100269.07302223
  entropy T*S    EENTRO =         0.00000000
  eigenvalues    EBANDS =     -1281.93684742
  atomic energy  EATOM  =    100700.87774686
  Solvation  Ediel_sol  =         0.00000000
  ---------------------------------------------------
  free energy    TOTEN  =      -436.75588820 eV

  energy without entropy =     -436.75588820  energy(sigma->0) =     -436.75588820


--------------------------------------------------------------------------------------------------------




--------------------------------------- Iteration      1(   8)  ---------------------------------------


    POTLOK:  cpu time    0.4345: real time    0.4357
    SETDIJ:  cpu time    0.0314: real time    0.0317
    EDDIAG:  cpu time    8.8282: real time    8.8534
  RMM-DIIS:  cpu time   35.6170: real time   35.7220
    ORTHCH:  cpu time    1.2044: real time    1.2078
 BZINTS: Fermi energy:  1.759549;865.000000 electrons
         Band energy:***********;  BLOECHL correction: -0.224887
       DOS:  cpu time    0.0203: real time    0.0204
    CHARGE:  cpu time    3.0331: real time    3.0419
    MIXING:  cpu time    0.0101: real time    0.0101
    --------------------------------------------
      LOOP:  cpu time   49.1790: real time   49.3229

 eigenvalue-minimisations  :  9027
 total energy-change (2. order) : 0.8796225E+02  (-0.2866837E+01)
 number of electron     865.0000454 magnetization      65.0308479
 augmentation part      495.3285724 magnetization      49.2142822

 Broyden mixing:
  rms(total) = 0.65758E+01    rms(broyden)= 0.65756E+01
  rms(prec ) = 0.78284E+01
  weight for this iteration     100.00

 eigenvalues of (default mixing * dielectric matrix)
  average eigenvalue GAMMA=   0.4245
  0.8688  0.2023  0.2023

 Free energy of the ion-electron system (eV)
  ---------------------------------------------------
  alpha Z        PSCENC =      2352.55678678
  Ewald energy   TEWEN  =    310841.49278641
  -Hartree energ DENC   =   -409692.25968300
  -exchange      EXHF   =         0.00000000
  -V(xc)+E(xc)   XCENC  =      2930.93870396
  PAW double counting   =     94808.60324856  -101189.86084084
  entropy T*S    EENTRO =         0.00000000
  eigenvalues    EBANDS =     -1101.14238938
  atomic energy  EATOM  =    100700.87774686
  Solvation  Ediel_sol  =         0.00000000
  ---------------------------------------------------
  free energy    TOTEN  =      -348.79364065 eV

  energy without entropy =     -348.79364065  energy(sigma->0) =     -348.79364065


--------------------------------------------------------------------------------------------------------




--------------------------------------- Iteration      1(   9)  ---------------------------------------


    POTLOK:  cpu time    0.4324: real time    0.4338
    SETDIJ:  cpu time    0.0315: real time    0.0316
    EDDIAG:  cpu time    8.6072: real time    8.6324
  RMM-DIIS:  cpu time   35.4413: real time   35.5458
    ORTHCH:  cpu time    1.2057: real time    1.2091
 BZINTS: Fermi energy:  1.218081;865.000000 electrons
         Band energy:***********;  BLOECHL correction: -0.324923
       DOS:  cpu time    0.0201: real time    0.0202
    CHARGE:  cpu time    3.0380: real time    3.0469
    MIXING:  cpu time    0.0106: real time    0.0106
    --------------------------------------------
      LOOP:  cpu time   48.7869: real time   48.9304

 eigenvalue-minimisations  :  9058
 total energy-change (2. order) : 0.3350937E+02  (-0.2893071E+01)
 number of electron     865.0000447 magnetization      58.9737113
 augmentation part      499.3970214 magnetization      42.7183835

 Broyden mixing:
  rms(total) = 0.42157E+01    rms(broyden)= 0.42157E+01
  rms(prec ) = 0.55281E+01
  weight for this iteration     100.00

 eigenvalues of (default mixing * dielectric matrix)
  average eigenvalue GAMMA=   0.5368
  0.9990  0.5558  0.4120  0.1806

 Free energy of the ion-electron system (eV)
  ---------------------------------------------------
  alpha Z        PSCENC =      2352.55678678
  Ewald energy   TEWEN  =    310841.49278641
  -Hartree energ DENC   =   -409350.73063051
  -exchange      EXHF   =         0.00000000
  -V(xc)+E(xc)   XCENC  =      2933.75946209
  PAW double counting   =     95498.44703018  -101906.35430963
  entropy T*S    EENTRO =         0.00000000
  eigenvalues    EBANDS =     -1385.33314489
  atomic energy  EATOM  =    100700.87774686
  Solvation  Ediel_sol  =         0.00000000
  ---------------------------------------------------
  free energy    TOTEN  =      -315.28427272 eV

  energy without entropy =     -315.28427272  energy(sigma->0) =     -315.28427272


--------------------------------------------------------------------------------------------------------




--------------------------------------- Iteration      1(  10)  ---------------------------------------


    POTLOK:  cpu time    0.4368: real time    0.4383
    SETDIJ:  cpu time    0.0319: real time    0.0320
    EDDIAG:  cpu time    8.6024: real time    8.6275
  RMM-DIIS:  cpu time   35.8070: real time   35.9124
    ORTHCH:  cpu time    1.2061: real time    1.2100
 BZINTS: Fermi energy:  1.629416;865.000000 electrons
         Band energy:***********;  BLOECHL correction: -0.120537
       DOS:  cpu time    0.0187: real time    0.0188
    CHARGE:  cpu time    3.0344: real time    3.0430
    MIXING:  cpu time    0.0107: real time    0.0108
    --------------------------------------------
      LOOP:  cpu time   49.1480: real time   49.2927

 eigenvalue-minimisations  :  9038
 total energy-change (2. order) : 0.2948464E+02  (-0.4181841E+01)
 number of electron     865.0000450 magnetization      54.4997820
 augmentation part      495.3316086 magnetization      37.0823763

 Broyden mixing:
  rms(total) = 0.25470E+01    rms(broyden)= 0.25470E+01
  rms(prec ) = 0.28483E+01
  weight for this iteration     100.00

 eigenvalues of (default mixing * dielectric matrix)
  average eigenvalue GAMMA=   0.5900
  1.2139  0.6249  0.6249  0.3048  0.1813

 Free energy of the ion-electron system (eV)
  ---------------------------------------------------
  alpha Z        PSCENC =      2352.55678678
  Ewald energy   TEWEN  =    310841.49278641
  -Hartree energ DENC   =   -409422.01387954
  -exchange      EXHF   =         0.00000000
  -V(xc)+E(xc)   XCENC  =      2949.41151172
  PAW double counting   =     96884.56475801  -103344.62318581
  entropy T*S    EENTRO =         0.00000000
  eigenvalues    EBANDS =     -1248.06615923
  atomic energy  EATOM  =    100700.87774686
  Solvation  Ediel_sol  =         0.00000000
  ---------------------------------------------------
  free energy    TOTEN  =      -285.79963481 eV

  energy without entropy =     -285.79963481  energy(sigma->0) =     -285.79963481


--------------------------------------------------------------------------------------------------------




--------------------------------------- Iteration      1(  11)  ---------------------------------------


    POTLOK:  cpu time    0.4340: real time    0.4350
    SETDIJ:  cpu time    0.0316: real time    0.0317
    EDDIAG:  cpu time    8.6368: real time    8.6622
  RMM-DIIS:  cpu time   35.5914: real time   35.7025
    ORTHCH:  cpu time    1.2067: real time    1.2103
 BZINTS: Fermi energy:  1.620784;865.000000 electrons
         Band energy:***********;  BLOECHL correction: -0.198966
       DOS:  cpu time    0.0191: real time    0.0191
    CHARGE:  cpu time    3.0365: real time    3.0452
    MIXING:  cpu time    0.0111: real time    0.0111
    --------------------------------------------
      LOOP:  cpu time   48.9671: real time   49.1172

 eigenvalue-minimisations  :  9005
 total energy-change (2. order) : 0.3711465E+01  (-0.1545064E+01)
 number of electron     865.0000456 magnetization      51.1967565
 augmentation part      496.3096098 magnetization      37.3183916

 Broyden mixing:
  rms(total) = 0.19100E+01    rms(broyden)= 0.19100E+01
  rms(prec ) = 0.20135E+01
  weight for this iteration     100.00

 eigenvalues of (default mixing * dielectric matrix)
  average eigenvalue GAMMA=   0.5658
  1.3651  0.5178  0.5178  0.5338  0.1824  0.2780

 Free energy of the ion-electron system (eV)
  ---------------------------------------------------
  alpha Z        PSCENC =      2352.55678678
  Ewald energy   TEWEN  =    310841.49278641
  -Hartree energ DENC   =   -409430.38734276
  -exchange      EXHF   =         0.00000000
  -V(xc)+E(xc)   XCENC  =      2946.75064131
  PAW double counting   =     97581.96887774  -104058.00578518
  entropy T*S    EENTRO =         0.00000000
  eigenvalues    EBANDS =     -1217.34188054
  atomic energy  EATOM  =    100700.87774686
  Solvation  Ediel_sol  =         0.00000000
  ---------------------------------------------------
  free energy    TOTEN  =      -282.08816936 eV

  energy without entropy =     -282.08816936  energy(sigma->0) =     -282.08816936


--------------------------------------------------------------------------------------------------------




--------------------------------------- Iteration      1(  12)  ---------------------------------------


    POTLOK:  cpu time    0.4329: real time    0.4340
    SETDIJ:  cpu time    0.0317: real time    0.0318
    EDDIAG:  cpu time    8.6044: real time    8.6300
  RMM-DIIS:  cpu time   35.5978: real time   35.7022
    ORTHCH:  cpu time    1.2080: real time    1.2117
 BZINTS: Fermi energy:  1.625802;865.000000 electrons
         Band energy:***********;  BLOECHL correction: -0.184611
       DOS:  cpu time    0.0186: real time    0.0186
    CHARGE:  cpu time    3.0468: real time    3.0557
    MIXING:  cpu time    0.0122: real time    0.0123
    --------------------------------------------
      LOOP:  cpu time   48.9525: real time   49.0961

 eigenvalue-minimisations  :  9030
 total energy-change (2. order) : 0.8073577E-01  (-0.1460820E+00)
 number of electron     865.0000457 magnetization      38.1537017
 augmentation part      497.6364264 magnetization      23.8402922

 Broyden mixing:
  rms(total) = 0.15524E+01    rms(broyden)= 0.15524E+01
  rms(prec ) = 0.16028E+01
  weight for this iteration     100.00

 eigenvalues of (default mixing * dielectric matrix)
  average eigenvalue GAMMA=   0.6627
  1.3865  0.7506  0.7506  0.8590  0.1823  0.2933  0.4167

 Free energy of the ion-electron system (eV)
  ---------------------------------------------------
  alpha Z        PSCENC =      2352.55678678
  Ewald energy   TEWEN  =    310841.49278641
  -Hartree energ DENC   =   -409434.09165672
  -exchange      EXHF   =         0.00000000
  -V(xc)+E(xc)   XCENC  =      2942.75495964
  PAW double counting   =     97905.33672461  -104387.86292286
  entropy T*S    EENTRO =         0.00000000
  eigenvalues    EBANDS =     -1203.07185833
  atomic energy  EATOM  =    100700.87774686
  Solvation  Ediel_sol  =         0.00000000
  ---------------------------------------------------
  free energy    TOTEN  =      -282.00743360 eV

  energy without entropy =     -282.00743360  energy(sigma->0) =     -282.00743360


--------------------------------------------------------------------------------------------------------




--------------------------------------- Iteration      1(  13)  ---------------------------------------


    POTLOK:  cpu time    0.4438: real time    0.4449
    SETDIJ:  cpu time    0.0317: real time    0.0318
    EDDIAG:  cpu time    8.6202: real time    8.6457
  RMM-DIIS:  cpu time   35.6135: real time   35.7186
    ORTHCH:  cpu time    1.2071: real time    1.2106
 BZINTS: Fermi energy:  1.612440;865.000000 electrons
         Band energy:***********;  BLOECHL correction: -0.226206
       DOS:  cpu time    0.0199: real time    0.0199
    CHARGE:  cpu time    3.0324: real time    3.0413
    MIXING:  cpu time    0.0121: real time    0.0121
    --------------------------------------------
      LOOP:  cpu time   48.9808: real time   49.1247

 eigenvalue-minimisations  :  9079
 total energy-change (2. order) :-0.1453008E+02  (-0.7355132E+00)
 number of electron     865.0000459 magnetization      28.7628070
 augmentation part      500.5774654 magnetization      15.9285776

 Broyden mixing:
  rms(total) = 0.14054E+01    rms(broyden)= 0.14054E+01
  rms(prec ) = 0.16816E+01
  weight for this iteration     100.00

 eigenvalues of (default mixing * dielectric matrix)
  average eigenvalue GAMMA=   0.8133
  2.0889  1.5494  0.6870  0.6870  0.5832  0.1822  0.4322  0.2968

 Free energy of the ion-electron system (eV)
  ---------------------------------------------------
  alpha Z        PSCENC =      2352.55678678
  Ewald energy   TEWEN  =    310841.49278641
  -Hartree energ DENC   =   -409497.84942448
  -exchange      EXHF   =         0.00000000
  -V(xc)+E(xc)   XCENC  =      2926.88999515
  PAW double counting   =     98672.95591981  -105172.47469553
  entropy T*S    EENTRO =         0.00000000
  eigenvalues    EBANDS =     -1120.98662684
  atomic energy  EATOM  =    100700.87774686
  Solvation  Ediel_sol  =         0.00000000
  ---------------------------------------------------
  free energy    TOTEN  =      -296.53751183 eV

  energy without entropy =     -296.53751183  energy(sigma->0) =     -296.53751183


--------------------------------------------------------------------------------------------------------




--------------------------------------- Iteration      1(  14)  ---------------------------------------


    POTLOK:  cpu time    0.4336: real time    0.4346
    SETDIJ:  cpu time    0.0318: real time    0.0318
    EDDIAG:  cpu time    8.7291: real time    8.7548
  RMM-DIIS:  cpu time   35.4497: real time   35.5545
    ORTHCH:  cpu time    1.2075: real time    1.2109
 BZINTS: Fermi energy:  1.663629;865.000000 electrons
         Band energy:***********;  BLOECHL correction: -0.168573
       DOS:  cpu time    0.0193: real time    0.0194
    CHARGE:  cpu time    3.0396: real time    3.0485
    MIXING:  cpu time    0.0125: real time    0.0125
    --------------------------------------------
      LOOP:  cpu time   48.9230: real time   49.0669

 eigenvalue-minimisations  :  9014
 total energy-change (2. order) :-0.8897885E+01  (-0.4552552E+00)
 number of electron     865.0000460 magnetization      19.4917531
 augmentation part      500.1623995 magnetization      10.5142188

 Broyden mixing:
  rms(total) = 0.98564E+00    rms(broyden)= 0.98563E+00
  rms(prec ) = 0.10974E+01
  weight for this iteration     100.00

 eigenvalues of (default mixing * dielectric matrix)
  average eigenvalue GAMMA=   0.9381
  3.6042  1.3879  0.6618  0.6618  0.7134  0.1822  0.5302  0.2981  0.4036

 Free energy of the ion-electron system (eV)
  ---------------------------------------------------
  alpha Z        PSCENC =      2352.55678678
  Ewald energy   TEWEN  =    310841.49278641
  -Hartree energ DENC   =   -409541.25396696
  -exchange      EXHF   =         0.00000000
  -V(xc)+E(xc)   XCENC  =      2920.31459033
  PAW double counting   =     99046.51231810  -105552.66490404
  entropy T*S    EENTRO =         0.00000000
  eigenvalues    EBANDS =     -1073.27075457
  atomic energy  EATOM  =    100700.87774686
  Solvation  Ediel_sol  =         0.00000000
  ---------------------------------------------------
  free energy    TOTEN  =      -305.43539710 eV

  energy without entropy =     -305.43539710  energy(sigma->0) =     -305.43539710


--------------------------------------------------------------------------------------------------------




--------------------------------------- Iteration      1(  15)  ---------------------------------------


    POTLOK:  cpu time    0.4322: real time    0.4334
    SETDIJ:  cpu time    0.0317: real time    0.0318
    EDDIAG:  cpu time    8.6055: real time    8.6307
  RMM-DIIS:  cpu time   35.5386: real time   35.6437
    ORTHCH:  cpu time    1.2081: real time    1.2114
 BZINTS: Fermi energy:  1.680290;865.000000 electrons
         Band energy:***********;  BLOECHL correction: -0.135955
       DOS:  cpu time    0.0204: real time    0.0204
    CHARGE:  cpu time    3.0520: real time    3.0610
    MIXING:  cpu time    0.0122: real time    0.0122
    --------------------------------------------
      LOOP:  cpu time   48.9005: real time   49.0447

 eigenvalue-minimisations  :  9021
 total energy-change (2. order) :-0.6661851E+01  (-0.3626781E+00)
 number of electron     865.0000460 magnetization      10.7400678
 augmentation part      500.0980978 magnetization       3.3292994

 Broyden mixing:
  rms(total) = 0.88163E+00    rms(broyden)= 0.88162E+00
  rms(prec ) = 0.98839E+00
  weight for this iteration     100.00

 eigenvalues of (default mixing * dielectric matrix)
  average eigenvalue GAMMA=   1.0898
  5.1825  1.3875  1.0503  0.7158  0.7158  0.1822  0.5595  0.2989  0.4442  0.3613

 Free energy of the ion-electron system (eV)
  ---------------------------------------------------
  alpha Z        PSCENC =      2352.55678678
  Ewald energy   TEWEN  =    310841.49278641
  -Hartree energ DENC   =   -409585.86157581
  -exchange      EXHF   =         0.00000000
  -V(xc)+E(xc)   XCENC  =      2915.93750856
  PAW double counting   =     99219.98678849  -105735.13817112
  entropy T*S    EENTRO =         0.00000000
  eigenvalues    EBANDS =     -1021.94911867
[...]
      7.603883  6.420029  2.976043            0           0           0  
      6.283603  4.133811  2.976267            0           0           0  
      3.644657  2.615888  4.949852            0           0           0  
     10.234562  3.380472  6.930903            0           0           0  
     10.247721  3.368782  0.987752            0           0           0  
     10.242954  0.326636  4.945071            0           0           0  
      8.917583  7.179546  4.956241            0           0           0  
     10.233094  4.898963  4.955286            0           0           0  
      6.284979  7.180096  4.955914            0           0           0  
      4.959173  0.326624  4.945114            0           0           0  
      4.963870  6.419733  2.976344            0           0           0  
      7.600973  0.325182  4.946396            0           0           0  
      8.919527  1.088405  6.913462            0           0           0  
     10.240283  7.951920  6.913011            0           0           0  
      8.928128  1.082181  0.988024            0           0           0  
     10.247734  7.941044  0.987266            0           0           0  
      4.968888  4.898924  4.955270            0           0           0  
     11.557536  2.615958  4.949670            0           0           0  
     14.203863  8.706121  2.976268            0           0           0  
      8.917875  2.617522  4.955729            0           0           0  
      6.284667  2.617505  4.955767            0           0           0  
     14.198274  8.723390  9.100097            0           0           0  
      3.628636  4.150861  9.099990            0           0           0  
      6.270200  8.724964  9.096530            0           0           0  
     11.563678  4.151406  9.099627            0           0           0  
      8.921174  8.725476  9.096684            0           0           0  
     10.236747  1.855104  9.097004            0           0           0  
      2.315521  1.862315  9.084035            0           0           0  
     11.552104  8.723780  9.100468            0           0           0  
     12.875356  6.432584  9.100432            0           0           0  
      4.954168  1.856305  9.097719            0           0           0  
      7.594862  6.479888  9.152583            0           0           0  
      8.952632  4.125700  9.159903            0           0           0  
      4.929126  6.448239  9.087030            0           0           0  
      7.595644  1.832643  9.087312            0           0           0  
      6.239855  4.128014  9.158371            0           0           0  
     10.262806  6.448558  9.087285            0           0           0  
      7.611092  4.927739 10.137146    -0.049462   -0.014002    0.998678  
 
   2 f  =   19.722574 THz   123.920590 2PiTHz  657.874251 cm-1    81.566041 meV
             X         Y         Z           dx          dy          dz
     12.878999  7.947891  6.918959            0           0           0  
      4.958021  7.951839  6.912846            0           0           0  
      3.637815  5.661861  6.915052            0           0           0  
     12.887720  7.941333  0.987864            0           0           0  
      4.968284  7.940902  0.987883            0           0           0  
      3.648115  5.654910  0.987889            0           0           0  
      7.603449  1.847659  2.976120            0           0           0  
      8.923598  8.706422  2.976146            0           0           0  
      2.319280  3.380914  6.917629            0           0           0  
      2.328399  3.368554  0.987894            0           0           0  
     10.243665  1.847492  2.976312            0           0           0  
     12.881008  4.896545  4.945721            0           0           0  
      3.642820  1.092268  6.915792            0           0           0  
      8.911092  5.659525  6.953187            0           0           0  
      4.964605  3.380761  6.930781            0           0           0  
      3.647896  1.082252  0.987910            0           0           0  
      8.928362  5.654909  0.987490            0           0           0  
      4.968684  3.368453  0.987734            0           0           0  
     11.563289  8.706198  2.976004            0           0           0  
     11.560643  7.183228  4.946321            0           0           0  
     12.883675  6.419743  2.976164            0           0           0  
      8.923477  4.133841  2.976139            0           0           0  
      7.599311  7.951182  6.926733            0           0           0  
      7.608531  7.941230  0.987539            0           0           0  
     10.243612  6.420120  2.976148            0           0           0  
      2.321144  0.325402  4.947879            0           0           0  
      7.599403  3.387084  6.954251            0           0           0  
      7.608220  3.368816  0.987541            0           0           0  
      6.278407  1.088411  6.913438            0           0           0  
      6.288209  1.082052  0.987641            0           0           0  
     11.563944  4.133428  2.976108            0           0           0  
      3.643879  4.133784  2.976377            0           0           0  
      0.995410  1.092011  6.915394            0           0           0  
      1.007995  1.082290  0.987966            0           0           0  
      6.283781  8.706163  2.976135            0           0           0  
      7.601307  4.897775  4.964588            0           0           0  
      4.963537  1.847473  2.976285            0           0           0  
      2.323737  1.847712  2.976412            0           0           0  
     14.201568  7.183063  4.946377            0           0           0  
     11.560099  5.662017  6.915141            0           0           0  
      6.286974  5.660089  6.951910            0           0           0  
     11.567787  5.654966  0.987763            0           0           0  
      6.288344  5.654902  0.987657            0           0           0  
      7.603883  6.420029  2.976043            0           0           0  
      6.283603  4.133811  2.976267            0           0           0  
      3.644657  2.615888  4.949852            0           0           0  
     10.234562  3.380472  6.930903            0           0           0  
     10.247721  3.368782  0.987752            0           0           0  
     10.242954  0.326636  4.945071            0           0           0  
      8.917583  7.179546  4.956241            0           0           0  
     10.233094  4.898963  4.955286            0           0           0  
      6.284979  7.180096  4.955914            0           0           0  
      4.959173  0.326624  4.945114            0           0           0  
      4.963870  6.419733  2.976344            0           0           0  
      7.600973  0.325182  4.946396            0           0           0  
      8.919527  1.088405  6.913462            0           0           0  
     10.240283  7.951920  6.913011            0           0           0  
      8.928128  1.082181  0.988024            0           0           0  
     10.247734  7.941044  0.987266            0           0           0  
      4.968888  4.898924  4.955270            0           0           0  
     11.557536  2.615958  4.949670            0           0           0  
     14.203863  8.706121  2.976268            0           0           0  
      8.917875  2.617522  4.955729            0           0           0  
      6.284667  2.617505  4.955767            0           0           0  
     14.198274  8.723390  9.100097            0           0           0  
      3.628636  4.150861  9.099990            0           0           0  
      6.270200  8.724964  9.096530            0           0           0  
     11.563678  4.151406  9.099627            0           0           0  
      8.921174  8.725476  9.096684            0           0           0  
     10.236747  1.855104  9.097004            0           0           0  
      2.315521  1.862315  9.084035            0           0           0  
     11.552104  8.723780  9.100468            0           0           0  
     12.875356  6.432584  9.100432            0           0           0  
      4.954168  1.856305  9.097719            0           0           0  
      7.594862  6.479888  9.152583            0           0           0  
      8.952632  4.125700  9.159903            0           0           0  
      4.929126  6.448239  9.087030            0           0           0  
      7.595644  1.832643  9.087312            0           0           0  
      6.239855  4.128014  9.158371            0           0           0  
     10.262806  6.448558  9.087285            0           0           0  
      7.611092  4.927739 10.137146     0.452714   -0.891600    0.009921  
 
   3 f  =   18.106049 THz   113.763661 2PiTHz  603.952765 cm-1    74.880626 meV
             X         Y         Z           dx          dy          dz
     12.878999  7.947891  6.918959            0           0           0  
      4.958021  7.951839  6.912846            0           0           0  
      3.637815  5.661861  6.915052            0           0           0  
     12.887720  7.941333  0.987864            0           0           0  
      4.968284  7.940902  0.987883            0           0           0  
      3.648115  5.654910  0.987889            0           0           0  
      7.603449  1.847659  2.976120            0           0           0  
      8.923598  8.706422  2.976146            0           0           0  
      2.319280  3.380914  6.917629            0           0           0  
      2.328399  3.368554  0.987894            0           0           0  
     10.243665  1.847492  2.976312            0           0           0  
     12.881008  4.896545  4.945721            0           0           0  
      3.642820  1.092268  6.915792            0           0           0  
      8.911092  5.659525  6.953187            0           0           0  
      4.964605  3.380761  6.930781            0           0           0  
      3.647896  1.082252  0.987910            0           0           0  
      8.928362  5.654909  0.987490            0           0           0  
      4.968684  3.368453  0.987734            0           0           0  
     11.563289  8.706198  2.976004            0           0           0  
     11.560643  7.183228  4.946321            0           0           0  
     12.883675  6.419743  2.976164            0           0           0  
      8.923477  4.133841  2.976139            0           0           0  
      7.599311  7.951182  6.926733            0           0           0  
      7.608531  7.941230  0.987539            0           0           0  
     10.243612  6.420120  2.976148            0           0           0  
      2.321144  0.325402  4.947879            0           0           0  
      7.599403  3.387084  6.954251            0           0           0  
      7.608220  3.368816  0.987541            0           0           0  
      6.278407  1.088411  6.913438            0           0           0  
      6.288209  1.082052  0.987641            0           0           0  
     11.563944  4.133428  2.976108            0           0           0  
      3.643879  4.133784  2.976377            0           0           0  
      0.995410  1.092011  6.915394            0           0           0  
      1.007995  1.082290  0.987966            0           0           0  
      6.283781  8.706163  2.976135            0           0           0  
      7.601307  4.897775  4.964588            0           0           0  
      4.963537  1.847473  2.976285            0           0           0  
      2.323737  1.847712  2.976412            0           0           0  
     14.201568  7.183063  4.946377            0           0           0  
     11.560099  5.662017  6.915141            0           0           0  
      6.286974  5.660089  6.951910            0           0           0  
     11.567787  5.654966  0.987763            0           0           0  
      6.288344  5.654902  0.987657            0           0           0  
      7.603883  6.420029  2.976043            0           0           0  
      6.283603  4.133811  2.976267            0           0           0  
      3.644657  2.615888  4.949852            0           0           0  
     10.234562  3.380472  6.930903            0           0           0  
     10.247721  3.368782  0.987752            0           0           0  
     10.242954  0.326636  4.945071            0           0           0  
      8.917583  7.179546  4.956241            0           0           0  
     10.233094  4.898963  4.955286            0           0           0  
      6.284979  7.180096  4.955914            0           0           0  
      4.959173  0.326624  4.945114            0           0           0  
      4.963870  6.419733  2.976344            0           0           0  
      7.600973  0.325182  4.946396            0           0           0  
      8.919527  1.088405  6.913462            0           0           0  
     10.240283  7.951920  6.913011            0           0           0  
      8.928128  1.082181  0.988024            0           0           0  
     10.247734  7.941044  0.987266            0           0           0  
      4.968888  4.898924  4.955270            0           0           0  
     11.557536  2.615958  4.949670            0           0           0  
     14.203863  8.706121  2.976268            0           0           0  
      8.917875  2.617522  4.955729            0           0           0  
      6.284667  2.617505  4.955767            0           0           0  
     14.198274  8.723390  9.100097            0           0           0  
      3.628636  4.150861  9.099990            0           0           0  
      6.270200  8.724964  9.096530            0           0           0  
     11.563678  4.151406  9.099627            0           0           0  
      8.921174  8.725476  9.096684            0           0           0  
     10.236747  1.855104  9.097004            0           0           0  
      2.315521  1.862315  9.084035            0           0           0  
     11.552104  8.723780  9.100468            0           0           0  
     12.875356  6.432584  9.100432            0           0           0  
      4.954168  1.856305  9.097719            0           0           0  
      7.594862  6.479888  9.152583            0           0           0  
      8.952632  4.125700  9.159903            0           0           0  
      4.929126  6.448239  9.087030            0           0           0  
      7.595644  1.832643  9.087312            0           0           0  
      6.239855  4.128014  9.158371            0           0           0  
     10.262806  6.448558  9.087285            0           0           0  
      7.611092  4.927739 10.137146     0.890283    0.452606    0.050439  
 
 Finite differences POTIM=  1.500000000000000E-002
  LATTYP: Found a hexagonal cell.
 ALAT       =    10.5600004196
 C/A-ratio  =     2.0833332505
  
  Lattice vectors:
  
 A1 = (   5.2800002098,  -9.1452286274,   0.0000000000)
 A2 = ( -10.5600004196,   0.0000000000,   0.0000000000)
 A3 = (   0.0000000000,   0.0000000000, -22.0000000000)


Analysis of symmetry for initial positions (statically):
=====================================================================
 Subroutine PRICEL returns:
 Original cell was already a primitive cell.
 

 Routine SETGRP: Setting up the symmetry group for a 
 hexagonal supercell.


 Subroutine GETGRP returns: Found  1 space group operations
 (whereof  1 operations were pure point group operations)
 out of a pool of 24 trial point group operations.


The static configuration has the point symmetry C_1 .


Analysis of symmetry for dynamics (positions and initial velocities):
=====================================================================
 Subroutine PRICEL returns:
 Original cell was already a primitive cell.
 

 Routine SETGRP: Setting up the symmetry group for a 
 hexagonal supercell.


 Subroutine GETGRP returns: Found  1 space group operations
 (whereof  1 operations were pure point group operations)
 out of a pool of 24 trial point group operations.


The dynamic configuration has the point symmetry C_1 .


Analysis of constrained symmetry for selective dynamics:
=====================================================================
 Subroutine PRICEL returns:
 Original cell was already a primitive cell.
 

 Routine SETGRP: Setting up the symmetry group for a 
 hexagonal supercell.


 Subroutine GETGRP returns: Found  1 space group operations
 (whereof  1 operations were pure point group operations)
 out of a pool of 24 trial point group operations.


The constrained configuration has the point symmetry C_1 .


Analysis of structural, dynamic, and magnetic symmetry:
=====================================================================
 Subroutine PRICEL returns:
 Original cell was already a primitive cell.
 

 Routine SETGRP: Setting up the symmetry group for a 
 hexagonal supercell.


 Subroutine GETGRP returns: Found  1 space group operations
 (whereof  1 operations were pure point group operations)
 out of a pool of 24 trial point group operations.


The magnetic configuration has the point symmetry C_1 .


 Subroutine INISYM returns: Found  1 space group operations
 (whereof  1 operations are pure point group operations),
 and found     1 'primitive' translations

 
 KPOINTS: mesh auto                               

Automatic generation of k-mesh.
Space group operators:
 irot       det(A)        alpha          n_x          n_y          n_z        tau_x        tau_y        tau_z
    1     1.000000     0.000001     1.000000     0.000000     0.000000     0.000000     0.000000     0.000000
 
 Subroutine IBZKPT returns following result:
 ===========================================
 
 Found      4 irreducible k-points:
 
 Following reciprocal coordinates:
            Coordinates               Weight
  0.000000  0.000000  0.000000      1.000000
  0.500000  0.000000  0.000000      1.000000
  0.000000  0.500000  0.000000      1.000000
  0.500000  0.500000  0.000000      1.000000
 
 Following cartesian coordinates:
            Coordinates               Weight
  0.000000  0.000000  0.000000      1.000000
  0.047348 -0.027337  0.000000      1.000000
  0.000000  0.054673  0.000000      1.000000
  0.047348  0.027337  0.000000      1.000000
 
 TETIRR: Found     12 inequivalent tetrahedra from       24
     LOOP+:  cpu time  548.7859: real time  550.5094
    4ORBIT:  cpu time    0.0000: real time    0.0000
 BZINTS: Fermi energy:  1.195074;865.000000 electrons
         Band energy:***********;  BLOECHL correction: -0.006539

 total amount of memory used by VASP MPI-rank0   387129. kBytes
=======================================================================

   base      :      30000. kBytes
   nonlr-proj:     106342. kBytes
   fftplans  :      13995. kBytes
   grid      :     120016. kBytes
   one-center:       2519. kBytes
   wavefun   :     114257. kBytes
 
  
  
 General timing and accounting informations for this job:
 ========================================================
  
                  Total CPU time used (sec):     5887.955
                            User time (sec):     5836.973
                          System time (sec):       50.982
                         Elapsed time (sec):     5907.211
  
                   Maximum memory used (kb):     1067824.
                   Average memory used (kb):           0.
  
                          Minor page faults:      2091020
                          Major page faults:            0
                 Voluntary context switches:         6022
