 vasp.5.4.4.18Apr17-6-g9f103f2a35 (build Nov 30 2020 22:55:02) complex          
  
 executed on             LinuxIFC date 2023.06.01  19:11:43
 running on   40 total cores
 distrk:  each k-point on   40 cores,    1 groups
 distr:  one band on NCORES_PER_BAND=   4 cores,   10 groups


--------------------------------------------------------------------------------------------------------


 INCAR:
 POTCAR:    PAW_PBE H 15Jun2001                   
 POTCAR:    PAW_PBE H 15Jun2001                   
   VRHFIN =H: ultrasoft test                                                    
   LEXCH  = PE                                                                  
   EATOM  =    12.4884 eV,    0.9179 Ry                                         
                                                                                
   TITEL  = PAW_PBE H 15Jun2001                                                 
   LULTRA =        F    use ultrasoft PP ?                                      
   IUNSCR =        0    unscreen: 0-lin 1-nonlin 2-no                           
   RPACOR =    0.000    partial core radius                                     
   POMASS =    1.000; ZVAL   =    1.000    mass and valenz                      
   RCORE  =    1.100    outmost cutoff radius                                   
   RWIGS  =    0.700; RWIGS  =    0.370    wigner-seitz radius (au A)           
   ENMAX  =  250.000; ENMIN  =  200.000 eV                                      
   RCLOC  =    0.701    cutoff for local pot                                    
   LCOR   =        T    correct aug charges                                     
   LPAW   =        T    paw PP                                                  
   EAUG   =  400.000                                                            
   RMAX   =    1.123    core radius for proj-oper                               
   RAUG   =    1.200    factor for augmentation sphere                          
   RDEP   =    1.112    radius for radial grids                                 
   RDEPT  =    0.926    core radius for aug-charge                              
                                                                                
   Atomic configuration                                                         
    2 entries                                                                   
     n  l   j            E        occ.                                          
     1  0  0.50        -6.4927   1.0000                                         
     2  1  0.50        -3.4015   0.0000                                         
   Description                                                                  
     l       E           TYP  RCUT    TYP  RCUT                                 
     0     -6.4927494     23  1.100                                             
     0      6.8029130     23  1.100                                             
     1     -4.0817478     23  1.100                                             
  local pseudopotential read in
  atomic valenz-charges read in
  non local Contribution for L=           0  read in
    real space projection operators read in
  non local Contribution for L=           0  read in
    real space projection operators read in
  non local Contribution for L=           1  read in
    real space projection operators read in
    PAW grid and wavefunctions read in
 
   number of l-projection  operators is LMAX  =           3
   number of lm-projection operators is LMMAX =           5
 

 ----------------------------------------------------------------------------- 
|                                                                             |
|  ADVICE TO THIS USER RUNNING 'VASP/VAMP'   (HEAR YOUR MASTER'S VOICE ...):  |
|                                                                             |
|      You have a (more or less) 'small supercell' and for smaller cells      |
|      it is recommended  to use the reciprocal-space projection scheme!      |
|      The real space optimization is not  efficient for small cells and it   |
|      is also less accurate ...                                              |
|      Therefore set LREAL=.FALSE. in the  INCAR file                         |
|                                                                             |
 ----------------------------------------------------------------------------- 

 Optimization of the real space projectors (new method)

 maximal supplied QI-value         = 34.20
 optimisation between [QCUT,QGAM] = [ 11.97, 23.94] = [ 40.13,160.53] Ry 
 Optimized for a Real-space Cutoff    1.18 Angstroem

   l    n(q)    QCUT    max X(q) W(low)/X(q) W(high)/X(q)  e(spline) 
   0      8    11.971    19.460    0.15E-03    0.31E-03    0.25E-06
   0      8    11.971    12.209    0.13E-03    0.29E-03    0.25E-06
   1      8    11.971     4.655    0.22E-03    0.24E-03    0.21E-06
  PAW_PBE H 15Jun2001                   :
 energy of atom  1       EATOM=  -12.4884
 kinetic energy error for atom=    0.0008 (will be added to EATOM!!)
 
 
 POSCAR: Pt111                                   
  positions in direct lattice
  velocities in cartesian coordinates
 exchange correlation table for  LEXCH =        8
   RHO(1)=    0.500       N(1)  =     2000
   RHO(2)=  100.500       N(2)  =     4000
 


--------------------------------------------------------------------------------------------------------


 ion  position               nearest neighbor table
   1  0.473  0.559  0.563-   2 0.75
   2  0.511  0.597  0.564-   1 0.75
 
  LATTYP: Found a hexagonal cell.
 ALAT       =    11.2227001190
 C/A-ratio  =     1.9603125600
  
  Lattice vectors:
  
 A1 = (   5.6113500595,  -9.7191434021,   0.0000000000)
 A2 = ( -11.2227001190,   0.0000000000,   0.0000000000)
 A3 = (   0.0000000000,   0.0000000000, -22.0000000000)


Analysis of symmetry for initial positions (statically):
=====================================================================
 Subroutine PRICEL returns:
 Original cell was already a primitive cell.
 

 Routine SETGRP: Setting up the symmetry group for a 
 hexagonal supercell.


 Subroutine GETGRP returns: Found  2 space group operations
 (whereof  1 operations were pure point group operations)
 out of a pool of 24 trial point group operations.


The static configuration has the point symmetry C_1 .
 The point group associated with its full space group is S_2 .


Analysis of symmetry for dynamics (positions and initial velocities):
=====================================================================
 Subroutine PRICEL returns:
 Original cell was already a primitive cell.
 

 Routine SETGRP: Setting up the symmetry group for a 
 hexagonal supercell.


 Subroutine GETGRP returns: Found  2 space group operations
 (whereof  1 operations were pure point group operations)
 out of a pool of 24 trial point group operations.


The dynamic configuration has the point symmetry C_1 .
 The point group associated with its full space group is S_2 .


 Subroutine INISYM returns: Found  2 space group operations
 (whereof  1 operations are pure point group operations),
 and found     1 'primitive' translations

 
 
 KPOINTS: mesh auto                               

Automatic generation of k-mesh.
Space group operators:
 irot       det(A)        alpha          n_x          n_y          n_z        tau_x        tau_y        tau_z
    1     1.000000     0.000000     1.000000     0.000000     0.000000     0.000000     0.000000     0.000000
    2    -1.000000     0.000000     1.000000     0.000000     0.000000    -0.015576    -0.844223    -0.873376
 
 Subroutine IBZKPT returns following result:
 ===========================================
 
 Found     10 irreducible k-points:
 
 Following reciprocal coordinates:
            Coordinates               Weight
  0.000000  0.000000  0.000000      1.000000
  0.250000  0.000000  0.000000      2.000000
  0.500000  0.000000  0.000000      1.000000
  0.000000  0.250000  0.000000      2.000000
  0.250000  0.250000  0.000000      2.000000
  0.500000  0.250000  0.000000      2.000000
 -0.250000  0.250000  0.000000      2.000000
  0.000000  0.500000  0.000000      1.000000
  0.250000  0.500000  0.000000      2.000000
  0.500000  0.500000  0.000000      1.000000
 
 Following cartesian coordinates:
            Coordinates               Weight
  0.000000  0.000000  0.000000      1.000000
  0.022276 -0.012861  0.000000      2.000000
  0.044553 -0.025722  0.000000      1.000000
  0.000000  0.025722  0.000000      2.000000
  0.022276  0.012861  0.000000      2.000000
  0.044553  0.000000  0.000000      2.000000
 -0.022276  0.038584  0.000000      2.000000
  0.000000  0.051445  0.000000      1.000000
  0.022276  0.038584  0.000000      2.000000
  0.044553  0.025722  0.000000      1.000000
 


--------------------------------------------------------------------------------------------------------




 Dimension of arrays:
   k-points           NKPTS =     10   k-points in BZ     NKDIM =     10   number of bands    NBANDS=     10
   number of dos      NEDOS =    301   number of ions     NIONS =      2
   non local maximal  LDIM  =      3   non local SUM 2l+1 LMDIM =      5
   total plane-waves  NPLWV = ******
   max r-space proj   IRMAX =   3926   max aug-charges    IRDMAX=   2955
   dimension x,y,z NGX =    90 NGY =   90 NGZ =  168
   dimension x,y,z NGXF=   180 NGYF=  180 NGZF=  336
   support grid    NGXF=   180 NGYF=  180 NGZF=  336
   ions per type =               2
   NGX,Y,Z   is equivalent  to a cutoff of  13.33, 13.33, 12.70 a.u.
   NGXF,Y,Z  is equivalent  to a cutoff of  26.66, 26.66, 25.39 a.u.

 SYSTEM =  Pt111                                   
 POSCAR =  Pt111                                   

 Startparameter for this run:
   NWRITE =      2    write-flag & timer
   PREC   = accura    normal or accurate (medium, high low for compatibility)
   ISTART =      0    job   : 0-new  1-cont  2-samecut
   ICHARG =      2    charge: 1-file 2-atom 10-const
   ISPIN  =      1    spin polarized calculation?
   LNONCOLLINEAR =      F non collinear calculations
   LSORBIT =      F    spin-orbit coupling
   INIWAV =      1    electr: 0-lowe 1-rand  2-diag
   LASPH  =      F    aspherical Exc in radial PAW
   METAGGA=      F    non-selfconsistent MetaGGA calc.

 Electronic Relaxation 1
   ENCUT  =  550.0 eV  40.42 Ry    6.36 a.u.  21.46 21.46 42.07*2*pi/ulx,y,z
   ENINI  =  550.0     initial cutoff
   ENAUG  =  400.0 eV  augmentation charge cutoff
   NELM   =    200;   NELMIN=  2; NELMDL= -5     # of ELM steps 
   EDIFF  = 0.1E-07   stopping-criterion for ELM
   LREAL  =      T    real-space projection
   NLSPLINE    = F    spline interpolate recip. space projectors
   LCOMPAT=      F    compatible to vasp.4.4
   GGA_COMPAT  = T    GGA compatible to vasp.4.4-vasp.4.6
   LMAXPAW     = -100 max onsite density
   LMAXMIX     =    2 max onsite mixed and CHGCAR
   VOSKOWN=      0    Vosko Wilk Nusair interpolation
   ROPT   =   -0.00025
 Ionic relaxation
   EDIFFG = -.1E-01   stopping-criterion for IOM
   NSW    =    300    number of steps for IOM
   NBLOCK =      1;   KBLOCK =    300    inner block; outer block 
   IBRION =      2    ionic relax: 0-MD 1-quasi-New 2-CG
   NFREE  =      1    steps in history (QN), initial steepest desc. (CG)
   ISIF   =      2    stress and relaxation
   IWAVPR =     11    prediction:  0-non 1-charg 2-wave 3-comb
   ISYM   =      2    0-nonsym 1-usesym 2-fastsym
   LCORR  =      T    Harris-Foulkes like correction to forces

   POTIM  = 0.5000    time-step for ionic-motion
   TEIN   =    0.0    initial temperature
   TEBEG  =    0.0;   TEEND  =   0.0 temperature during run
   SMASS  =  -3.00    Nose mass-parameter (am)
   estimated Nose-frequenzy (Omega)   =  0.10E-29 period in steps =****** mass=  -0.288E-26a.u.
   SCALEE = 1.0000    scale energy and forces
   NPACO  =    256;   APACO  = 16.0  distance and # of slots for P.C.
   PSTRESS=    0.0 pullay stress

  Mass of Ions in am
   POMASS =   1.00
  Ionic Valenz
   ZVAL   =   1.00
  Atomic Wigner-Seitz radii
   RWIGS  =  -1.00
  virtual crystal weights 
   VCA    =   1.00
   NELECT =       2.0000    total number of electrons
   NUPDOWN=      -1.0000    fix difference up-down

 DOS related values:
   EMIN   =  10.00;   EMAX   =-10.00  energy-range for DOS
   EFERMI =   0.00
   ISMEAR =     1;   SIGMA  =   0.10  broadening in eV -4-tet -1-fermi 0-gaus

 Electronic relaxation 2 (details)
   IALGO  =     68    algorithm
   LDIAG  =      T    sub-space diagonalisation (order eigenvalues)
   LSUBROT=      F    optimize rotation matrix (better conditioning)
   TURBO    =      0    0=normal 1=particle mesh
   IRESTART =      0    0=no restart 2=restart with 2 vectors
   NREBOOT  =      0    no. of reboots
   NMIN     =      0    reboot dimension
   EREF     =   0.00    reference energy to select bands
   IMIX   =      4    mixing-type and parameters
     AMIX     =   0.40;   BMIX     =  1.00
     AMIX_MAG =   1.60;   BMIX_MAG =  1.00
     AMIN     =   0.10
     WC   =   100.;   INIMIX=   1;  MIXPRE=   1;  MAXMIX= -45

 Intra band minimization:
   WEIMIN = 0.0010     energy-eigenvalue tresh-hold
   EBREAK =  0.25E-09  absolut break condition
   DEPER  =   0.30     relativ break condition  

   TIME   =   0.40     timestep for ELM

  volume/ion in A,a.u.               =    1199.83      8096.82
  Fermi-wavevector in a.u.,A,eV,Ry     =   0.154064  0.291139  0.322945  0.023736
  Thomas-Fermi vector in A             =   0.836961
 
 Write flags
   LWAVE        =      F    write WAVECAR
   LDOWNSAMPLE  =      F    k-point downsampling of WAVECAR
   LCHARG       =      F    write CHGCAR
   LVTOT        =      F    write LOCPOT, total local potential
   LVHAR        =      F    write LOCPOT, Hartree potential only
   LELF         =      F    write electronic localiz. function (ELF)
   LORBIT       =      0    0 simple, 1 ext, 2 COOP (PROOUT), +10 PAW based schemes


 Dipole corrections
   LMONO  =      F    monopole corrections only (constant potential shift)
   LDIPOL =      F    correct potential (dipole corrections)
   IDIPOL =      0    1-x, 2-y, 3-z, 4-all directions 
   EPSILON=  1.0000000 bulk dielectric constant

 Exchange correlation treatment:
   GGA     =    --    GGA type
   LEXCH   =     8    internal setting for exchange type
   VOSKOWN=      0    Vosko Wilk Nusair interpolation
   LHFCALC =     F    Hartree Fock is set to
   LHFONE  =     F    Hartree Fock one center treatment
   AEXX    =    0.0000 exact exchange contribution

 Linear response parameters
   LEPSILON=     F    determine dielectric tensor
   LRPA    =     F    only Hartree local field effects (RPA)
   LNABLA  =     F    use nabla operator in PAW spheres
   LVEL    =     F    velocity operator in full k-point grid
   LINTERFAST=   F  fast interpolation
   KINTER  =     0    interpolate to denser k-point grid
   CSHIFT  =0.1000    complex shift for real part using Kramers Kronig
   OMEGAMAX=  -1.0    maximum frequency
   DEG_THRESHOLD= 0.2000000E-02 threshold for treating states as degnerate
   RTIME   =   -0.100 relaxation time in fs
  (WPLASMAI=    0.000 imaginary part of plasma frequency in eV, 0.658/RTIME)
   DFIELD  = 0.0000000 0.0000000 0.0000000 field for delta impulse in time
 
 Orbital magnetization related:
   ORBITALMAG=     F  switch on orbital magnetization
   LCHIMAG   =     F  perturbation theory with respect to B field
   DQ        =  0.001000  dq finite difference perturbation B field
   LLRAUG    =     F  two centre corrections for induced B field



--------------------------------------------------------------------------------------------------------


 conjugate gradient relaxation of ions
 charge density and potential will be updated during run
 non-spin polarized calculation
 RMM-DIIS sequential band-by-band and
  variant of blocked Davidson during initial phase
 perform sub-space diagonalisation
    before iterative eigenvector-optimisation
 modified Broyden-mixing scheme, WC =      100.0
 initial mixing is a Kerker type mixing with AMIX =  0.4000 and BMIX =      1.0000
 Hartree-type preconditioning will be used
 using additional bands            9
 real space projection scheme for non local part
 calculate Harris-corrections to forces 
   (improved forces if not selfconsistent)
 use gradient corrections 
 use of overlap-Matrix (Vanderbilt PP)
 Methfessel and Paxton  Order N= 1 SIGMA  =   0.10


--------------------------------------------------------------------------------------------------------


  energy-cutoff  :      550.00
  volume of cell :     2399.65
      direct lattice vectors                 reciprocal lattice vectors
    11.222700119  0.000000000  0.000000000     0.089105116 -0.051444863  0.000000000
     5.611350060  9.719143402  0.000000000     0.000000000  0.102889726  0.000000000
     0.000000000  0.000000000 22.000000000     0.000000000  0.000000000  0.045454545

  length of vectors
    11.222700119 11.222700119 22.000000000     0.102889726  0.102889726  0.045454545


 
 k-points in units of 2pi/SCALE and weight: mesh auto                               
   0.00000000  0.00000000  0.00000000       0.062
   0.02227628 -0.01286122  0.00000000       0.125
   0.04455256 -0.02572243  0.00000000       0.062
   0.00000000  0.02572243  0.00000000       0.125
   0.02227628  0.01286122  0.00000000       0.125
   0.04455256  0.00000000  0.00000000       0.125
  -0.02227628  0.03858365  0.00000000       0.125
   0.00000000  0.05144486  0.00000000       0.062
   0.02227628  0.03858365  0.00000000       0.125
   0.04455256  0.02572243  0.00000000       0.062
 
 k-points in reciprocal lattice and weights: mesh auto                               
   0.00000000  0.00000000  0.00000000       0.062
   0.25000000  0.00000000  0.00000000       0.125
   0.50000000  0.00000000  0.00000000       0.062
   0.00000000  0.25000000  0.00000000       0.125
   0.25000000  0.25000000  0.00000000       0.125
   0.50000000  0.25000000  0.00000000       0.125
  -0.25000000  0.25000000  0.00000000       0.125
   0.00000000  0.50000000  0.00000000       0.062
   0.25000000  0.50000000  0.00000000       0.125
   0.50000000  0.50000000  0.00000000       0.062
 
 position of ions in fractional coordinates (direct lattice) 
   0.47294481  0.55853166  0.56270721
   0.51147878  0.59724503  0.56391631
 
 position of ions in cartesian coordinates  (Angst):
   8.44183439  5.42844930 12.37955870
   9.09152392  5.80471009 12.40615890
 


--------------------------------------------------------------------------------------------------------


 k-point  1 :   0.0000 0.0000 0.0000  plane waves:   70321
 k-point  2 :   0.2500 0.0000 0.0000  plane waves:   70283
 k-point  3 :   0.5000 0.0000 0.0000  plane waves:   70264
 k-point  4 :   0.0000 0.2500 0.0000  plane waves:   70283
 k-point  5 :   0.2500 0.2500 0.0000  plane waves:   70283
 k-point  6 :   0.5000 0.2500 0.0000  plane waves:   70273
 k-point  7 :  -0.2500 0.2500 0.0000  plane waves:   70273
 k-point  8 :   0.0000 0.5000 0.0000  plane waves:   70264
 k-point  9 :   0.2500 0.5000 0.0000  plane waves:   70273
 k-point 10 :   0.5000 0.5000 0.0000  plane waves:   70264

 maximum and minimum number of plane-waves per node :     17611    17530

 maximum number of plane-waves:     70321
 maximum index in each direction: 
   IXMAX=   21   IYMAX=   21   IZMAX=   42
   IXMIN=  -21   IYMIN=  -21   IZMIN=  -42


 real space projection operators:
  total allocation   :        294.69 KBytes
  max/ min on nodes  :         73.79         73.52


 parallel 3D FFT for wavefunctions:
    minimum data exchange during FFTs selected (reduces bandwidth)
 parallel 3D FFT for charge:
    minimum data exchange during FFTs selected (reduces bandwidth)


 total amount of memory used by VASP MPI-rank0    81843. kBytes
=======================================================================

   base      :      30000. kBytes
   nonlr-proj:        223. kBytes
   fftplans  :      20287. kBytes
   grid      :      28516. kBytes
   one-center:          1. kBytes
   wavefun   :       2816. kBytes
 
     INWAV:  cpu time    0.0000: real time    0.0000
 Broyden mixing: mesh for mixing (old mesh)
   NGX = 43   NGY = 43   NGZ = 85
  (NGX  =180   NGY  =180   NGZ  =336)
  gives a total of 157165 points

 initial charge density was supplied:
 charge density of overlapping atoms calculated
 number of electron       2.0000000 magnetization 
 keeping initial charge density in first step


--------------------------------------------------------------------------------------------------------


 Maximum index for non-local projection operator          943
 Maximum index for augmentation-charges          147 (set IRDMAX)


--------------------------------------------------------------------------------------------------------


 First call to EWALD:  gamma=   0.132
 Maximum number of real-space cells 4x 4x 2
 Maximum number of reciprocal cells 2x 2x 4

    FEWALD:  cpu time    0.0019: real time    0.0019


--------------------------------------- Iteration      1(   1)  ---------------------------------------


    POTLOK:  cpu time    0.2063: real time    0.2218
    SETDIJ:  cpu time    0.0021: real time    0.0025
     EDDAV:  cpu time    1.0832: real time    1.1510
       DOS:  cpu time    0.0006: real time    0.0028
    --------------------------------------------
      LOOP:  cpu time    1.2921: real time    1.3781

 eigenvalue-minimisations  :   210
 total energy-change (2. order) : 0.2698147E+01  (-0.3146969E+02)
 number of electron       2.0000000 magnetization 
 augmentation part        2.0000000 magnetization 

 Free energy of the ion-electron system (eV)
  ---------------------------------------------------
  alpha Z        PSCENC =         0.00406087
  Ewald energy   TEWEN  =        14.45412451
  -Hartree energ DENC   =       -23.98598075
  -exchange      EXHF   =         0.00000000
  -V(xc)+E(xc)   XCENC  =         4.34896128
  PAW double counting   =         4.26805487       -4.28581044
  entropy T*S    EENTRO =         0.00072549
  eigenvalues    EBANDS =       -17.08111608
  atomic energy  EATOM  =        24.97512774
  Solvation  Ediel_sol  =         0.00000000
  ---------------------------------------------------
  free energy    TOTEN  =         2.69814748 eV

  energy without entropy =        2.69742200  energy(sigma->0) =        2.69790566


--------------------------------------------------------------------------------------------------------




--------------------------------------- Iteration      1(   2)  ---------------------------------------


     EDDAV:  cpu time    1.1609: real time    1.1645
       DOS:  cpu time    0.0003: real time    0.0003
    --------------------------------------------
      LOOP:  cpu time    1.1612: real time    1.1647

 eigenvalue-minimisations  :   230
 total energy-change (2. order) :-0.9565794E+01  (-0.9566538E+01)
 number of electron       2.0000000 magnetization 
 augmentation part        2.0000000 magnetization 

 Free energy of the ion-electron system (eV)
  ---------------------------------------------------
  alpha Z        PSCENC =         0.00406087
  Ewald energy   TEWEN  =        14.45412451
  -Hartree energ DENC   =       -23.98598075
  -exchange      EXHF   =         0.00000000
  -V(xc)+E(xc)   XCENC  =         4.34896128
  PAW double counting   =         4.26805487       -4.28581044
  entropy T*S    EENTRO =         0.00207921
  eigenvalues    EBANDS =       -26.64826382
  atomic energy  EATOM  =        24.97512774
  Solvation  Ediel_sol  =         0.00000000
  ---------------------------------------------------
  free energy    TOTEN  =        -6.86764654 eV

  energy without entropy =       -6.86972575  energy(sigma->0) =       -6.86833961


--------------------------------------------------------------------------------------------------------




--------------------------------------- Iteration      1(   3)  ---------------------------------------


     EDDAV:  cpu time    1.4140: real time    1.4181
       DOS:  cpu time    0.0002: real time    0.0002
    --------------------------------------------
      LOOP:  cpu time    1.4142: real time    1.4184

 eigenvalue-minimisations  :   300
 total energy-change (2. order) :-0.5802948E+00  (-0.5840127E+00)
 number of electron       2.0000000 magnetization 
 augmentation part        2.0000000 magnetization 

 Free energy of the ion-electron system (eV)
  ---------------------------------------------------
  alpha Z        PSCENC =         0.00406087
  Ewald energy   TEWEN  =        14.45412451
  -Hartree energ DENC   =       -23.98598075
  -exchange      EXHF   =         0.00000000
  -V(xc)+E(xc)   XCENC  =         4.34896128
  PAW double counting   =         4.26805487       -4.28581044
  entropy T*S    EENTRO =         0.00579795
  eigenvalues    EBANDS =       -27.23227741
  atomic energy  EATOM  =        24.97512774
  Solvation  Ediel_sol  =         0.00000000
  ---------------------------------------------------
  free energy    TOTEN  =        -7.44794138 eV

  energy without entropy =       -7.45373933  energy(sigma->0) =       -7.44987403


--------------------------------------------------------------------------------------------------------




--------------------------------------- Iteration      1(   4)  ---------------------------------------


     EDDAV:  cpu time    1.1484: real time    1.1515
       DOS:  cpu time    0.0003: real time    0.0002
    --------------------------------------------
      LOOP:  cpu time    1.1487: real time    1.1518

 eigenvalue-minimisations  :   230
 total energy-change (2. order) :-0.5379075E-03  (-0.5378608E-03)
 number of electron       2.0000000 magnetization 
 augmentation part        2.0000000 magnetization 

 Free energy of the ion-electron system (eV)
  ---------------------------------------------------
  alpha Z        PSCENC =         0.00406087
  Ewald energy   TEWEN  =        14.45412451
  -Hartree energ DENC   =       -23.98598075
  -exchange      EXHF   =         0.00000000
  -V(xc)+E(xc)   XCENC  =         4.34896128
  PAW double counting   =         4.26805487       -4.28581044
  entropy T*S    EENTRO =         0.00579791
  eigenvalues    EBANDS =       -27.23281527
  atomic energy  EATOM  =        24.97512774
  Solvation  Ediel_sol  =         0.00000000
  ---------------------------------------------------
  free energy    TOTEN  =        -7.44847929 eV

  energy without entropy =       -7.45427719  energy(sigma->0) =       -7.45041192


--------------------------------------------------------------------------------------------------------




--------------------------------------- Iteration      1(   5)  ---------------------------------------


     EDDAV:  cpu time    1.6953: real time    1.7001
       DOS:  cpu time    0.0002: real time    0.0002
    CHARGE:  cpu time    0.1896: real time    0.1901
    MIXING:  cpu time    0.0092: real time    0.0098
    --------------------------------------------
      LOOP:  cpu time    1.8944: real time    1.9003

 eigenvalue-minimisations  :   370
 total energy-change (2. order) :-0.1809674E-05  (-0.1810120E-05)
 number of electron       2.0000000 magnetization 
 augmentation part        0.0468350 magnetization 

 Broyden mixing:
  rms(total) = 0.44557E+00    rms(broyden)= 0.44553E+00
  rms(prec ) = 0.47455E+00
  weight for this iteration     100.00

 Free energy of the ion-electron system (eV)
  ---------------------------------------------------
  alpha Z        PSCENC =         0.00406087
  Ewald energy   TEWEN  =        14.45412451
  -Hartree energ DENC   =       -23.98598075
  -exchange      EXHF   =         0.00000000
  -V(xc)+E(xc)   XCENC  =         4.34896128
  PAW double counting   =         4.26805487       -4.28581044
  entropy T*S    EENTRO =         0.00579791
  eigenvalues    EBANDS =       -27.23281708
  atomic energy  EATOM  =        24.97512774
  Solvation  Ediel_sol  =         0.00000000
  ---------------------------------------------------
  free energy    TOTEN  =        -7.44848110 eV

  energy without entropy =       -7.45427900  energy(sigma->0) =       -7.45041373


--------------------------------------------------------------------------------------------------------




--------------------------------------- Iteration      1(   6)  ---------------------------------------


    POTLOK:  cpu time    0.1963: real time    0.1968
    SETDIJ:  cpu time    0.0013: real time    0.0013
    EDDIAG:  cpu time    0.3257: real time    0.3348
  RMM-DIIS:  cpu time    0.8677: real time    0.8917
    ORTHCH:  cpu time    0.0060: real time    0.0060
       DOS:  cpu time    0.0003: real time    0.0003
    CHARGE:  cpu time    0.1791: real time    0.1795
    MIXING:  cpu time    0.0086: real time    0.0090
    --------------------------------------------
      LOOP:  cpu time    1.5849: real time    1.6194

 eigenvalue-minimisations  :   200
 total energy-change (2. order) : 0.4418399E+00  (-0.1617419E-01)
 number of electron       2.0000000 magnetization 
 augmentation part        0.0450361 magnetization 

 Broyden mixing:
  rms(total) = 0.24473E+00    rms(broyden)= 0.24473E+00
  rms(prec ) = 0.26215E+00
  weight for this iteration     100.00

 eigenvalues of (default mixing * dielectric matrix)
  average eigenvalue GAMMA=   2.1939
  2.1939

 Free energy of the ion-electron system (eV)
  ---------------------------------------------------
  alpha Z        PSCENC =         0.00406087
  Ewald energy   TEWEN  =        14.45412451
  -Hartree energ DENC   =       -26.47130804
  -exchange      EXHF   =         0.00000000
  -V(xc)+E(xc)   XCENC  =         4.70366368
  PAW double counting   =        10.67648136      -10.70787733
  entropy T*S    EENTRO =         0.00579791
  eigenvalues    EBANDS =       -24.64671192
  atomic energy  EATOM  =        24.97512774
  Solvation  Ediel_sol  =         0.00000000
  ---------------------------------------------------
  free energy    TOTEN  =        -7.00664124 eV

  energy without entropy =       -7.01243914  energy(sigma->0) =       -7.00857387


--------------------------------------------------------------------------------------------------------




--------------------------------------- Iteration      1(   7)  ---------------------------------------


    POTLOK:  cpu time    0.1893: real time    0.1900
    SETDIJ:  cpu time    0.0013: real time    0.0013
    EDDIAG:  cpu time    0.2745: real time    0.2751
  RMM-DIIS:  cpu time    0.8645: real time    0.8669
    ORTHCH:  cpu time    0.0065: real time    0.0065
       DOS:  cpu time    0.0003: real time    0.0003
    CHARGE:  cpu time    0.1782: real time    0.1786
    MIXING:  cpu time    0.0084: real time    0.0084
    --------------------------------------------
      LOOP:  cpu time    1.5230: real time    1.5271

 eigenvalue-minimisations  :   200
 total energy-change (2. order) : 0.2450689E+00  (-0.4459679E-01)
 number of electron       2.0000000 magnetization 
 augmentation part        0.0421240 magnetization 

 Broyden mixing:
  rms(total) = 0.29049E-01    rms(broyden)= 0.29035E-01
  rms(prec ) = 0.31822E-01
  weight for this iteration     100.00

 eigenvalues of (default mixing * dielectric matrix)
  average eigenvalue GAMMA=   2.5812
  2.5812  2.5812

 Free energy of the ion-electron system (eV)
  ---------------------------------------------------
  alpha Z        PSCENC =         0.00406087
  Ewald energy   TEWEN  =        14.45412451
  -Hartree energ DENC   =       -30.29411781
  -exchange      EXHF   =         0.00000000
  -V(xc)+E(xc)   XCENC  =         5.25893068
  PAW double counting   =        23.25267103      -23.30592259
  entropy T*S    EENTRO =         0.00579791
  eigenvalues    EBANDS =       -21.11224466
  atomic energy  EATOM  =        24.97512774
  Solvation  Ediel_sol  =         0.00000000
  ---------------------------------------------------
  free energy    TOTEN  =        -6.76157233 eV

  energy without entropy =       -6.76737023  energy(sigma->0) =       -6.76350496


--------------------------------------------------------------------------------------------------------




--------------------------------------- Iteration      1(   8)  ---------------------------------------


    POTLOK:  cpu time    0.1902: real time    0.1907
    SETDIJ:  cpu time    0.0011: real time    0.0011
    EDDIAG:  cpu time    0.2752: real time    0.2767
  RMM-DIIS:  cpu time    0.8830: real time    0.8856
    ORTHCH:  cpu time    0.0064: real time    0.0064
       DOS:  cpu time    0.0002: real time    0.0002
    CHARGE:  cpu time    0.1774: real time    0.1778
    MIXING:  cpu time    0.0086: real time    0.0086
    --------------------------------------------
      LOOP:  cpu time    1.5423: real time    1.5473

 eigenvalue-minimisations  :   200
 total energy-change (2. order) :-0.3637313E-02  (-0.4175236E-03)
 number of electron       2.0000000 magnetization 
 augmentation part        0.0422014 magnetization 

 Broyden mixing:
  rms(total) = 0.23510E-01    rms(broyden)= 0.23510E-01
  rms(prec ) = 0.25663E-01
  weight for this iteration     100.00

 eigenvalues of (default mixing * dielectric matrix)
  average eigenvalue GAMMA=   1.9887
  0.9277  2.5192  2.5192

 Free energy of the ion-electron system (eV)
  ---------------------------------------------------
  alpha Z        PSCENC =         0.00406087
  Ewald energy   TEWEN  =        14.45412451
  -Hartree energ DENC   =       -30.20686019
  -exchange      EXHF   =         0.00000000
  -V(xc)+E(xc)   XCENC  =         5.23218847
  PAW double counting   =        22.01781708      -22.06501142
  entropy T*S    EENTRO =         0.00579791
  eigenvalues    EBANDS =       -21.18245460
  atomic energy  EATOM  =        24.97512774
  Solvation  Ediel_sol  =         0.00000000
  ---------------------------------------------------
  free energy    TOTEN  =        -6.76520964 eV

  energy without entropy =       -6.77100755  energy(sigma->0) =       -6.76714228


--------------------------------------------------------------------------------------------------------




--------------------------------------- Iteration      1(   9)  ---------------------------------------


    POTLOK:  cpu time    0.1894: real time    0.1903
    SETDIJ:  cpu time    0.0012: real time    0.0012
    EDDIAG:  cpu time    0.2737: real time    0.2743
  RMM-DIIS:  cpu time    0.8729: real time    0.8754
    ORTHCH:  cpu time    0.0061: real time    0.0062
       DOS:  cpu time    0.0003: real time    0.0003
    CHARGE:  cpu time    0.1785: real time    0.1789
    MIXING:  cpu time    0.0087: real time    0.0087
    --------------------------------------------
      LOOP:  cpu time    1.5308: real time    1.5352

 eigenvalue-minimisations  :   200
 total energy-change (2. order) : 0.3568209E-02  (-0.3684605E-03)
 number of electron       2.0000000 magnetization 
 augmentation part        0.0419628 magnetization 

 Broyden mixing:
  rms(total) = 0.37324E-02    rms(broyden)= 0.37307E-02
  rms(prec ) = 0.55408E-02
  weight for this iteration     100.00

 eigenvalues of (default mixing * dielectric matrix)
  average eigenvalue GAMMA=   2.5863
  4.2883  0.9968  2.6945  2.3655

 Free energy of the ion-electron system (eV)
  ---------------------------------------------------
  alpha Z        PSCENC =         0.00406087
  Ewald energy   TEWEN  =        14.45412451
  -Hartree energ DENC   =       -30.61394223
  -exchange      EXHF   =         0.00000000
  -V(xc)+E(xc)   XCENC  =         5.28753790
  PAW double counting   =        23.30330753      -23.35248159
  entropy T*S    EENTRO =         0.00579791
  eigenvalues    EBANDS =       -20.82517406
  atomic energy  EATOM  =        24.97512774
  Solvation  Ediel_sol  =         0.00000000
  ---------------------------------------------------
  free energy    TOTEN  =        -6.76164143 eV

  energy without entropy =       -6.76743934  energy(sigma->0) =       -6.76357407


--------------------------------------------------------------------------------------------------------




--------------------------------------- Iteration      1(  10)  ---------------------------------------


    POTLOK:  cpu time    0.1884: real time    0.1889
    SETDIJ:  cpu time    0.0012: real time    0.0012
    EDDIAG:  cpu time    0.2731: real time    0.2738
  RMM-DIIS:  cpu time    0.8965: real time    0.8990
    ORTHCH:  cpu time    0.0063: real time    0.0064
       DOS:  cpu time    0.0002: real time    0.0002
    CHARGE:  cpu time    0.1794: real time    0.1800
    MIXING:  cpu time    0.0114: real time    0.0115
    --------------------------------------------
      LOOP:  cpu time    1.5567: real time    1.5610

 eigenvalue-minimisations  :   200
 total energy-change (2. order) :-0.1344621E-02  (-0.1262502E-03)
 number of electron       2.0000000 magnetization 
 augmentation part        0.0418699 magnetization 

 Broyden mixing:
  rms(total) = 0.25708E-02    rms(broyden)= 0.25703E-02
  rms(prec ) = 0.30351E-02
  weight for this iteration     100.00

 eigenvalues of (default mixing * dielectric matrix)
  average eigenvalue GAMMA=   2.2335
  4.2056  2.4525  2.4525  1.0284  1.0284

 Free energy of the ion-electron system (eV)
  ---------------------------------------------------
  alpha Z        PSCENC =         0.00406087
  Ewald energy   TEWEN  =        14.45412451
  -Hartree energ DENC   =       -30.82026400
  -exchange      EXHF   =         0.00000000
  -V(xc)+E(xc)   XCENC  =         5.30636817
  PAW double counting   =        23.35753706      -23.40734769
  entropy T*S    EENTRO =         0.00579791
  eigenvalues    EBANDS =       -20.63839061
  atomic energy  EATOM  =        24.97512774
  Solvation  Ediel_sol  =         0.00000000
  ---------------------------------------------------
  free energy    TOTEN  =        -6.76298605 eV

  energy without entropy =       -6.76878396  energy(sigma->0) =       -6.76491869


--------------------------------------------------------------------------------------------------------




--------------------------------------- Iteration      1(  11)  ---------------------------------------


    POTLOK:  cpu time    0.1914: real time    0.1919
    SETDIJ:  cpu time    0.0018: real time    0.0018
    EDDIAG:  cpu time    0.2769: real time    0.2775
  RMM-DIIS:  cpu time    0.8695: real time    0.8720
    ORTHCH:  cpu time    0.0063: real time    0.0063
       DOS:  cpu time    0.0003: real time    0.0003
    CHARGE:  cpu time    0.1802: real time    0.1806
    MIXING:  cpu time    0.0076: real time    0.0076
    --------------------------------------------
      LOOP:  cpu time    1.5339: real time    1.5380

 eigenvalue-minimisations  :   200
 total energy-change (2. order) :-0.6382418E-03  (-0.2106835E-05)
 number of electron       2.0000000 magnetization 
 augmentation part        0.0418645 magnetization 

 Broyden mixing:
  rms(total) = 0.12635E-02    rms(broyden)= 0.12634E-02
  rms(prec ) = 0.17528E-02
  weight for this iteration     100.00

 eigenvalues of (default mixing * dielectric matrix)
  average eigenvalue GAMMA=   2.7411
  5.6489  3.9325  2.5960  2.2730  1.0036  0.9927

 Free energy of the ion-electron system (eV)
  ---------------------------------------------------
  alpha Z        PSCENC =         0.00406087
  Ewald energy   TEWEN  =        14.45412451
  -Hartree energ DENC   =       -30.81646498
  -exchange      EXHF   =         0.00000000
  -V(xc)+E(xc)   XCENC  =         5.30443487
  PAW double counting   =        23.31607127      -23.36563685
  entropy T*S    EENTRO =         0.00579791
  eigenvalues    EBANDS =       -20.64113963
  atomic energy  EATOM  =        24.97512774
  Solvation  Ediel_sol  =         0.00000000
  ---------------------------------------------------
  free energy    TOTEN  =        -6.76362430 eV

  energy without entropy =       -6.76942220  energy(sigma->0) =       -6.76555693


--------------------------------------------------------------------------------------------------------




--------------------------------------- Iteration      1(  12)  ---------------------------------------


    POTLOK:  cpu time    0.1866: real time    0.1870
    SETDIJ:  cpu time    0.0011: real time    0.0011
    EDDIAG:  cpu time    0.2815: real time    0.2825
  RMM-DIIS:  cpu time    0.8843: real time    0.8865
    ORTHCH:  cpu time    0.0064: real time    0.0064
       DOS:  cpu time    0.0003: real time    0.0003
    CHARGE:  cpu time    0.1772: real time    0.1779
    MIXING:  cpu time    0.0077: real time    0.0077
    --------------------------------------------
      LOOP:  cpu time    1.5451: real time    1.5494

 eigenvalue-minimisations  :   200
 total energy-change (2. order) :-0.2013370E-02  (-0.3658036E-04)
 number of electron       2.0000000 magnetization 
 augmentation part        0.0418734 magnetization 

 Broyden mixing:
  rms(total) = 0.77227E-03    rms(broyden)= 0.77227E-03
  rms(prec ) = 0.86844E-03
  weight for this iteration     100.00

 eigenvalues of (default mixing * dielectric matrix)
  average eigenvalue GAMMA=   2.9221
  6.1926  0.9884  1.0518  3.7699  2.2338  3.1093  3.1093

 Free energy of the ion-electron system (eV)
  ---------------------------------------------------
  alpha Z        PSCENC =         0.00406087
  Ewald energy   TEWEN  =        14.45412451
  -Hartree energ DENC   =       -30.79676216
  -exchange      EXHF   =         0.00000000
  -V(xc)+E(xc)   XCENC  =         5.29834181
  PAW double counting   =        23.24980151      -23.29909727
  entropy T*S    EENTRO =         0.00579791
  eigenvalues    EBANDS =       -20.65703258
  atomic energy  EATOM  =        24.97512774
  Solvation  Ediel_sol  =         0.00000000
  ---------------------------------------------------
  free energy    TOTEN  =        -6.76563767 eV

  energy without entropy =       -6.77143557  energy(sigma->0) =       -6.76757030


--------------------------------------------------------------------------------------------------------




--------------------------------------- Iteration      1(  13)  ---------------------------------------


    POTLOK:  cpu time    0.1857: real time    0.1862
    SETDIJ:  cpu time    0.0012: real time    0.0012
    EDDIAG:  cpu time    0.2753: real time    0.2760
  RMM-DIIS:  cpu time    0.8710: real time    0.8734
    ORTHCH:  cpu time    0.0063: real time    0.0063
       DOS:  cpu time    0.0003: real time    0.0003
    CHARGE:  cpu time    0.1767: real time    0.1771
    MIXING:  cpu time    0.0078: real time    0.0078
    --------------------------------------------
      LOOP:  cpu time    1.5243: real time    1.5283

 eigenvalue-minimisations  :   200
 total energy-change (2. order) :-0.2311485E-03  (-0.1579854E-05)
 number of electron       2.0000000 magnetization 
 augmentation part        0.0418610 magnetization 

 Broyden mixing:
  rms(total) = 0.80730E-03    rms(broyden)= 0.80729E-03
  rms(prec ) = 0.85669E-03
  weight for this iteration     100.00

 eigenvalues of (default mixing * dielectric matrix)
  average eigenvalue GAMMA=   2.7846
  7.1046  4.1707  3.2587  2.5909  2.2359  1.0236  1.0236  0.8686

 Free energy of the ion-electron system (eV)
  ---------------------------------------------------
  alpha Z        PSCENC =         0.00406087
  Ewald energy   TEWEN  =        14.45412451
  -Hartree energ DENC   =       -30.81824130
  -exchange      EXHF   =         0.00000000
  -V(xc)+E(xc)   XCENC  =         5.30082969
  PAW double counting   =        23.28772429      -23.33724400
  entropy T*S    EENTRO =         0.00579791
  eigenvalues    EBANDS =       -20.63804853
  atomic energy  EATOM  =        24.97512774
  Solvation  Ediel_sol  =         0.00000000
  ---------------------------------------------------
  free energy    TOTEN  =        -6.76586881 eV

  energy without entropy =       -6.77166672  energy(sigma->0) =       -6.76780145


--------------------------------------------------------------------------------------------------------




--------------------------------------- Iteration      1(  14)  ---------------------------------------


    POTLOK:  cpu time    0.1841: real time    0.1845
    SETDIJ:  cpu time    0.0011: real time    0.0011
    EDDIAG:  cpu time    0.2737: real time    0.2747
  RMM-DIIS:  cpu time    0.8745: real time    0.8766
    ORTHCH:  cpu time    0.0064: real time    0.0067
       DOS:  cpu time    0.0003: real time    0.0003
    CHARGE:  cpu time    0.1769: real time    0.1773
    MIXING:  cpu time    0.0082: real time    0.0082
    --------------------------------------------
      LOOP:  cpu time    1.5251: real time    1.5294

 eigenvalue-minimisations  :   200
 total energy-change (2. order) :-0.1103624E-03  (-0.9380042E-06)
 number of electron       2.0000000 magnetization 
 augmentation part        0.0418629 magnetization 

 Broyden mixing:
  rms(total) = 0.23068E-03    rms(broyden)= 0.23068E-03
  rms(prec ) = 0.25922E-03
  weight for this iteration     100.00

 eigenvalues of (default mixing * dielectric matrix)
  average eigenvalue GAMMA=   2.9383
  7.5581  4.7397  3.7119  2.5968  2.5968  2.2058  1.0600  1.0147  0.9610

 Free energy of the ion-electron system (eV)
  ---------------------------------------------------
  alpha Z        PSCENC =         0.00406087
  Ewald energy   TEWEN  =        14.45412451
  -Hartree energ DENC   =       -30.81266297
  -exchange      EXHF   =         0.00000000
  -V(xc)+E(xc)   XCENC  =         5.29983036
  PAW double counting   =        23.27339010      -23.32282883
  entropy T*S    EENTRO =         0.00579791
  eigenvalues    EBANDS =       -20.64281886
  atomic energy  EATOM  =        24.97512774
  Solvation  Ediel_sol  =         0.00000000
  ---------------------------------------------------
  free energy    TOTEN  =        -6.76597918 eV

  energy without entropy =       -6.77177708  energy(sigma->0) =       -6.76791181


--------------------------------------------------------------------------------------------------------




--------------------------------------- Iteration      1(  15)  ---------------------------------------


    POTLOK:  cpu time    0.1860: real time    0.1865
    SETDIJ:  cpu time    0.0010: real time    0.0010
    EDDIAG:  cpu time    0.2750: real time    0.2757
  RMM-DIIS:  cpu time    0.8749: real time    0.8774
    ORTHCH:  cpu time    0.0063: real time    0.0063
       DOS:  cpu time    0.0002: real time    0.0002
    CHARGE:  cpu time    0.1771: real time    0.1776
    MIXING:  cpu time    0.0082: real time    0.0082
    --------------------------------------------
      LOOP:  cpu time    1.5289: real time    1.5330

 eigenvalue-minimisations  :   200
 total energy-change (2. order) :-0.4167675E-04  (-0.1267940E-06)
 number of electron       2.0000000 magnetization 
 augmentation part        0.0418657 magnetization 

 Broyden mixing:
  rms(total) = 0.66334E-04    rms(broyden)= 0.66327E-04
  rms(prec ) = 0.80830E-04
  weight for this iteration     100.00

 eigenvalues of (default mixing * dielectric matrix)
  average eigenvalue GAMMA=   2.8893
  7.7813  5.1538  3.6254  3.2604  2.4106  2.1859  0.9779  0.9911  1.0673  1.4391

 Free energy of the ion-electron system (eV)
  ---------------------------------------------------
  alpha Z        PSCENC =         0.00406087
  Ewald energy   TEWEN  =        14.45412451
  -Hartree energ DENC   =       -30.81042280
  -exchange      EXHF   =         0.00000000
  -V(xc)+E(xc)   XCENC  =         5.29937272
  PAW double counting   =        23.26906349      -23.31846265
  entropy T*S    EENTRO =         0.00579791
  eigenvalues    EBANDS =       -20.64468263
  atomic energy  EATOM  =        24.97512774
  Solvation  Ediel_sol  =         0.00000000
  ---------------------------------------------------
  free energy    TOTEN  =        -6.76602085 eV

  energy without entropy =       -6.77181876  energy(sigma->0) =       -6.76795349


--------------------------------------------------------------------------------------------------------




--------------------------------------- Iteration      1(  16)  ---------------------------------------


    POTLOK:  cpu time    0.1871: real time    0.1875
    SETDIJ:  cpu time    0.0012: real time    0.0012
    EDDIAG:  cpu time    0.2726: real time    0.2736
  RMM-DIIS:  cpu time    0.8712: real time    0.8737
    ORTHCH:  cpu time    0.0064: real time    0.0064
       DOS:  cpu time    0.0003: real time    0.0003
    CHARGE:  cpu time    0.1777: real time    0.1781
    MIXING:  cpu time    0.0079: real time    0.0079
    --------------------------------------------
      LOOP:  cpu time    1.5244: real time    1.5287

 eigenvalue-minimisations  :   200
 total energy-change (2. order) :-0.9792085E-05  (-0.1071302E-07)
 number of electron       2.0000000 magnetization 
 augmentation part        0.0418665 magnetization 

 Broyden mixing:
  rms(total) = 0.44116E-04    rms(broyden)= 0.44114E-04
  rms(prec ) = 0.54109E-04
  weight for this iteration     100.00

 eigenvalues of (default mixing * dielectric matrix)
  average eigenvalue GAMMA=   3.0191
  8.2113  5.8746  4.3928  3.2345  2.7970  2.4527  2.1678  0.9765  0.9765  1.0632
  1.0632

 Free energy of the ion-electron system (eV)
  ---------------------------------------------------
  alpha Z        PSCENC =         0.00406087
  Ewald energy   TEWEN  =        14.45412451
  -Hartree energ DENC   =       -30.80993003
  -exchange      EXHF   =         0.00000000
  -V(xc)+E(xc)   XCENC  =         5.29925516
  PAW double counting   =        23.26694475      -23.31634629
  entropy T*S    EENTRO =         0.00579791
  eigenvalues    EBANDS =       -20.64506526
  atomic energy  EATOM  =        24.97512774
  Solvation  Ediel_sol  =         0.00000000
  ---------------------------------------------------
  free energy    TOTEN  =        -6.76603064 eV

  energy without entropy =       -6.77182855  energy(sigma->0) =       -6.76796328


--------------------------------------------------------------------------------------------------------




--------------------------------------- Iteration      1(  17)  ---------------------------------------


    POTLOK:  cpu time    0.1896: real time    0.1901
    SETDIJ:  cpu time    0.0011: real time    0.0011
    EDDIAG:  cpu time    0.2733: real time    0.2740
  RMM-DIIS:  cpu time    0.8814: real time    0.8838
    ORTHCH:  cpu time    0.0068: real time    0.0068
       DOS:  cpu time    0.0003: real time    0.0003
    CHARGE:  cpu time    0.1774: real time    0.1778
    MIXING:  cpu time    0.0087: real time    0.0087
    --------------------------------------------
      LOOP:  cpu time    1.5385: real time    1.5425

 eigenvalue-minimisations  :   200
 total energy-change (2. order) :-0.5320999E-05  (-0.9089731E-08)
 number of electron       2.0000000 magnetization 
 augmentation part        0.0418661 magnetization 

 Broyden mixing:
  rms(total) = 0.18110E-04    rms(broyden)= 0.18110E-04
  rms(prec ) = 0.21791E-04
  weight for this iteration     100.00

 eigenvalues of (default mixing * dielectric matrix)
  average eigenvalue GAMMA=   3.0148
  8.4488  6.2135  4.4466  3.5287  2.9760  2.4229  2.1990  1.8875  0.9684  1.0430
  1.0430  0.9998

 Free energy of the ion-electron system (eV)
  ---------------------------------------------------
  alpha Z        PSCENC =         0.00406087
  Ewald energy   TEWEN  =        14.45412451
  -Hartree energ DENC   =       -30.81097431
  -exchange      EXHF   =         0.00000000
  -V(xc)+E(xc)   XCENC  =         5.29937940
  PAW double counting   =        23.26771585      -23.31712005
  entropy T*S    EENTRO =         0.00579791
  eigenvalues    EBANDS =       -20.64414788
  atomic energy  EATOM  =        24.97512774
  Solvation  Ediel_sol  =         0.00000000
  ---------------------------------------------------
  free energy    TOTEN  =        -6.76603597 eV

  energy without entropy =       -6.77183387  energy(sigma->0) =       -6.76796860


--------------------------------------------------------------------------------------------------------




--------------------------------------- Iteration      1(  18)  ---------------------------------------


    POTLOK:  cpu time    0.1876: real time    0.1881
    SETDIJ:  cpu time    0.0015: real time    0.0015
    EDDIAG:  cpu time    0.2741: real time    0.2751
  RMM-DIIS:  cpu time    0.8735: real time    0.8760
    ORTHCH:  cpu time    0.0063: real time    0.0063
       DOS:  cpu time    0.0003: real time    0.0003
    CHARGE:  cpu time    0.1776: real time    0.1780
    MIXING:  cpu time    0.0083: real time    0.0083
    --------------------------------------------
      LOOP:  cpu time    1.5292: real time    1.5336

 eigenvalue-minimisations  :   200
 total energy-change (2. order) :-0.1635997E-05  (-0.3313702E-08)
 number of electron       2.0000000 magnetization 
 augmentation part        0.0418655 magnetization 

 Broyden mixing:
  rms(total) = 0.32364E-04    rms(broyden)= 0.32364E-04
  rms(prec ) = 0.35099E-04
  weight for this iteration     100.00

 eigenvalues of (default mixing * dielectric matrix)
  average eigenvalue GAMMA=   3.0910
  8.7361  6.8957  4.7387  4.1758  3.1257  2.7729  2.4616  2.1720  1.0968  0.9740
  1.0039  1.0039  1.0268

 Free energy of the ion-electron system (eV)
  ---------------------------------------------------
  alpha Z        PSCENC =         0.00406087
  Ewald energy   TEWEN  =        14.45412451
  -Hartree energ DENC   =       -30.81167300
  -exchange      EXHF   =         0.00000000
  -V(xc)+E(xc)   XCENC  =         5.29947087
  PAW double counting   =        23.26962076      -23.31903103
  entropy T*S    EENTRO =         0.00579791
  eigenvalues    EBANDS =       -20.64353622
  atomic energy  EATOM  =        24.97512774
  Solvation  Ediel_sol  =         0.00000000
  ---------------------------------------------------
  free energy    TOTEN  =        -6.76603760 eV

  energy without entropy =       -6.77183551  energy(sigma->0) =       -6.76797024


--------------------------------------------------------------------------------------------------------




--------------------------------------- Iteration      1(  19)  ---------------------------------------


    POTLOK:  cpu time    0.1875: real time    0.1879
    SETDIJ:  cpu time    0.0010: real time    0.0010
    EDDIAG:  cpu time    0.2730: real time    0.2737
  RMM-DIIS:  cpu time    0.8965: real time    0.8989
    ORTHCH:  cpu time    0.0070: real time    0.0070
       DOS:  cpu time    0.0003: real time    0.0003
    CHARGE:  cpu time    0.1805: real time    0.1810
    MIXING:  cpu time    0.0094: real time    0.0094
    --------------------------------------------
      LOOP:  cpu time    1.5552: real time    1.5592

 eigenvalue-minimisations  :   200
 total energy-change (2. order) :-0.1181919E-05  (-0.3504960E-08)
 number of electron       2.0000000 magnetization 
 augmentation part        0.0418659 magnetization 

 Broyden mixing:
  rms(total) = 0.42300E-05    rms(broyden)= 0.42294E-05
  rms(prec ) = 0.52064E-05
  weight for this iteration     100.00

 eigenvalues of (default mixing * dielectric matrix)
  average eigenvalue GAMMA=   3.2494
  9.2991  7.4064  5.5241  4.1937  3.7260  2.8194  2.8194  2.4678  2.1745  1.0703
  0.9778  0.9778  1.0179  1.0179

 Free energy of the ion-electron system (eV)
  ---------------------------------------------------
  alpha Z        PSCENC =         0.00406087
  Ewald energy   TEWEN  =        14.45412451
  -Hartree energ DENC   =       -30.81106268
  -exchange      EXHF   =         0.00000000
  -V(xc)+E(xc)   XCENC  =         5.29937828
  PAW double counting   =        23.26833905      -23.31774522
  entropy T*S    EENTRO =         0.00579791
  eigenvalues    EBANDS =       -20.64405923
  atomic energy  EATOM  =        24.97512774
  Solvation  Ediel_sol  =         0.00000000
  ---------------------------------------------------
  free energy    TOTEN  =        -6.76603878 eV

  energy without entropy =       -6.77183669  energy(sigma->0) =       -6.76797142


--------------------------------------------------------------------------------------------------------




--------------------------------------- Iteration      1(  20)  ---------------------------------------


    POTLOK:  cpu time    0.1882: real time    0.1890
    SETDIJ:  cpu time    0.0011: real time    0.0011
    EDDIAG:  cpu time    0.2747: real time    0.2753
  RMM-DIIS:  cpu time    0.8579: real time    0.8603
    ORTHCH:  cpu time    0.0063: real time    0.0063
       DOS:  cpu time    0.0003: real time    0.0003
    CHARGE:  cpu time    0.1763: real time    0.1767
    MIXING:  cpu time    0.0093: real time    0.0093
    --------------------------------------------
      LOOP:  cpu time    1.5140: real time    1.5182

 eigenvalue-minimisations  :   190
 total energy-change (2. order) :-0.4356694E-06  (-0.3435295E-09)
 number of electron       2.0000000 magnetization 
 augmentation part        0.0418658 magnetization 

 Broyden mixing:
  rms(total) = 0.12231E-05    rms(broyden)= 0.12231E-05
  rms(prec ) = 0.18818E-05
  weight for this iteration     100.00

 eigenvalues of (default mixing * dielectric matrix)
  average eigenvalue GAMMA=   3.1505
  9.3861  7.5710  5.4882  4.4875  3.4783  3.1209  2.5095  2.5095  2.1636  1.4809
  0.9763  0.9763  1.0591  1.0250  1.0250

 Free energy of the ion-electron system (eV)
  ---------------------------------------------------
  alpha Z        PSCENC =         0.00406087
  Ewald energy   TEWEN  =        14.45412451
  -Hartree energ DENC   =       -30.81117941
  -exchange      EXHF   =         0.00000000
  -V(xc)+E(xc)   XCENC  =         5.29939248
  PAW double counting   =        23.26849271      -23.31789934
  entropy T*S    EENTRO =         0.00579791
  eigenvalues    EBANDS =       -20.64395668
  atomic energy  EATOM  =        24.97512774
  Solvation  Ediel_sol  =         0.00000000
  ---------------------------------------------------
  free energy    TOTEN  =        -6.76603922 eV

  energy without entropy =       -6.77183712  energy(sigma->0) =       -6.76797185


--------------------------------------------------------------------------------------------------------




--------------------------------------- Iteration      1(  21)  ---------------------------------------


    POTLOK:  cpu time    0.1878: real time    0.1882
    SETDIJ:  cpu time    0.0011: real time    0.0011
    EDDIAG:  cpu time    0.2743: real time    0.2750
  RMM-DIIS:  cpu time    0.8631: real time    0.8655
    ORTHCH:  cpu time    0.0062: real time    0.0062
       DOS:  cpu time    0.0003: real time    0.0003
    CHARGE:  cpu time    0.1765: real time    0.1769
    MIXING:  cpu time    0.0090: real time    0.0090
    --------------------------------------------
      LOOP:  cpu time    1.5182: real time    1.5222

 eigenvalue-minimisations  :   190
 total energy-change (2. order) :-0.1934070E-06  (-0.2501762E-09)
 number of electron       2.0000000 magnetization 
 augmentation part        0.0418659 magnetization 

 Broyden mixing:
  rms(total) = 0.82128E-06    rms(broyden)= 0.82127E-06
  rms(prec ) = 0.10813E-05
  weight for this iteration     100.00

 eigenvalues of (default mixing * dielectric matrix)
  average eigenvalue GAMMA=   3.1866
  9.6250  7.7129  5.8783  4.4500  4.0074  3.2160  2.9367  2.1734  2.4557  2.4557
  1.0721  0.9886  0.9886  1.0188  1.0188  0.9868

 Free energy of the ion-electron system (eV)
  ---------------------------------------------------
  alpha Z        PSCENC =         0.00406087
  Ewald energy   TEWEN  =        14.45412451
  -Hartree energ DENC   =       -30.81115951
  -exchange      EXHF   =         0.00000000
  -V(xc)+E(xc)   XCENC  =         5.29938861
  PAW double counting   =        23.26838281      -23.31778916
  entropy T*S    EENTRO =         0.00579791
  eigenvalues    EBANDS =       -20.64397319
  atomic energy  EATOM  =        24.97512774
  Solvation  Ediel_sol  =         0.00000000
  ---------------------------------------------------
  free energy    TOTEN  =        -6.76603941 eV

  energy without entropy =       -6.77183732  energy(sigma->0) =       -6.76797205


--------------------------------------------------------------------------------------------------------




--------------------------------------- Iteration      1(  22)  ---------------------------------------


    POTLOK:  cpu time    0.1908: real time    0.1915
    SETDIJ:  cpu time    0.0011: real time    0.0011
    EDDIAG:  cpu time    0.2732: real time    0.2739
  RMM-DIIS:  cpu time    0.8615: real time    0.8639
    ORTHCH:  cpu time    0.0062: real time    0.0062
       DOS:  cpu time    0.0002: real time    0.0002
    CHARGE:  cpu time    0.1784: real time    0.1789
    MIXING:  cpu time    0.0092: real time    0.0092
    --------------------------------------------
      LOOP:  cpu time    1.5206: real time    1.5248

 eigenvalue-minimisations  :   190
 total energy-change (2. order) :-0.5790983E-07  (-0.5203887E-10)
 number of electron       2.0000000 magnetization 
 augmentation part        0.0418659 magnetization 

 Broyden mixing:
  rms(total) = 0.74215E-06    rms(broyden)= 0.74214E-06
  rms(prec ) = 0.81321E-06
  weight for this iteration     100.00

 eigenvalues of (default mixing * dielectric matrix)
  average eigenvalue GAMMA=   3.1009
  9.6763  7.7686  5.9659  4.5888  4.1153  3.3277  2.8866  2.5932  2.5065  2.1735
  1.0703  1.0204  0.9873  0.9873  0.9809  1.0333  1.0333

 Free energy of the ion-electron system (eV)
  ---------------------------------------------------
  alpha Z        PSCENC =         0.00406087
  Ewald energy   TEWEN  =        14.45412451
  -Hartree energ DENC   =       -30.81117195
  -exchange      EXHF   =         0.00000000
  -V(xc)+E(xc)   XCENC  =         5.29939034
  PAW double counting   =        23.26842785      -23.31783423
  entropy T*S    EENTRO =         0.00579791
  eigenvalues    EBANDS =       -20.64396250
  atomic energy  EATOM  =        24.97512774
  Solvation  Ediel_sol  =         0.00000000
  ---------------------------------------------------
  free energy    TOTEN  =        -6.76603947 eV

  energy without entropy =       -6.77183738  energy(sigma->0) =       -6.76797211


--------------------------------------------------------------------------------------------------------




--------------------------------------- Iteration      1(  23)  ---------------------------------------


    POTLOK:  cpu time    0.1964: real time    0.1969
    SETDIJ:  cpu time    0.0011: real time    0.0011
    EDDIAG:  cpu time    0.2739: real time    0.2746
  RMM-DIIS:  cpu time    0.8525: real time    0.8550
    ORTHCH:  cpu time    0.0062: real time    0.0063
       DOS:  cpu time    0.0002: real time    0.0002
    --------------------------------------------
      LOOP:  cpu time    1.3303: real time    1.3339

 eigenvalue-minimisations  :   180
 total energy-change (2. order) :-0.6188788E-08  ( 0.0000000E+00)
 number of electron       2.0000000 magnetization 
 augmentation part        0.0418659 magnetization 

 Free energy of the ion-electron system (eV)
  ---------------------------------------------------
  alpha Z        PSCENC =         0.00406087
  Ewald energy   TEWEN  =        14.45412451
  -Hartree energ DENC   =       -30.81118382
  -exchange      EXHF   =         0.00000000
  -V(xc)+E(xc)   XCENC  =         5.29939177
  PAW double counting   =        23.26845001      -23.31785658
  entropy T*S    EENTRO =         0.00579791
  eigenvalues    EBANDS =       -20.64395188
  atomic energy  EATOM  =        24.97512774
  Solvation  Ediel_sol  =         0.00000000
  ---------------------------------------------------
  free energy    TOTEN  =        -6.76603948 eV

  energy without entropy =       -6.77183738  energy(sigma->0) =       -6.76797211


--------------------------------------------------------------------------------------------------------




 average (electrostatic) potential at core
  the test charge radii are     0.5201
  (the norm of the test charge is              1.0000)
       1 -41.6328       2 -41.6328
 
 
 
 E-fermi : -10.2378     XC(G=0):  -0.1648     alpha+bet : -0.0230


 k-point     1 :       0.0000    0.0000    0.0000
  band No.  band energies     occupation 
      1     -10.3220      2.00004
      2      -0.1037      0.00000
      3       0.2195      0.00000
      4       0.2230      0.00000
      5       0.3499      0.00000
      6       0.9735      0.00000
      7       0.9792      0.00000
      8       1.1808      0.00000
      9       1.5007      0.00000
     10       1.5220      0.00000

 k-point     2 :       0.2500    0.0000    0.0000
  band No.  band energies     occupation 
      1     -10.3220      2.00000
      2      -0.0205      0.00000
      3       0.2824      0.00000
      4       0.3147      0.00000
      5       0.3548      0.00000
      6       0.7081      0.00000
      7       0.9862      0.00000
      8       1.0461      0.00000
      9       1.2264      0.00000
     10       1.2481      0.00000

 k-point     3 :       0.5000    0.0000    0.0000
  band No.  band energies     occupation 
      1     -10.3220      1.99998
      2       0.1530      0.00000
      3       0.2494      0.00000
      4       0.4264      0.00000
      5       0.5336      0.00000
      6       0.6029      0.00000
      7       0.6133      0.00000
      8       0.6871      0.00000
      9       1.1251      0.00000
     10       1.2013      0.00000

 k-point     4 :       0.0000    0.2500    0.0000
  band No.  band energies     occupation 
      1     -10.3220      2.00000
      2      -0.0206      0.00000
      3       0.2823      0.00000
      4       0.3147      0.00000
      5       0.3549      0.00000
      6       0.7085      0.00000
      7       0.9861      0.00000
      8       1.0460      0.00000
      9       1.2150      0.00000
     10       1.2291      0.00000

 k-point     5 :       0.2500    0.2500    0.0000
  band No.  band energies     occupation 
      1     -10.3220      2.00002
      2      -0.0418      0.00000
      3       0.2546      0.00000
      4       0.3148      0.00000
      5       0.3838      0.00000
      6       0.8729      0.00000
      7       0.9731      0.00000
      8       0.9890      0.00000
      9       1.2210      0.00000
     10       1.2397      0.00000

 k-point     6 :       0.5000    0.2500    0.0000
  band No.  band energies     occupation 
      1     -10.3220      1.99999
      2       0.0709      0.00000
      3       0.3087      0.00000
      4       0.4938      0.00000
      5       0.5066      0.00000
      6       0.5251      0.00000
      7       0.8116      0.00000
      8       0.8498      0.00000
      9       0.8762      0.00000
     10       0.9867      0.00000

 k-point     7 :      -0.2500    0.2500    0.0000
  band No.  band energies     occupation 
      1     -10.3220      1.99999
      2       0.1658      0.00000
      3       0.2141      0.00000
      4       0.4933      0.00000
      5       0.4962      0.00000
      6       0.5059      0.00000
      7       0.7940      0.00000
      8       0.8516      0.00000
      9       0.8755      0.00000
     10       0.9839      0.00000

 k-point     8 :       0.0000    0.5000    0.0000
  band No.  band energies     occupation 
      1     -10.3220      1.99998
      2       0.1525      0.00000
      3       0.2495      0.00000
      4       0.4271      0.00000
      5       0.5336      0.00000
      6       0.6029      0.00000
      7       0.6135      0.00000
      8       0.6871      0.00000
      9       1.1251      0.00000
     10       1.2013      0.00000

 k-point     9 :       0.2500    0.5000    0.0000
  band No.  band energies     occupation 
      1     -10.3220      1.99999
      2       0.0708      0.00000
      3       0.3088      0.00000
      4       0.4938      0.00000
      5       0.5066      0.00000
      6       0.5252      0.00000
      7       0.8117      0.00000
      8       0.8498      0.00000
      9       0.8762      0.00000
     10       1.0591      0.00000

 k-point    10 :       0.5000    0.5000    0.0000
  band No.  band energies     occupation 
      1     -10.3220      1.99998
      2       0.0486      0.00000
      3       0.2575      0.00000
      4       0.5286      0.00000
      5       0.5368      0.00000
      6       0.6052      0.00000
      7       0.6857      0.00000
      8       0.8043      0.00000
      9       1.1188      0.00000
     10       1.1519      0.00000


--------------------------------------------------------------------------------------------------------


 soft charge-density along one line, spin component           1
         0         1         2         3         4         5         6         7         8         9
 total charge-density along one line
 
 pseudopotential strength for first ion, spin component:           1
 -2.344  -4.039  -0.001  -0.000  -0.002
 -4.039  -6.875  -0.003  -0.000  -0.005
 -0.001  -0.003  -0.340   0.000   0.003
 -0.000  -0.000   0.000  -0.342   0.000
 -0.002  -0.005   0.003   0.000  -0.337
 total augmentation occupancy for first ion, spin component:           1
  2.880  -0.404   0.185   0.013   0.320
 -0.404   0.057  -0.026  -0.002  -0.045
  0.185  -0.026   0.012   0.001   0.021
  0.013  -0.002   0.001   0.000   0.001
  0.320  -0.045   0.021   0.001   0.035


------------------------ aborting loop because EDIFF is reached ----------------------------------------


    CHARGE:  cpu time    0.1774: real time    0.1778
    FORLOC:  cpu time    0.0055: real time    0.0055
    FORNL :  cpu time    0.3846: real time    0.3859
    STRESS:  cpu time    1.1590: real time    1.1625
    FORHAR:  cpu time    0.0500: real time    0.0502
    MIXING:  cpu time    0.0095: real time    0.0095
    OFIELD:  cpu time    0.0001: real time    0.0001

 ---------------------------------------------------------------------------------------------

         DFTD3 V3.0 Rev 1        
 IVDW         = 11
 DF pbe       
 parameters
 VDW_S6       =    1.0000
 VDW_S8       =    0.7220
 VDW_SR       =    1.2170
 rs18     =    1.0000
 alpha6   =   14.0000
 alpha8   =   16.0000
 k1-k3    =   16.0000    1.3333   -4.0000
 VDW_RADIUS   =   50.2022 A
 VDW_CNRADIUS =   21.1671 A
 Edisp (eV)   -0.00001

 E6    (eV) :    -0.0000
 E8    (eV) :    -0.0000
 % E8        :  3.97
    FORVDW:  cpu time    0.0148: real time    0.0157

  FORCE on cell =-STRESS in cart. coord.  units (eV):
  Direction    XX          YY          ZZ          XY          YZ          ZX
  --------------------------------------------------------------------------------------
  Alpha Z     0.00406     0.00406     0.00406
  Ewald      15.01796     5.49471    -6.05855     8.29869     0.33936     0.58597
  Hartree    13.42404    12.31384     5.07329     0.96745     0.03938     0.06800
  E(xc)      -5.81027    -5.91972    -5.97468     0.09537     0.00390     0.00674
  Local     -32.40914   -25.68357    -8.85220    -5.86076    -0.23931    -0.41322
  n-local    -6.04245    -5.57514    -5.34065    -0.40719    -0.01668    -0.02880
  augment     0.22512     0.26022     0.27790    -0.03064    -0.00125    -0.00216
  Kinetic    15.54788    19.07972    20.85329    -3.07770    -0.12601    -0.21758
  Fock        0.00000     0.00000     0.00000     0.00000     0.00000     0.00000
  vdW        -0.00003    -0.00004    -0.00000     0.00000     0.00000     0.00000
  -------------------------------------------------------------------------------------
  Total      -0.04283    -0.02590    -0.01753    -0.01478    -0.00061    -0.00105
  in kB      -0.02860    -0.01729    -0.01171    -0.00987    -0.00040    -0.00070
  external pressure =       -0.02 kB  Pullay stress =        0.00 kB


 VOLUME and BASIS-vectors are now :
 -----------------------------------------------------------------------------
  energy-cutoff  :      550.00
  volume of cell :     2399.65
      direct lattice vectors                 reciprocal lattice vectors
    11.222700119  0.000000000  0.000000000     0.089105116 -0.051444863  0.000000000
     5.611350060  9.719143402  0.000000000     0.000000000  0.102889726  0.000000000
     0.000000000  0.000000000 22.000000000     0.000000000  0.000000000  0.045454545

  length of vectors
    11.222700119 11.222700119 22.000000000     0.102889726  0.102889726  0.045454545


 FORCES acting on ions
    electron-ion (+dipol)            ewald-force                    non-local-force                 convergence-correction
 -----------------------------------------------------------------------------------------------
   0.177E+02 0.102E+02 0.727E+00   -.220E+02 -.128E+02 -.904E+00   0.437E+01 0.253E+01 0.179E+00   0.131E-05 0.761E-06 0.524E-07
   -.177E+02 -.102E+02 -.727E+00   0.220E+02 0.128E+02 0.904E+00   -.437E+01 -.253E+01 -.179E+00   -.131E-05 -.761E-06 -.524E-07
 -----------------------------------------------------------------------------------------------
   0.659E-06 0.216E-05 0.241E-05   0.000E+00 0.000E+00 0.000E+00   0.000E+00 0.000E+00 0.000E+00   -.644E-12 -.765E-12 -.796E-11
 
 
 POSITION                                       TOTAL-FORCE (eV/Angst)
 -----------------------------------------------------------------------------------
      8.44183      5.42845     12.37956         0.034276      0.019834      0.001409
      9.09152      5.80471     12.40616        -0.034276     -0.019834     -0.001409
 -----------------------------------------------------------------------------------
    total drift:                                0.000001      0.000002      0.000002


--------------------------------------------------------------------------------------------------------



  FREE ENERGIE OF THE ION-ELECTRON SYSTEM (eV)
  ---------------------------------------------------
  free  energy   TOTEN  =        -6.76605278 eV

  energy  without entropy=       -6.77185068  energy(sigma->0) =       -6.76798541
 


--------------------------------------------------------------------------------------------------------


    POTLOK:  cpu time    0.1943: real time    0.1948


--------------------------------------------------------------------------------------------------------




--------------------------------------------------------------------------------------------------------


    WAVPRE:  cpu time    0.0141: real time    0.0525
    FEWALD:  cpu time    0.0002: real time    0.0002

 real space projection operators:
  total allocation   :        294.65 KBytes
  max/ min on nodes  :         73.83         73.44

    ORTHCH:  cpu time    0.1397: real time    0.1400
     LOOP+:  cpu time   36.4903: real time   36.7458


--------------------------------------- Iteration      2(   1)  ---------------------------------------


    POTLOK:  cpu time    0.1948: real time    0.1962
    SETDIJ:  cpu time    0.0016: real time    0.0016
     EDDAV:  cpu time    1.5376: real time    1.5420
       DOS:  cpu time    0.0003: real time    0.0002
    CHARGE:  cpu time    0.1771: real time    0.1776
    MIXING:  cpu time    0.0058: real time    0.0058
    --------------------------------------------
      LOOP:  cpu time    1.9172: real time    1.9235

 eigenvalue-minimisations  :   310
 total energy-change (2. order) : 0.7988819E-04  (-0.4370405E-03)
 number of electron       2.0000000 magnetization 
 augmentation part        0.0421030 magnetization 

 Broyden mixing:
  rms(total) = 0.32842E-02    rms(broyden)= 0.32828E-02
  rms(prec ) = 0.34300E-02
  weight for this iteration     100.00

 Free energy of the ion-electron system (eV)
  ---------------------------------------------------
  alpha Z        PSCENC =         0.00406087
  Ewald energy   TEWEN  =        14.55201136
  -Hartree energ DENC   =       -30.84333868
  -exchange      EXHF   =         0.00000000
  -V(xc)+E(xc)   XCENC  =         5.30336685
  PAW double counting   =        23.26843799      -23.31784448
  entropy T*S    EENTRO =         0.00579791
  eigenvalues    EBANDS =       -20.71357914
  atomic energy  EATOM  =        24.97512774
  Solvation  Ediel_sol  =         0.00000000
  ---------------------------------------------------
  free energy    TOTEN  =        -6.76595958 eV

  energy without entropy =       -6.77175749  energy(sigma->0) =       -6.76789222


--------------------------------------------------------------------------------------------------------




--------------------------------------- Iteration      2(   2)  ---------------------------------------


    POTLOK:  cpu time    0.1895: real time    0.1902
    SETDIJ:  cpu time    0.0011: real time    0.0011
    EDDIAG:  cpu time    0.2735: real time    0.2773
  RMM-DIIS:  cpu time    0.8803: real time    0.8830
    ORTHCH:  cpu time    0.0062: real time    0.0062
       DOS:  cpu time    0.0002: real time    0.0002
    CHARGE:  cpu time    0.1780: real time    0.1784
    MIXING:  cpu time    0.0066: real time    0.0066
    --------------------------------------------
      LOOP:  cpu time    1.5354: real time    1.5431

 eigenvalue-minimisations  :   200
 total energy-change (2. order) : 0.1738144E-04  (-0.1321824E-05)
 number of electron       2.0000000 magnetization 
 augmentation part        0.0420914 magnetization 

 Broyden mixing:
  rms(total) = 0.17926E-02    rms(broyden)= 0.17925E-02
  rms(prec ) = 0.18707E-02
  weight for this iteration     100.00

 eigenvalues of (default mixing * dielectric matrix)
  average eigenvalue GAMMA=   2.1947
  2.1947

 Free energy of the ion-electron system (eV)
  ---------------------------------------------------
  alpha Z        PSCENC =         0.00406087
  Ewald energy   TEWEN  =        14.55201136
  -Hartree energ DENC   =       -30.86038824
  -exchange      EXHF   =         0.00000000
  -V(xc)+E(xc)   XCENC  =         5.30578026
  PAW double counting   =        23.37563785      -23.42527727
  entropy T*S    EENTRO =         0.00579791
  eigenvalues    EBANDS =       -20.69869268
  atomic energy  EATOM  =        24.97512774
  Solvation  Ediel_sol  =         0.00000000
  ---------------------------------------------------
  free energy    TOTEN  =        -6.76594220 eV

  energy without entropy =       -6.77174011  energy(sigma->0) =       -6.76787484


--------------------------------------------------------------------------------------------------------




--------------------------------------- Iteration      2(   3)  ---------------------------------------


    POTLOK:  cpu time    0.1922: real time    0.1927
    SETDIJ:  cpu time    0.0011: real time    0.0011
    EDDIAG:  cpu time    0.2740: real time    0.2748
  RMM-DIIS:  cpu time    0.8775: real time    0.8798
    ORTHCH:  cpu time    0.0062: real time    0.0062
       DOS:  cpu time    0.0002: real time    0.0002
    CHARGE:  cpu time    0.1782: real time    0.1787
    MIXING:  cpu time    0.0067: real time    0.0067
    --------------------------------------------
      LOOP:  cpu time    1.5361: real time    1.5401

 eigenvalue-minimisations  :   200
 total energy-change (2. order) : 0.5559123E-05  (-0.1662475E-05)
 number of electron       2.0000000 magnetization 
 augmentation part        0.0420747 magnetization 

 Broyden mixing:
  rms(total) = 0.12281E-03    rms(broyden)= 0.12274E-03
  rms(prec ) = 0.13024E-03
  weight for this iteration     100.00

 eigenvalues of (default mixing * dielectric matrix)
  average eigenvalue GAMMA=   1.9920
  1.9920  1.9920

 Free energy of the ion-electron system (eV)
  ---------------------------------------------------
  alpha Z        PSCENC =         0.00406087
  Ewald energy   TEWEN  =        14.55201136
  -Hartree energ DENC   =       -30.88066301
  -exchange      EXHF   =         0.00000000
  -V(xc)+E(xc)   XCENC  =         5.30862956
  PAW double counting   =        23.50892379      -23.55884730
  entropy T*S    EENTRO =         0.00579791
  eigenvalues    EBANDS =       -20.68097756
  atomic energy  EATOM  =        24.97512774
[...]
  weight for this iteration     100.00

 eigenvalues of (default mixing * dielectric matrix)
  average eigenvalue GAMMA=   1.9029
  0.9998  2.7228  1.9445  1.9445

 Free energy of the ion-electron system (eV)
  ---------------------------------------------------
  alpha Z        PSCENC =         0.00406087
  Ewald energy   TEWEN  =        14.48353644
  -Hartree energ DENC   =       -30.83266041
  -exchange      EXHF   =         0.00000000
  -V(xc)+E(xc)   XCENC  =         5.30220118
  PAW double counting   =        23.34342839      -23.39299152
  entropy T*S    EENTRO =         0.00579791
  eigenvalues    EBANDS =       -20.65456267
  atomic energy  EATOM  =        24.97512774
  Solvation  Ediel_sol  =         0.00000000
  ---------------------------------------------------
  free energy    TOTEN  =        -6.76606208 eV

  energy without entropy =       -6.77185998  energy(sigma->0) =       -6.76799471


--------------------------------------------------------------------------------------------------------




--------------------------------------- Iteration      3(   6)  ---------------------------------------


    POTLOK:  cpu time    0.1860: real time    0.1865
    SETDIJ:  cpu time    0.0011: real time    0.0011
    EDDIAG:  cpu time    0.2740: real time    0.2747
  RMM-DIIS:  cpu time    0.8827: real time    0.8850
    ORTHCH:  cpu time    0.0063: real time    0.0063
       DOS:  cpu time    0.0003: real time    0.0003
    CHARGE:  cpu time    0.1807: real time    0.1812
    MIXING:  cpu time    0.0074: real time    0.0074
    --------------------------------------------
      LOOP:  cpu time    1.5386: real time    1.5426

 eigenvalue-minimisations  :   200
 total energy-change (2. order) :-0.1340643E-06  (-0.7795060E-09)
 number of electron       2.0000000 magnetization 
 augmentation part        0.0419283 magnetization 

 Broyden mixing:
  rms(total) = 0.13635E-04    rms(broyden)= 0.13635E-04
  rms(prec ) = 0.15355E-04
  weight for this iteration     100.00

 eigenvalues of (default mixing * dielectric matrix)
  average eigenvalue GAMMA=   2.1371
  3.9430  2.5858  2.1473  1.0048  1.0048

 Free energy of the ion-electron system (eV)
  ---------------------------------------------------
  alpha Z        PSCENC =         0.00406087
  Ewald energy   TEWEN  =        14.48353644
  -Hartree energ DENC   =       -30.83226829
  -exchange      EXHF   =         0.00000000
  -V(xc)+E(xc)   XCENC  =         5.30215141
  PAW double counting   =        23.34246359      -23.39202384
  entropy T*S    EENTRO =         0.00579791
  eigenvalues    EBANDS =       -20.65490804
  atomic energy  EATOM  =        24.97512774
  Solvation  Ediel_sol  =         0.00000000
  ---------------------------------------------------
  free energy    TOTEN  =        -6.76606221 eV

  energy without entropy =       -6.77186011  energy(sigma->0) =       -6.76799484


--------------------------------------------------------------------------------------------------------




--------------------------------------- Iteration      3(   7)  ---------------------------------------


    POTLOK:  cpu time    0.1872: real time    0.1877
    SETDIJ:  cpu time    0.0010: real time    0.0010
    EDDIAG:  cpu time    0.2734: real time    0.2742
  RMM-DIIS:  cpu time    0.8669: real time    0.8691
    ORTHCH:  cpu time    0.0063: real time    0.0064
       DOS:  cpu time    0.0003: real time    0.0003
    CHARGE:  cpu time    0.1806: real time    0.1810
    MIXING:  cpu time    0.0076: real time    0.0076
    --------------------------------------------
      LOOP:  cpu time    1.5233: real time    1.5272

 eigenvalue-minimisations  :   198
 total energy-change (2. order) :-0.1047870E-06  (-0.5238141E-09)
 number of electron       2.0000000 magnetization 
 augmentation part        0.0419283 magnetization 

 Broyden mixing:
  rms(total) = 0.20873E-05    rms(broyden)= 0.20873E-05
  rms(prec ) = 0.34102E-05
  weight for this iteration     100.00

 eigenvalues of (default mixing * dielectric matrix)
  average eigenvalue GAMMA=   2.6159
  5.2270  3.8138  2.4818  2.1749  0.9991  0.9991

 Free energy of the ion-electron system (eV)
  ---------------------------------------------------
  alpha Z        PSCENC =         0.00406087
  Ewald energy   TEWEN  =        14.48353644
  -Hartree energ DENC   =       -30.83224944
  -exchange      EXHF   =         0.00000000
  -V(xc)+E(xc)   XCENC  =         5.30215981
  PAW double counting   =        23.34329153      -23.39285389
  entropy T*S    EENTRO =         0.00579791
  eigenvalues    EBANDS =       -20.65493327
  atomic energy  EATOM  =        24.97512774
  Solvation  Ediel_sol  =         0.00000000
  ---------------------------------------------------
  free energy    TOTEN  =        -6.76606231 eV

  energy without entropy =       -6.77186022  energy(sigma->0) =       -6.76799495


--------------------------------------------------------------------------------------------------------




--------------------------------------- Iteration      3(   8)  ---------------------------------------


    POTLOK:  cpu time    0.1885: real time    0.1890
    SETDIJ:  cpu time    0.0011: real time    0.0011
    EDDIAG:  cpu time    0.2737: real time    0.2744
  RMM-DIIS:  cpu time    0.8577: real time    0.8600
    ORTHCH:  cpu time    0.0063: real time    0.0063
       DOS:  cpu time    0.0003: real time    0.0003
    CHARGE:  cpu time    0.1800: real time    0.1805
    MIXING:  cpu time    0.0078: real time    0.0078
    --------------------------------------------
      LOOP:  cpu time    1.5155: real time    1.5195

 eigenvalue-minimisations  :   190
 total energy-change (2. order) :-0.5612161E-07  (-0.2887059E-09)
 number of electron       2.0000000 magnetization 
 augmentation part        0.0419283 magnetization 

 Broyden mixing:
  rms(total) = 0.95416E-06    rms(broyden)= 0.95415E-06
  rms(prec ) = 0.15261E-05
  weight for this iteration     100.00

 eigenvalues of (default mixing * dielectric matrix)
  average eigenvalue GAMMA=   2.4085
  5.7650  3.4623  2.5897  2.1384  1.0179  1.0179  0.8685

 Free energy of the ion-electron system (eV)
  ---------------------------------------------------
  alpha Z        PSCENC =         0.00406087
  Ewald energy   TEWEN  =        14.48353644
  -Hartree energ DENC   =       -30.83219415
  -exchange      EXHF   =         0.00000000
  -V(xc)+E(xc)   XCENC  =         5.30215568
  PAW double counting   =        23.34330619      -23.39286850
  entropy T*S    EENTRO =         0.00579791
  eigenvalues    EBANDS =       -20.65498455
  atomic energy  EATOM  =        24.97512774
  Solvation  Ediel_sol  =         0.00000000
  ---------------------------------------------------
  free energy    TOTEN  =        -6.76606237 eV

  energy without entropy =       -6.77186028  energy(sigma->0) =       -6.76799501


--------------------------------------------------------------------------------------------------------




--------------------------------------- Iteration      3(   9)  ---------------------------------------


    POTLOK:  cpu time    0.1893: real time    0.1898
    SETDIJ:  cpu time    0.0011: real time    0.0011
    EDDIAG:  cpu time    0.2734: real time    0.2741
  RMM-DIIS:  cpu time    0.8598: real time    0.8621
    ORTHCH:  cpu time    0.0067: real time    0.0067
       DOS:  cpu time    0.0002: real time    0.0002
    --------------------------------------------
      LOOP:  cpu time    1.3305: real time    1.3339

 eigenvalue-minimisations  :   190
 total energy-change (2. order) :-0.5428269E-08  (-0.7242208E-10)
 number of electron       2.0000000 magnetization 
 augmentation part        0.0419283 magnetization 

 Free energy of the ion-electron system (eV)
  ---------------------------------------------------
  alpha Z        PSCENC =         0.00406087
  Ewald energy   TEWEN  =        14.48353644
  -Hartree energ DENC   =       -30.83216356
  -exchange      EXHF   =         0.00000000
  -V(xc)+E(xc)   XCENC  =         5.30215320
  PAW double counting   =        23.34318254      -23.39274463
  entropy T*S    EENTRO =         0.00579791
  eigenvalues    EBANDS =       -20.65501288
  atomic energy  EATOM  =        24.97512774
  Solvation  Ediel_sol  =         0.00000000
  ---------------------------------------------------
  free energy    TOTEN  =        -6.76606238 eV

  energy without entropy =       -6.77186028  energy(sigma->0) =       -6.76799501


--------------------------------------------------------------------------------------------------------




 average (electrostatic) potential at core
  the test charge radii are     0.5201
  (the norm of the test charge is              1.0000)
       1 -41.6400       2 -41.6400
 
 
 
 E-fermi : -10.2433     XC(G=0):  -0.1640     alpha+bet : -0.0230


 k-point     1 :       0.0000    0.0000    0.0000
  band No.  band energies     occupation 
      1     -10.3275      2.00004
      2      -0.1030      0.00000
      3       0.2164      0.00000
      4       0.2261      0.00000
      5       0.3533      0.00000
      6       0.9745      0.00000
      7       0.9821      0.00000
      8       1.1802      0.00000
      9       1.5029      0.00000
     10       1.5183      0.00000

 k-point     2 :       0.2500    0.0000    0.0000
  band No.  band energies     occupation 
      1     -10.3275      2.00000
      2      -0.0199      0.00000
      3       0.2806      0.00000
      4       0.3206      0.00000
      5       0.3535      0.00000
      6       0.7101      0.00000
      7       0.9896      0.00000
      8       1.0419      0.00000
      9       1.2213      0.00000
     10       1.2261      0.00000

 k-point     3 :       0.5000    0.0000    0.0000
  band No.  band energies     occupation 
      1     -10.3275      1.99998
      2       0.1539      0.00000
      3       0.2499      0.00000
      4       0.4285      0.00000
      5       0.5386      0.00000
      6       0.5999      0.00000
      7       0.6063      0.00000
      8       0.6952      0.00000
      9       1.1244      0.00000
     10       1.2056      0.00000

 k-point     4 :       0.0000    0.2500    0.0000
  band No.  band energies     occupation 
      1     -10.3275      2.00000
      2      -0.0200      0.00000
      3       0.2805      0.00000
      4       0.3206      0.00000
      5       0.3536      0.00000
      6       0.7105      0.00000
      7       0.9896      0.00000
      8       1.0419      0.00000
      9       1.2213      0.00000
     10       1.2261      0.00000

 k-point     5 :       0.2500    0.2500    0.0000
  band No.  band energies     occupation 
      1     -10.3275      2.00002
      2      -0.0414      0.00000
      3       0.2530      0.00000
      4       0.3213      0.00000
      5       0.3823      0.00000
      6       0.8732      0.00000
      7       0.9728      0.00000
      8       0.9915      0.00000
      9       1.2169      0.00000
     10       1.2256      0.00000

 k-point     6 :       0.5000    0.2500    0.0000
  band No.  band energies     occupation 
      1     -10.3275      1.99999
      2       0.0711      0.00000
      3       0.3114      0.00000
      4       0.5000      0.00000
      5       0.5009      0.00000
      6       0.5257      0.00000
      7       0.8109      0.00000
      8       0.8544      0.00000
      9       0.8704      0.00000
     10       0.9935      0.00000

 k-point     7 :      -0.2500    0.2500    0.0000
  band No.  band energies     occupation 
      1     -10.3275      1.99999
      2       0.1664      0.00000
      3       0.2153      0.00000
      4       0.4972      0.00000
      5       0.4990      0.00000
      6       0.5019      0.00000
      7       0.7879      0.00000
      8       0.8593      0.00000
      9       0.8758      0.00000
     10       0.9889      0.00000

 k-point     8 :       0.0000    0.5000    0.0000
  band No.  band energies     occupation 
      1     -10.3275      1.99998
      2       0.1533      0.00000
      3       0.2500      0.00000
      4       0.4292      0.00000
      5       0.5386      0.00000
      6       0.5999      0.00000
      7       0.6066      0.00000
      8       0.6952      0.00000
      9       1.1244      0.00000
     10       1.2056      0.00000

 k-point     9 :       0.2500    0.5000    0.0000
  band No.  band energies     occupation 
      1     -10.3275      1.99999
      2       0.0709      0.00000
      3       0.3115      0.00000
      4       0.5000      0.00000
      5       0.5009      0.00000
      6       0.5258      0.00000
      7       0.8110      0.00000
      8       0.8544      0.00000
      9       0.8704      0.00000
     10       0.9935      0.00000

 k-point    10 :       0.5000    0.5000    0.0000
  band No.  band energies     occupation 
      1     -10.3275      1.99998
      2       0.0482      0.00000
      3       0.2612      0.00000
      4       0.5218      0.00000
      5       0.5423      0.00000
      6       0.6044      0.00000
      7       0.6907      0.00000
      8       0.8043      0.00000
      9       1.1203      0.00000
     10       1.1486      0.00000


--------------------------------------------------------------------------------------------------------


 soft charge-density along one line, spin component           1
         0         1         2         3         4         5         6         7         8         9
 total charge-density along one line
 
 pseudopotential strength for first ion, spin component:           1
 -2.344  -4.039  -0.001  -0.000  -0.002
 -4.039  -6.875  -0.003  -0.000  -0.005
 -0.001  -0.003  -0.340   0.000   0.003
 -0.000  -0.000   0.000  -0.341   0.000
 -0.002  -0.005   0.003   0.000  -0.337
 total augmentation occupancy for first ion, spin component:           1
  2.882  -0.403   0.186   0.013   0.321
 -0.403   0.056  -0.026  -0.002  -0.045
  0.186  -0.026   0.012   0.001   0.021
  0.013  -0.002   0.001   0.000   0.001
  0.321  -0.045   0.021   0.001   0.036


------------------------ aborting loop because EDIFF is reached ----------------------------------------


    CHARGE:  cpu time    0.1795: real time    0.1799
    FORLOC:  cpu time    0.0057: real time    0.0058
    FORNL :  cpu time    0.3772: real time    0.3782
    STRESS:  cpu time    1.1359: real time    1.1387
    FORHAR:  cpu time    0.0516: real time    0.0517
    MIXING:  cpu time    0.0076: real time    0.0076
    OFIELD:  cpu time    0.0001: real time    0.0001

 ---------------------------------------------------------------------------------------------

         DFTD3 V3.0 Rev 1        
 Edisp (eV)   -0.00001

 E6    (eV) :    -0.0000
 E8    (eV) :    -0.0000
 % E8        :  3.95
    FORVDW:  cpu time    0.0060: real time    0.0070

  FORCE on cell =-STRESS in cart. coord.  units (eV):
  Direction    XX          YY          ZZ          XY          YZ          ZX
  --------------------------------------------------------------------------------------
  Alpha Z     0.00406     0.00406     0.00406
  Ewald      15.03997     5.50208    -6.05851     8.31147     0.33988     0.58687
  Hartree    13.42972    12.32112     5.08133     0.96605     0.03932     0.06790
  E(xc)      -5.81349    -5.92288    -5.97781     0.09532     0.00390     0.00674
  Local     -32.41978   -25.69661    -8.86644    -5.85868    -0.23923    -0.41307
  n-local    -6.05210    -5.58293    -5.34750    -0.40881    -0.01674    -0.02891
  augment     0.22521     0.26057     0.27838    -0.03087    -0.00126    -0.00218
  Kinetic    15.56584    19.09618    20.86900    -3.07639    -0.12595    -0.21748
  Fock        0.00000     0.00000     0.00000     0.00000     0.00000     0.00000
  vdW        -0.00003    -0.00004    -0.00000     0.00000     0.00000     0.00000
  -------------------------------------------------------------------------------------
  Total      -0.02059    -0.01844    -0.01749    -0.00190    -0.00008    -0.00014
  in kB      -0.01375    -0.01231    -0.01168    -0.00127    -0.00005    -0.00009
  external pressure =       -0.01 kB  Pullay stress =        0.00 kB


 VOLUME and BASIS-vectors are now :
 -----------------------------------------------------------------------------
  energy-cutoff  :      550.00
  volume of cell :     2399.65
      direct lattice vectors                 reciprocal lattice vectors
    11.222700119  0.000000000  0.000000000     0.089105116 -0.051444863  0.000000000
     5.611350060  9.719143402  0.000000000     0.000000000  0.102889726  0.000000000
     0.000000000  0.000000000 22.000000000     0.000000000  0.000000000  0.045454545

  length of vectors
    11.222700119 11.222700119 22.000000000     0.102889726  0.102889726  0.045454545


 FORCES acting on ions
    electron-ion (+dipol)            ewald-force                    non-local-force                 convergence-correction
 -----------------------------------------------------------------------------------------------
   0.177E+02 0.103E+02 0.728E+00   -.221E+02 -.128E+02 -.907E+00   0.438E+01 0.254E+01 0.179E+00   -.411E-05 -.238E-05 -.157E-06
   -.177E+02 -.103E+02 -.728E+00   0.221E+02 0.128E+02 0.907E+00   -.438E+01 -.254E+01 -.179E+00   0.411E-05 0.238E-05 0.158E-06
 -----------------------------------------------------------------------------------------------
   0.688E-06 0.223E-05 0.242E-05   0.000E+00 0.000E+00 0.000E+00   0.000E+00 0.000E+00 0.000E+00   -.492E-12 0.241E-10 0.834E-12
 
 
 POSITION                                       TOTAL-FORCE (eV/Angst)
 -----------------------------------------------------------------------------------
      8.44233      5.42874     12.37958        -0.000052     -0.000048      0.000002
      9.09103      5.80442     12.40614         0.000052      0.000048     -0.000002
 -----------------------------------------------------------------------------------
    total drift:                                0.000001      0.000002      0.000002


--------------------------------------------------------------------------------------------------------



  FREE ENERGIE OF THE ION-ELECTRON SYSTEM (eV)
  ---------------------------------------------------
  free  energy   TOTEN  =        -6.76607566 eV

  energy  without entropy=       -6.77187357  energy(sigma->0) =       -6.76800830
 
 d Force = 0.1245178E-03[ 0.183E-06, 0.249E-03]  d Energy = 0.1239960E-03 0.522E-06
 d Force = 0.6847536E-01[ 0.682E-01, 0.687E-01]  d Ewald  = 0.6847493E-01 0.431E-06


--------------------------------------------------------------------------------------------------------


    POTLOK:  cpu time    0.1884: real time    0.1889


--------------------------------------------------------------------------------------------------------




--------------------------------------------------------------------------------------------------------


  
 reached required accuracy - stopping structural energy minimisation
     LOOP+:  cpu time   15.6048: real time   15.6491
    4ORBIT:  cpu time    0.0000: real time    0.0000

 total amount of memory used by VASP MPI-rank0    81843. kBytes
=======================================================================

   base      :      30000. kBytes
   nonlr-proj:        223. kBytes
   fftplans  :      20287. kBytes
   grid      :      28516. kBytes
   one-center:          1. kBytes
   wavefun   :       2816. kBytes
 
  
  
 General timing and accounting informations for this job:
 ========================================================
  
                  Total CPU time used (sec):       76.978
                            User time (sec):       74.516
                          System time (sec):        2.462
                         Elapsed time (sec):       78.023
  
                   Maximum memory used (kb):      390172.
                   Average memory used (kb):           0.
  
                          Minor page faults:       400834
                          Major page faults:            0
                 Voluntary context switches:         2903
