 vasp.5.4.4.18Apr17-6-g9f103f2a35 (build Nov 30 2020 22:55:02) complex          
  
 executed on             LinuxIFC date 2023.09.30  17:37:54
 running on   40 total cores
 distrk:  each k-point on   40 cores,    1 groups
 distr:  one band on NCORES_PER_BAND=   4 cores,   10 groups


--------------------------------------------------------------------------------------------------------


 INCAR:
 POTCAR:    PAW_PBE Pt 04Feb2005                  
 POTCAR:    PAW_PBE Pt 04Feb2005                  
   VRHFIN =Pt: s1d9                                                             
   LEXCH  = PE                                                                  
   EATOM  =   729.1176 eV,   53.5886 Ry                                         
                                                                                
   TITEL  = PAW_PBE Pt 04Feb2005                                                
   LULTRA =        F    use ultrasoft PP ?                                      
   IUNSCR =        1    unscreen: 0-lin 1-nonlin 2-no                           
   RPACOR =    2.330    partial core radius                                     
   POMASS =  195.080; ZVAL   =   10.000    mass and valenz                      
   RCORE  =    2.600    outmost cutoff radius                                   
   RWIGS  =    2.750; RWIGS  =    1.455    wigner-seitz radius (au A)           
   ENMAX  =  230.283; ENMIN  =  172.712 eV                                      
   ICORE  =        3    local potential                                         
   LCOR   =        T    correct aug charges                                     
   LPAW   =        T    paw PP                                                  
   EAUG   =  358.966                                                            
   DEXC   =    0.000                                                            
   RMAX   =    2.658    core radius for proj-oper                               
   RAUG   =    1.300    factor for augmentation sphere                          
   RDEP   =    2.761    radius for radial grids                                 
   RDEPT  =    2.203    core radius for aug-charge                              
                                                                                
   Atomic configuration                                                         
   16 entries                                                                   
     n  l   j            E        occ.                                          
     1  0  0.50    -78401.1885   2.0000                                         
     2  0  0.50    -13770.7750   2.0000                                         
     2  1  1.50    -11931.0468   6.0000                                         
     3  0  0.50     -3234.7234   2.0000                                         
     3  1  1.50     -2699.2216   6.0000                                         
     3  2  2.50     -2119.5714  10.0000                                         
     4  0  0.50      -695.1528   2.0000                                         
     4  1  1.50      -519.6034   6.0000                                         
     4  2  2.50      -306.6786  10.0000                                         
     4  3  3.50       -70.1041  14.0000                                         
     5  0  0.50      -101.7747   2.0000                                         
     5  1  1.50       -55.9873   6.0000                                         
     5  2  2.50        -6.1423   9.0000                                         
     6  0  0.50        -5.6573   1.0000                                         
     6  1  1.50        -6.8029   0.0000                                         
     5  3  2.50        -1.3606   0.0000                                         
   Description                                                                  
     l       E           TYP  RCUT    TYP  RCUT                                 
     2     -6.1423404     23  2.500                                             
     2     -7.5029230     23  2.500                                             
     0     -5.6573207     23  2.500                                             
     0      0.7416693     23  2.500                                             
     1     -2.7211652     23  2.600                                             
     1     20.4087390     23  2.600                                             
     3     -1.3605826     23  2.500                                             
  local pseudopotential read in
  partial core-charges read in
  partial kinetic energy density read in
  atomic valenz-charges read in
  non local Contribution for L=           2  read in
    real space projection operators read in
  non local Contribution for L=           2  read in
    real space projection operators read in
  non local Contribution for L=           0  read in
    real space projection operators read in
  non local Contribution for L=           0  read in
    real space projection operators read in
  non local Contribution for L=           1  read in
    real space projection operators read in
  non local Contribution for L=           1  read in
    real space projection operators read in
    PAW grid and wavefunctions read in
 
   number of l-projection  operators is LMAX  =           6
   number of lm-projection operators is LMMAX =          18
 
 Optimization of the real space projectors (new method)

 maximal supplied QI-value         = 14.36
 optimisation between [QCUT,QGAM] = [ 11.92, 23.98] = [ 39.79,161.09] Ry 
 Optimized for a Real-space Cutoff    1.49 Angstroem

   l    n(q)    QCUT    max X(q) W(low)/X(q) W(high)/X(q)  e(spline) 
   2     10    11.920    66.195    0.79E-04    0.18E-03    0.24E-06
   2     10    11.920    64.643    0.81E-04    0.19E-03    0.24E-06
   0     11    11.920    95.520    0.28E-04    0.54E-04    0.18E-06
   0     11    11.920    63.403    0.27E-04    0.52E-04    0.17E-06
   1     10    11.920    19.961    0.18E-04    0.11E-03    0.23E-06
   1     10    11.920    13.289    0.25E-04    0.87E-04    0.19E-06
  PAW_PBE Pt 04Feb2005                  :
 energy of atom  1       EATOM= -729.1176
 kinetic energy error for atom=    0.0021 (will be added to EATOM!!)
 
 
 POSCAR: Pt111\(1\1\1)\(2)                       
  positions in direct lattice
  velocities in cartesian coordinates
 exchange correlation table for  LEXCH =        8
   RHO(1)=    0.500       N(1)  =     2000
   RHO(2)=  100.500       N(2)  =     4000
 


--------------------------------------------------------------------------------------------------------


 ion  position               nearest neighbor table
   1  0.001  0.001  0.056-  13 2.63   5 2.64  29 2.64   9 2.64  37 2.64  57 2.65  42 2.82  54 2.84
                            14 2.92
   2  0.334  0.169  0.180-  26 2.61  14 2.62   6 2.63  42 2.64  30 2.64  38 2.67  11 2.79   7 2.81
                             9 2.90  21 2.90  13 2.92  15 3.03
   3  0.167  0.334  0.311-  43 2.63  15 2.63  39 2.63   7 2.63  31 2.65  27 2.65   8 2.74   6 2.80
                            48 2.90  12 2.90  14 3.03  10 3.03
   4  0.000  0.001  0.416-   8 2.64  32 2.64  16 2.64  40 2.65  60 2.65  12 2.65   7 2.80  27 2.83
                            63 2.90
   5  0.001  0.251  0.056-   9 2.63  45 2.63   1 2.64  33 2.64  29 2.65  25 2.65  18 2.86  10 2.90
                            14 2.90
   6  0.333  0.417  0.193-  26 2.63   2 2.63  10 2.63  14 2.63  34 2.63  62 2.63   3 2.80  43 2.80
                            15 2.80   9 3.14  49 3.14  45 3.14
   7  0.168  0.086  0.298-   3 2.63  15 2.63  27 2.64  11 2.64  63 2.67  35 2.67   4 2.80  16 2.80
                             2 2.81  14 2.81  42 2.91  12 3.10
   8  0.001  0.250  0.425-   4 2.64  36 2.64  48 2.64  12 2.64  28 2.65  32 2.65   3 2.74  27 2.98
                            31 2.98
   9  0.251  0.251  0.056-  45 2.62  49 2.62  21 2.63   5 2.63  13 2.64   1 2.64  14 2.90   2 2.90
                             6 3.14
  10  0.085  0.416  0.180-  14 2.61  34 2.62   6 2.63  46 2.64  18 2.64  22 2.67  31 2.79  39 2.81
                            45 2.90   5 2.90  33 2.92   3 3.03
  11  0.417  0.085  0.296-  19 2.62   7 2.64  23 2.64  35 2.64  15 2.65  47 2.67   2 2.79  16 2.83
                            30 2.83  20 2.85  38 2.87  24 2.98
  12  0.249  0.249  0.434-   8 2.64  24 2.64   4 2.65  16 2.65  52 2.66  48 2.66  15 2.90   3 2.90
                             7 3.10
  13  0.250  0.001  0.056-   1 2.63  21 2.64  17 2.64   9 2.64  37 2.64  41 2.65  42 2.82  38 2.84
                             2 2.92
  14  0.085  0.169  0.180-  10 2.61   2 2.62   6 2.63  42 2.64  18 2.64  54 2.67  27 2.79   7 2.81
                             9 2.90   5 2.90   1 2.92   3 3.03
  15  0.416  0.334  0.311-  43 2.63   3 2.63  55 2.63   7 2.63  19 2.65  11 2.65  24 2.74   6 2.80
                            52 2.90  12 2.90   2 3.03  26 3.03
  16  0.251  0.001  0.416-  24 2.64  20 2.64   4 2.64  40 2.65  44 2.65  12 2.65   7 2.80  11 2.83
                            35 2.90
  17  0.500  1.000  0.056-  41 2.64  13 2.64  29 2.65  25 2.65  53 2.65  21 2.65  38 2.83  30 2.86
                            58 2.86
  18  0.834  0.167  0.177-  54 2.64  22 2.64  14 2.64  10 2.64  58 2.66  30 2.66  31 2.83  27 2.83
                            23 2.83   5 2.86  29 2.86  25 2.86
  19  0.665  0.333  0.296-  11 2.62  55 2.64  23 2.64  59 2.64  15 2.65  31 2.67  26 2.79  30 2.83
                            64 2.83  28 2.85  22 2.87  24 2.98
  20  0.500  0.000  0.417-  32 2.64  28 2.64  44 2.64  16 2.64  56 2.65  24 2.65  47 2.85  11 2.85
                            23 2.86
  21  0.499  0.251  0.056-   9 2.63  49 2.63  13 2.64  61 2.64  17 2.65  25 2.65  30 2.86  26 2.90
                             2 2.90
  22  0.833  0.416  0.175-  30 2.64  18 2.64  50 2.64  46 2.64  26 2.67  10 2.67  59 2.79  25 2.83
                            33 2.84  61 2.84  19 2.87  31 2.87
  23  0.667  0.083  0.296-  27 2.64  11 2.64  51 2.64  47 2.64  31 2.64  19 2.64  58 2.83  18 2.83
                            30 2.83  28 2.86  20 2.86  32 2.86
  24  0.500  0.250  0.425-  16 2.64  64 2.64  52 2.64  12 2.64  28 2.65  20 2.65  15 2.74  11 2.98
                            19 2.98
  25  0.750  0.250  0.056-  61 2.64  33 2.64  29 2.65  17 2.65   5 2.65  21 2.65  22 2.83  30 2.86
                            18 2.86
  26  0.581  0.416  0.180-   2 2.61  62 2.62   6 2.63  50 2.64  30 2.64  22 2.67  19 2.79  55 2.81
                            49 2.90  21 2.90  61 2.92  15 3.03
  27  0.918  0.085  0.296-  31 2.62   7 2.64  23 2.64  63 2.64   3 2.65  51 2.67  14 2.79   4 2.83
                            18 2.83  32 2.85  54 2.87   8 2.98
  28  0.750  0.250  0.417-  20 2.64  32 2.64  64 2.64  36 2.64   8 2.65  24 2.65  31 2.85  19 2.85
                            23 2.86
  29  0.750  1.000  0.056-  57 2.64   1 2.64  25 2.65  17 2.65  53 2.65   5 2.65  54 2.83  18 2.86
                            58 2.86
  30  0.583  0.167  0.177-  38 2.64  22 2.64  26 2.64   2 2.64  18 2.66  58 2.66  19 2.83  11 2.83
                            23 2.83  21 2.86  17 2.86  25 2.86
  31  0.918  0.333  0.296-  27 2.62  39 2.64  23 2.64  59 2.64   3 2.65  19 2.67  10 2.79  36 2.83
                            18 2.83  28 2.85  22 2.87   8 2.98
  32  0.750  0.000  0.417-  20 2.64  28 2.64  60 2.64   4 2.64  56 2.65   8 2.65  51 2.85  27 2.85
                            23 2.86
  33  0.001  0.500  0.056-  41 2.63   5 2.64  25 2.64  45 2.64  37 2.64  61 2.65  46 2.82  22 2.84
                            10 2.92
  34  0.334  0.665  0.180-  62 2.61  10 2.62   6 2.63  46 2.64  58 2.64  38 2.67  47 2.79  39 2.81
                            45 2.90  53 2.90  41 2.92  43 3.03
  35  0.168  0.834  0.292-  11 2.64  47 2.64  59 2.66  63 2.66   7 2.67  39 2.67  38 2.79  46 2.81
                            42 2.81  40 2.82  16 2.90  44 2.91
  36  0.000  0.499  0.416-   8 2.64  28 2.64  44 2.64  40 2.65  64 2.65  48 2.65  39 2.80  31 2.83
                            59 2.90
  37  1.000  0.750  0.056-   1 2.64  13 2.64  57 2.64  41 2.64  33 2.64  61 2.64  42 2.83  50 2.83
                            46 2.83
  38  0.334  0.917  0.175-  30 2.64  58 2.64  46 2.64  42 2.64  34 2.67   2 2.67  35 2.79  17 2.83
                            41 2.84  13 2.84  11 2.87  47 2.87
  39  0.168  0.582  0.298-   3 2.63  43 2.63  47 2.64  31 2.64  35 2.67  59 2.67  36 2.80  44 2.80
                            34 2.81  10 2.81  46 2.91  48 3.10
  40  1.000  0.750  0.410-  44 2.65  36 2.65  64 2.65  60 2.65   4 2.65  16 2.65  59 2.82  35 2.82
                            63 2.82
  41  0.250  0.749  0.056-  33 2.63  53 2.64  17 2.64  45 2.64  37 2.64  13 2.65  46 2.82  38 2.84
                            34 2.92
  42  0.084  0.918  0.175-   2 2.64  14 2.64  38 2.64  54 2.64  50 2.67  46 2.67  63 2.81  35 2.81
                            13 2.82   1 2.82  37 2.83   7 2.91
  43  0.416  0.582  0.311-   3 2.63  15 2.63  39 2.63  55 2.63  47 2.65  51 2.65  56 2.74   6 2.80
                            52 2.90  48 2.90  62 3.03  34 3.03
  44  0.251  0.750  0.416-  56 2.64  20 2.64  36 2.64  40 2.65  16 2.65  48 2.65  39 2.80  47 2.83
                            35 2.91
  45  0.251  0.499  0.056-  49 2.62   9 2.62  53 2.63   5 2.63  41 2.64  33 2.64  10 2.90  34 2.90
                             6 3.14
  46  0.084  0.666  0.175-  34 2.64  10 2.64  38 2.64  22 2.64  42 2.67  50 2.67  35 2.81  59 2.81
                            41 2.82  33 2.82  37 2.83  39 2.91
  47  0.417  0.832  0.296-  51 2.62  39 2.64  23 2.64  35 2.64  43 2.65  11 2.67  34 2.79  44 2.83
                            58 2.83  20 2.85  38 2.87  56 2.98
  48  0.249  0.500  0.434-   8 2.64  56 2.64  36 2.65  44 2.65  12 2.66  52 2.66  43 2.90   3 2.90
                            39 3.10
  49  0.499  0.499  0.056-  45 2.62   9 2.62  21 2.63  53 2.63  61 2.64  57 2.64  26 2.90  62 2.90
                             6 3.14
  50  0.832  0.666  0.175-  62 2.64  26 2.64  54 2.64  22 2.64  42 2.67  46 2.67  63 2.81  59 2.81
                            61 2.82  57 2.82  37 2.83  55 2.91
  51  0.665  0.832  0.296-  47 2.62  55 2.64  23 2.64  63 2.64  43 2.65  27 2.67  62 2.79  60 2.83
                            58 2.83  32 2.85  54 2.87  56 2.98
  52  0.501  0.500  0.434-  24 2.64  56 2.64  60 2.65  64 2.65  12 2.66  48 2.66  43 2.90  15 2.90
                            55 3.10
  53  0.499  0.749  0.056-  49 2.63  45 2.63  41 2.64  57 2.64  17 2.65  29 2.65  58 2.86  34 2.90
                            62 2.90
  54  0.833  0.917  0.175-  58 2.64  18 2.64  50 2.64  42 2.64  62 2.67  14 2.67  63 2.79  29 2.83
                            57 2.84   1 2.84  27 2.87  51 2.87
  55  0.664  0.582  0.298-  15 2.63  43 2.63  51 2.64  19 2.64  63 2.67  59 2.67  64 2.80  60 2.80
                            26 2.81  62 2.81  50 2.91  52 3.10
  56  0.500  0.749  0.425-  60 2.64  44 2.64  52 2.64  48 2.64  20 2.65  32 2.65  43 2.74  51 2.98
                            47 2.98
  57  0.749  0.749  0.056-  61 2.63  53 2.64  29 2.64  49 2.64  37 2.64   1 2.65  50 2.82  54 2.84
                            62 2.92
  58  0.583  0.916  0.177-  54 2.64  38 2.64  62 2.64  34 2.64  18 2.66  30 2.66  47 2.83  51 2.83
                            23 2.83  53 2.86  29 2.86  17 2.86
  59  0.916  0.582  0.292-  31 2.64  19 2.64  35 2.66  63 2.66  55 2.67  39 2.67  22 2.79  46 2.81
                            50 2.81  40 2.82  64 2.90  36 2.90
  60  0.749  0.750  0.416-  56 2.64  32 2.64  64 2.64  40 2.65   4 2.65  52 2.65  55 2.80  51 2.83
                            63 2.91
  61  0.749  0.500  0.056-  57 2.63  21 2.64  25 2.64  49 2.64  37 2.64  33 2.65  50 2.82  22 2.84
                            26 2.92
  62  0.581  0.665  0.180-  34 2.61  26 2.62   6 2.63  50 2.64  58 2.64  54 2.67  51 2.79  55 2.81
                            49 2.90  53 2.90  57 2.92  43 3.03
  63  0.916  0.834  0.292-  27 2.64  51 2.64  59 2.66  35 2.66   7 2.67  55 2.67  54 2.79  50 2.81
                            42 2.81  40 2.82   4 2.90  60 2.91
  64  0.749  0.499  0.416-  24 2.64  28 2.64  60 2.64  40 2.65  36 2.65  52 2.65  55 2.80  19 2.83
                            59 2.90
 
  LATTYP: Found a hexagonal cell.
 ALAT       =    10.5600004196
 C/A-ratio  =     1.8939393187
  
  Lattice vectors:
  
 A1 = (  10.5600004196,   0.0000000000,   0.0000000000)
 A2 = (  -5.2800002098,   9.1452286274,   0.0000000000)
 A3 = (   0.0000000000,   0.0000000000,  20.0000000000)


Analysis of symmetry for initial positions (statically):
=====================================================================
 Subroutine PRICEL returns:
 Original cell was already a primitive cell.
 

 Routine SETGRP: Setting up the symmetry group for a 
 hexagonal supercell.


 Subroutine GETGRP returns: Found  1 space group operations
 (whereof  1 operations were pure point group operations)
 out of a pool of 24 trial point group operations.


The static configuration has the point symmetry C_1 .


Analysis of symmetry for dynamics (positions and initial velocities):
=====================================================================
 Subroutine PRICEL returns:
 Original cell was already a primitive cell.
 

 Routine SETGRP: Setting up the symmetry group for a 
 hexagonal supercell.


 Subroutine GETGRP returns: Found  1 space group operations
 (whereof  1 operations were pure point group operations)
 out of a pool of 24 trial point group operations.


The dynamic configuration has the point symmetry C_1 .


Analysis of constrained symmetry for selective dynamics:
=====================================================================
 Subroutine PRICEL returns:
 Original cell was already a primitive cell.
 

 Routine SETGRP: Setting up the symmetry group for a 
 hexagonal supercell.


 Subroutine GETGRP returns: Found  1 space group operations
 (whereof  1 operations were pure point group operations)
 out of a pool of 24 trial point group operations.


The constrained configuration has the point symmetry C_1 .


Analysis of structural, dynamic, and magnetic symmetry:
=====================================================================
 Subroutine PRICEL returns:
 Original cell was already a primitive cell.
 

 Routine SETGRP: Setting up the symmetry group for a 
 hexagonal supercell.


 Subroutine GETGRP returns: Found  1 space group operations
 (whereof  1 operations were pure point group operations)
 out of a pool of 24 trial point group operations.


The magnetic configuration has the point symmetry C_1 .


 Subroutine INISYM returns: Found  1 space group operations
 (whereof  1 operations are pure point group operations),
 and found     1 'primitive' translations

 
 
 KPOINTS: mesh auto                               

Automatic generation of k-mesh.
Space group operators:
 irot       det(A)        alpha          n_x          n_y          n_z        tau_x        tau_y        tau_z
    1     1.000000     0.000000     1.000000     0.000000     0.000000     0.000000     0.000000     0.000000
 
 Subroutine IBZKPT returns following result:
 ===========================================
 
 Found      4 irreducible k-points:
 
 Following reciprocal coordinates:
            Coordinates               Weight
  0.000000  0.000000  0.000000      1.000000
  0.500000 -0.000000  0.000000      1.000000
  0.000000  0.500000  0.000000      1.000000
  0.500000  0.500000  0.000000      1.000000
 
 Following cartesian coordinates:
            Coordinates               Weight
  0.000000  0.000000  0.000000      1.000000
  0.047348  0.027337  0.000000      1.000000
  0.000000  0.054673  0.000000      1.000000
  0.047348  0.082010  0.000000      1.000000
 


--------------------------------------------------------------------------------------------------------




 Dimension of arrays:
   k-points           NKPTS =      4   k-points in BZ     NKDIM =      4   number of bands    NBANDS=    420
   number of dos      NEDOS =    301   number of ions     NIONS =     64
   non local maximal  LDIM  =      6   non local SUM 2l+1 LMDIM =     18
   total plane-waves  NPLWV = ******
   max r-space proj   IRMAX =   8171   max aug-charges    IRDMAX=  35597
   dimension x,y,z NGX =    84 NGY =   84 NGZ =  160
   dimension x,y,z NGXF=   168 NGYF=  168 NGZF=  320
   support grid    NGXF=   168 NGYF=  168 NGZF=  320
   ions per type =              64
   NGX,Y,Z   is equivalent  to a cutoff of  13.22, 13.22, 13.30 a.u.
   NGXF,Y,Z  is equivalent  to a cutoff of  26.45, 26.45, 26.60 a.u.

 SYSTEM =  Pt111                                   
 POSCAR =  Pt111\(1\1\1)\(2)                       

 Startparameter for this run:
   NWRITE =      2    write-flag & timer
   PREC   = accura    normal or accurate (medium, high low for compatibility)
   ISTART =      0    job   : 0-new  1-cont  2-samecut
   ICHARG =      2    charge: 1-file 2-atom 10-const
   ISPIN  =      2    spin polarized calculation?
   LNONCOLLINEAR =      F non collinear calculations
   LSORBIT =      F    spin-orbit coupling
   INIWAV =      1    electr: 0-lowe 1-rand  2-diag
   LASPH  =      F    aspherical Exc in radial PAW
   METAGGA=      F    non-selfconsistent MetaGGA calc.

 Electronic Relaxation 1
   ENCUT  =  550.0 eV  40.42 Ry    6.36 a.u.  20.19 20.19 38.24*2*pi/ulx,y,z
   ENINI  =  550.0     initial cutoff
   ENAUG  =  359.0 eV  augmentation charge cutoff
   NELM   =    200;   NELMIN=  2; NELMDL= -5     # of ELM steps 
   EDIFF  = 0.1E-05   stopping-criterion for ELM
   LREAL  =      T    real-space projection
   NLSPLINE    = F    spline interpolate recip. space projectors
   LCOMPAT=      F    compatible to vasp.4.4
   GGA_COMPAT  = T    GGA compatible to vasp.4.4-vasp.4.6
   LMAXPAW     = -100 max onsite density
   LMAXMIX     =    2 max onsite mixed and CHGCAR
   VOSKOWN=      0    Vosko Wilk Nusair interpolation
   ROPT   =   -0.00025
 Ionic relaxation
   EDIFFG = -.2E-01   stopping-criterion for IOM
   NSW    =    300    number of steps for IOM
   NBLOCK =      1;   KBLOCK =    300    inner block; outer block 
   IBRION =      2    ionic relax: 0-MD 1-quasi-New 2-CG
   NFREE  =      1    steps in history (QN), initial steepest desc. (CG)
   ISIF   =      2    stress and relaxation
   IWAVPR =     11    prediction:  0-non 1-charg 2-wave 3-comb
   ISYM   =      2    0-nonsym 1-usesym 2-fastsym
   LCORR  =      T    Harris-Foulkes like correction to forces

   POTIM  = 0.5000    time-step for ionic-motion
   TEIN   =    0.0    initial temperature
   TEBEG  =    0.0;   TEEND  =   0.0 temperature during run
   SMASS  =  -3.00    Nose mass-parameter (am)
   estimated Nose-frequenzy (Omega)   =  0.10E-29 period in steps =****** mass=  -0.255E-26a.u.
   SCALEE = 1.0000    scale energy and forces
   NPACO  =    256;   APACO  = 16.0  distance and # of slots for P.C.
   PSTRESS=    0.0 pullay stress

  Mass of Ions in am
   POMASS = 195.08
  Ionic Valenz
   ZVAL   =  10.00
  Atomic Wigner-Seitz radii
   RWIGS  =  -1.00
  virtual crystal weights 
   VCA    =   1.00
   NELECT =     640.0000    total number of electrons
   NUPDOWN=      -1.0000    fix difference up-down

 DOS related values:
   EMIN   =  10.00;   EMAX   =-10.00  energy-range for DOS
   EFERMI =   0.00
   ISMEAR =     1;   SIGMA  =   0.10  broadening in eV -4-tet -1-fermi 0-gaus

 Electronic relaxation 2 (details)
   IALGO  =     68    algorithm
   LDIAG  =      T    sub-space diagonalisation (order eigenvalues)
   LSUBROT=      F    optimize rotation matrix (better conditioning)
   TURBO    =      0    0=normal 1=particle mesh
   IRESTART =      0    0=no restart 2=restart with 2 vectors
   NREBOOT  =      0    no. of reboots
   NMIN     =      0    reboot dimension
   EREF     =   0.00    reference energy to select bands
   IMIX   =      4    mixing-type and parameters
     AMIX     =   0.40;   BMIX     =  1.00
     AMIX_MAG =   1.60;   BMIX_MAG =  1.00
     AMIN     =   0.10
     WC   =   100.;   INIMIX=   1;  MIXPRE=   1;  MAXMIX= -45

 Intra band minimization:
   WEIMIN = 0.0010     energy-eigenvalue tresh-hold
   EBREAK =  0.60E-09  absolut break condition
   DEPER  =   0.30     relativ break condition  

   TIME   =   0.40     timestep for ELM

  volume/ion in A,a.u.               =      30.18       203.66
  Fermi-wavevector in a.u.,A,eV,Ry     =   1.132849  2.140774 17.460991  1.283347
  Thomas-Fermi vector in A             =   2.269551
 
 Write flags
   LWAVE        =      F    write WAVECAR
   LDOWNSAMPLE  =      F    k-point downsampling of WAVECAR
   LCHARG       =      F    write CHGCAR
   LVTOT        =      F    write LOCPOT, total local potential
   LVHAR        =      F    write LOCPOT, Hartree potential only
   LELF         =      F    write electronic localiz. function (ELF)
   LORBIT       =      0    0 simple, 1 ext, 2 COOP (PROOUT), +10 PAW based schemes


 Dipole corrections
   LMONO  =      F    monopole corrections only (constant potential shift)
   LDIPOL =      F    correct potential (dipole corrections)
   IDIPOL =      0    1-x, 2-y, 3-z, 4-all directions 
   EPSILON=  1.0000000 bulk dielectric constant

 Exchange correlation treatment:
   GGA     =    --    GGA type
   LEXCH   =     8    internal setting for exchange type
   VOSKOWN=      0    Vosko Wilk Nusair interpolation
   LHFCALC =     F    Hartree Fock is set to
   LHFONE  =     F    Hartree Fock one center treatment
   AEXX    =    0.0000 exact exchange contribution

 Linear response parameters
   LEPSILON=     F    determine dielectric tensor
   LRPA    =     F    only Hartree local field effects (RPA)
   LNABLA  =     F    use nabla operator in PAW spheres
   LVEL    =     F    velocity operator in full k-point grid
   LINTERFAST=   F  fast interpolation
   KINTER  =     0    interpolate to denser k-point grid
   CSHIFT  =0.1000    complex shift for real part using Kramers Kronig
   OMEGAMAX=  -1.0    maximum frequency
   DEG_THRESHOLD= 0.2000000E-02 threshold for treating states as degnerate
   RTIME   =   -0.100 relaxation time in fs
  (WPLASMAI=    0.000 imaginary part of plasma frequency in eV, 0.658/RTIME)
   DFIELD  = 0.0000000 0.0000000 0.0000000 field for delta impulse in time
 
 Orbital magnetization related:
   ORBITALMAG=     F  switch on orbital magnetization
   LCHIMAG   =     F  perturbation theory with respect to B field
   DQ        =  0.001000  dq finite difference perturbation B field
   LLRAUG    =     F  two centre corrections for induced B field



--------------------------------------------------------------------------------------------------------


 conjugate gradient relaxation of ions
   using selective dynamics as specified on POSCAR
 charge density and potential will be updated during run
 spin polarized calculation
 RMM-DIIS sequential band-by-band and
  variant of blocked Davidson during initial phase
 perform sub-space diagonalisation
    before iterative eigenvector-optimisation
 modified Broyden-mixing scheme, WC =      100.0
 initial mixing is a Kerker type mixing with AMIX =  0.4000 and BMIX =      1.0000
 Hartree-type preconditioning will be used
 using additional bands          100
 real space projection scheme for non local part
 use partial core corrections
 calculate Harris-corrections to forces 
   (improved forces if not selfconsistent)
 use gradient corrections 
 use of overlap-Matrix (Vanderbilt PP)
 Methfessel and Paxton  Order N= 1 SIGMA  =   0.10


--------------------------------------------------------------------------------------------------------


  energy-cutoff  :      550.00
  volume of cell :     1931.47
      direct lattice vectors                 reciprocal lattice vectors
    10.560000420  0.000000000  0.000000000     0.094696966  0.054673319  0.000000000
    -5.280000210  9.145228627  0.000000000     0.000000000  0.109346638  0.000000000
     0.000000000  0.000000000 20.000000000     0.000000000  0.000000000  0.050000000

  length of vectors
    10.560000420 10.560000420 20.000000000     0.109346638  0.109346638  0.050000000


 
 k-points in units of 2pi/SCALE and weight: mesh auto                               
   0.00000000  0.00000000  0.00000000       0.250
   0.04734848  0.02733666  0.00000000       0.250
   0.00000000  0.05467332  0.00000000       0.250
   0.04734848  0.08200998  0.00000000       0.250
 
 k-points in reciprocal lattice and weights: mesh auto                               
   0.00000000  0.00000000  0.00000000       0.250
   0.50000000 -0.00000000  0.00000000       0.250
   0.00000000  0.50000000  0.00000000       0.250
   0.50000000  0.50000000  0.00000000       0.250
 
 position of ions in fractional coordinates (direct lattice) 
   0.00065812  0.00069114  0.05579229
   0.33351008  0.16899080  0.17966500
   0.16746233  0.33368174  0.31110596
   0.00018454  0.00067319  0.41556752
   0.00126237  0.25063326  0.05579229
   0.33333250  0.41666493  0.19344826
   0.16814967  0.08626830  0.29829179
   0.00077848  0.25031421  0.42485328
   0.25053021  0.25106696  0.05579229
   0.08547954  0.41647590  0.17963794
   0.41733555  0.08487265  0.29628350
   0.24947315  0.24889997  0.43438152
   0.25002921  0.00069370  0.05579229
   0.08547883  0.16899215  0.17966173
   0.41625415  0.33368095  0.31110824
   0.25054117  0.00067201  0.41556744
   0.49956129  0.99978412  0.05579229
   0.83434034  0.16716373  0.17659173
   0.66505547  0.33260317  0.29626476
   0.50022638  0.00002460  0.41663866
   0.49936276  0.25063384  0.05579229
   0.83305069  0.41610407  0.17508683
   0.66665517  0.08327297  0.29572088
   0.49958939  0.25031513  0.42485247
   0.75021612  0.25043913  0.05579229
   0.58099714  0.41647846  0.17964253
   0.91756819  0.08487108  0.29628512
   0.74986857  0.24967564  0.41661364
   0.75021648  0.99978492  0.05579229
   0.58282210  0.16716545  0.17659142
   0.91758199  0.33260416  0.29626547
   0.74986021  0.00002189  0.41665916
   0.00065684  0.49997281  0.05579229
   0.33352226  0.66452367  0.17965675
   0.16796935  0.83393379  0.29193879
   0.00017917  0.49937737  0.41554919
   0.99999935  0.75000533  0.05579229
   0.33388960  0.91694018  0.17509786
   0.16816196  0.58177899  0.29827389
   0.99998301  0.74991681  0.41022892
   0.25003034  0.74934624  0.05579229
   0.08413413  0.91826956  0.17461793
   0.41624844  0.58246453  0.31113681
   0.25051831  0.74971745  0.41556538
   0.25053340  0.49947079  0.05579229
   0.08413942  0.66586440  0.17461408
   0.41733133  0.83234291  0.29629821
   0.24946451  0.50041665  0.43439210
   0.49893133  0.49947104  0.05579229
   0.83172495  0.66586537  0.17461518
   0.66504691  0.83234786  0.29630614
   0.50099680  0.50041731  0.43438731
   0.49936825  0.74874283  0.05579229
   0.83304704  0.91693903  0.17510010
   0.66365541  0.58178003  0.29827984
   0.49958036  0.74911688  0.42489909
   0.74930990  0.74934602  0.05579229
   0.58282358  0.91564565  0.17661143
   0.91600419  0.58197258  0.29192936
   0.74924015  0.74971356  0.41557224
   0.74930799  0.49997208  0.05579229
   0.58100498  0.66452537  0.17966320
   0.91599532  0.83393403  0.29194160
   0.74924959  0.49937230  0.41555082
 
 position of ions in cartesian coordinates  (Angst):
   0.00330055  0.00632060  1.11584590
   2.62959513  1.54545950  3.59329999
   0.00656263  3.05159578  6.22211914
  -0.00160567  0.00615648  8.31135049
  -1.31001308  2.29209848  1.11584590
   1.32000039  3.81049609  3.86896524
   1.32016395  0.78894335  5.96583586
  -1.31343837  2.28918069  8.49706550
   1.31996552  2.29606470  1.11584590
  -1.29632884  3.80876737  3.59275885
   3.95893597  0.77617977  5.92567001
   1.32024473  2.27624711  8.68763045
   2.63664584  0.00634408  1.11584590
   0.01037789  1.54547183  3.59323459
   2.63380849  3.05158861  6.22216486
   2.64216666  0.00614566  8.31134888
  -0.00349294  9.14325434  1.11584590
   7.92800979  1.52875053  3.53183467
   5.26684120  3.04173200  5.92529526
   5.28226091  0.00022501  8.33277313
   3.94992423  2.29210377  1.11584590
   6.59998613  3.80536682  3.50173658
   6.60019753  0.76155039  5.91441765
   3.95400023  2.28918906  8.49704936
   6.59996384  2.29032313  1.11584590
   3.93632369  3.80879069  3.59285066
   9.24140119  0.77616543  5.92570249
   6.60032504  2.28334080  8.33227270
   2.64342169  9.14326170  1.11584590
   5.27196805  1.52876625  3.53182837
   7.93351620  3.04174106  5.92530948
   7.91840853  0.00020023  8.33318319
  -2.63292038  4.57236569  1.11584590
   0.01331013  6.07722091  3.59313501
  -2.62941421  7.62651517  5.83877577
  -2.63482057  4.56692025  8.31098372
   6.59996528  6.85897017  1.11584590
  -1.31556998  8.38562759  3.50195711
  -1.29600283  5.32050183  5.96547774
   6.60026014  6.85816067  8.20457839
  -1.31622778  6.85294266  1.11584590
  -3.96000703  8.39778502  3.49235850
   1.32017082  5.32677132  6.22273611
  -1.31303482  6.85633744  8.31130757
   0.00842687  4.56777460  1.11584590
  -2.62725183  6.08948219  3.49228153
   0.01224825  7.61196624  5.92596417
  -0.00785469  4.57642466  8.68784199
   2.63150789  4.56777684  1.11584590
   5.26724656  6.08949101  3.49230356
   2.62809882  7.61201145  5.92612281
   2.64832293  4.57643070  8.68774629
   1.31996663  6.84742435  1.11584590
   3.95553886  8.38561704  3.50200204
   3.93640274  5.32051135  5.96559676
   1.32023157  6.85084513  8.49798184
   3.95616566  6.85294072  1.11584590
   1.32000795  8.37378885  3.53222864
   6.60018931  5.32227226  5.83858722
   3.95348854  6.85630189  8.31144481
   5.27284007  4.57235895  1.11584590
   2.62671875  6.07723640  3.59326406
   5.26973907  7.62651736  5.83883197
   5.27539016  4.56687384  8.31101643
 


--------------------------------------------------------------------------------------------------------


 k-point  1 :   0.0000 0.0000 0.0000  plane waves:   56579
 k-point  2 :   0.5000-0.0000 0.0000  plane waves:   56606
 k-point  3 :   0.0000 0.5000 0.0000  plane waves:   56606
 k-point  4 :   0.5000 0.5000 0.0000  plane waves:   56606

 maximum and minimum number of plane-waves per node :     14185    14108

 maximum number of plane-waves:     56606
 maximum index in each direction: 
   IXMAX=   20   IYMAX=   20   IZMAX=   38
   IXMIN=  -20   IYMIN=  -20   IZMIN=  -38


 real space projection operators:
  total allocation   :      71060.48 KBytes
  max/ min on nodes  :      17773.59      17757.28


 parallel 3D FFT for wavefunctions:
    minimum data exchange during FFTs selected (reduces bandwidth)
 parallel 3D FFT for charge:
    minimum data exchange during FFTs selected (reduces bandwidth)


 total amount of memory used by VASP MPI-rank0   198174. kBytes
=======================================================================

   base      :      30000. kBytes
   nonlr-proj:      30765. kBytes
   fftplans  :      17093. kBytes
   grid      :      42083. kBytes
   one-center:        497. kBytes
   wavefun   :      77736. kBytes
 
     INWAV:  cpu time    0.0000: real time    0.0000
 Broyden mixing: mesh for mixing (old mesh)
   NGX = 41   NGY = 41   NGZ = 77
  (NGX  =168   NGY  =168   NGZ  =320)
  gives a total of 129437 points

 initial charge density was supplied:
 charge density of overlapping atoms calculated
 number of electron     640.0000000 magnetization      64.0000000
 keeping initial charge density in first step


--------------------------------------------------------------------------------------------------------


 Maximum index for non-local projection operator         2015
 Maximum index for augmentation-charges         2177 (set IRDMAX)


--------------------------------------------------------------------------------------------------------


 First call to EWALD:  gamma=   0.142
 Maximum number of real-space cells 4x 4x 2
 Maximum number of reciprocal cells 2x 2x 4

    FEWALD:  cpu time    0.0027: real time    0.0027


--------------------------------------- Iteration      1(   1)  ---------------------------------------


    POTLOK:  cpu time    0.3556: real time    0.4322
    SETDIJ:  cpu time    0.0326: real time    0.0331
     EDDAV:  cpu time   40.2160: real time   40.3988
       DOS:  cpu time    0.0019: real time    0.0041
    --------------------------------------------
      LOOP:  cpu time   40.6062: real time   40.8682

 eigenvalue-minimisations  :  6720
 total energy-change (2. order) : 0.4492099E+04  (-0.3112788E+05)
 number of electron     640.0000000 magnetization      64.0000000
 augmentation part      640.0000000 magnetization      64.0000000

 Free energy of the ion-electron system (eV)
  ---------------------------------------------------
  alpha Z        PSCENC =      2015.86452450
  Ewald energy   TEWEN  =    124527.92901031
  -Hartree energ DENC   =   -175594.45900248
  -exchange      EXHF   =         0.00000000
  -V(xc)+E(xc)   XCENC  =       241.24423927
  PAW double counting   =     44546.96166755   -42737.10153268
  entropy T*S    EENTRO =        -0.00663690
  eigenvalues    EBANDS =      4828.27165213
  atomic energy  EATOM  =     46663.39518770
  Solvation  Ediel_sol  =         0.00000000
  ---------------------------------------------------
  free energy    TOTEN  =      4492.09910940 eV

  energy without entropy =     4492.10574630  energy(sigma->0) =     4492.10132170


--------------------------------------------------------------------------------------------------------




--------------------------------------- Iteration      1(   2)  ---------------------------------------


     EDDAV:  cpu time   44.1289: real time   44.2351
       DOS:  cpu time    0.0016: real time    0.0016
    --------------------------------------------
      LOOP:  cpu time   44.1305: real time   44.2367

 eigenvalue-minimisations  :  7520
 total energy-change (2. order) :-0.4626353E+04  (-0.4239165E+04)
 number of electron     640.0000000 magnetization      64.0000000
 augmentation part      640.0000000 magnetization      64.0000000

 Free energy of the ion-electron system (eV)
  ---------------------------------------------------
  alpha Z        PSCENC =      2015.86452450
  Ewald energy   TEWEN  =    124527.92901031
  -Hartree energ DENC   =   -175594.45900248
  -exchange      EXHF   =         0.00000000
  -V(xc)+E(xc)   XCENC  =       241.24423927
  PAW double counting   =     44546.96166755   -42737.10153268
  entropy T*S    EENTRO =        -0.00373456
  eigenvalues    EBANDS =       201.91562495
  atomic energy  EATOM  =     46663.39518770
  Solvation  Ediel_sol  =         0.00000000
  ---------------------------------------------------
  free energy    TOTEN  =      -134.25401546 eV

  energy without entropy =     -134.25028089  energy(sigma->0) =     -134.25277060


--------------------------------------------------------------------------------------------------------




--------------------------------------- Iteration      1(   3)  ---------------------------------------


     EDDAV:  cpu time   44.8122: real time   44.9187
       DOS:  cpu time    0.0017: real time    0.0017
    --------------------------------------------
      LOOP:  cpu time   44.8138: real time   44.9204

 eigenvalue-minimisations  :  7640
 total energy-change (2. order) :-0.2458072E+03  (-0.2274309E+03)
 number of electron     640.0000000 magnetization      64.0000000
 augmentation part      640.0000000 magnetization      64.0000000

 Free energy of the ion-electron system (eV)
  ---------------------------------------------------
  alpha Z        PSCENC =      2015.86452450
  Ewald energy   TEWEN  =    124527.92901031
  -Hartree energ DENC   =   -175594.45900248
  -exchange      EXHF   =         0.00000000
  -V(xc)+E(xc)   XCENC  =       241.24423927
  PAW double counting   =     44546.96166755   -42737.10153268
  entropy T*S    EENTRO =        -0.02706902
  eigenvalues    EBANDS =       -43.86827637
  atomic energy  EATOM  =     46663.39518770
  Solvation  Ediel_sol  =         0.00000000
  ---------------------------------------------------
  free energy    TOTEN  =      -380.06125123 eV

  energy without entropy =     -380.03418221  energy(sigma->0) =     -380.05222822


--------------------------------------------------------------------------------------------------------




--------------------------------------- Iteration      1(   4)  ---------------------------------------


     EDDAV:  cpu time   46.2055: real time   46.3174
       DOS:  cpu time    0.0016: real time    0.0016
    --------------------------------------------
      LOOP:  cpu time   46.2071: real time   46.3190

 eigenvalue-minimisations  :  7930
 total energy-change (2. order) :-0.6386363E+01  (-0.6323539E+01)
 number of electron     640.0000000 magnetization      64.0000000
 augmentation part      640.0000000 magnetization      64.0000000

 Free energy of the ion-electron system (eV)
  ---------------------------------------------------
  alpha Z        PSCENC =      2015.86452450
  Ewald energy   TEWEN  =    124527.92901031
  -Hartree energ DENC   =   -175594.45900248
  -exchange      EXHF   =         0.00000000
  -V(xc)+E(xc)   XCENC  =       241.24423927
  PAW double counting   =     44546.96166755   -42737.10153268
  entropy T*S    EENTRO =        -0.03194897
  eigenvalues    EBANDS =       -50.24975913
  atomic energy  EATOM  =     46663.39518770
  Solvation  Ediel_sol  =         0.00000000
  ---------------------------------------------------
  free energy    TOTEN  =      -386.44761394 eV

  energy without entropy =     -386.41566497  energy(sigma->0) =     -386.43696428


--------------------------------------------------------------------------------------------------------




--------------------------------------- Iteration      1(   5)  ---------------------------------------


     EDDAV:  cpu time   45.7407: real time   45.8493
       DOS:  cpu time    0.0017: real time    0.0017
    CHARGE:  cpu time    3.0231: real time    3.0305
    MIXING:  cpu time    0.0083: real time    0.0089
    --------------------------------------------
      LOOP:  cpu time   48.7739: real time   48.8905

 eigenvalue-minimisations  :  7810
 total energy-change (2. order) :-0.2163253E+00  (-0.2157608E+00)
 number of electron     640.0000065 magnetization      57.8983741
 augmentation part      185.6321545 magnetization      46.2555075

 Broyden mixing:
  rms(total) = 0.10427E+02    rms(broyden)= 0.10427E+02
  rms(prec ) = 0.10534E+02
  weight for this iteration     100.00

 Free energy of the ion-electron system (eV)
  ---------------------------------------------------
  alpha Z        PSCENC =      2015.86452450
  Ewald energy   TEWEN  =    124527.92901031
  -Hartree energ DENC   =   -175594.45900248
  -exchange      EXHF   =         0.00000000
  -V(xc)+E(xc)   XCENC  =       241.24423927
  PAW double counting   =     44546.96166755   -42737.10153268
  entropy T*S    EENTRO =        -0.03279050
  eigenvalues    EBANDS =       -50.46524287
  atomic energy  EATOM  =     46663.39518770
  Solvation  Ediel_sol  =         0.00000000
  ---------------------------------------------------
  free energy    TOTEN  =      -386.66393921 eV

  energy without entropy =     -386.63114871  energy(sigma->0) =     -386.65300904


--------------------------------------------------------------------------------------------------------




--------------------------------------- Iteration      1(   6)  ---------------------------------------


    POTLOK:  cpu time    0.3651: real time    0.3660
    SETDIJ:  cpu time    0.0322: real time    0.0323
    EDDIAG:  cpu time    7.1882: real time    7.2057
  RMM-DIIS:  cpu time   26.2020: real time   26.2768
    ORTHCH:  cpu time    0.6622: real time    0.6640
       DOS:  cpu time    0.0017: real time    0.0017
    CHARGE:  cpu time    2.9538: real time    2.9621
    MIXING:  cpu time    0.0099: real time    0.0101
    --------------------------------------------
      LOOP:  cpu time   37.4151: real time   37.5187

 eigenvalue-minimisations  :  6753
 total energy-change (2. order) : 0.2584584E+02  (-0.5931502E+01)
 number of electron     640.0000065 magnetization      50.7661495
 augmentation part      195.1291270 magnetization      37.9869927

 Broyden mixing:
  rms(total) = 0.68396E+01    rms(broyden)= 0.68396E+01
  rms(prec ) = 0.71768E+01
  weight for this iteration     100.00

 eigenvalues of (default mixing * dielectric matrix)
  average eigenvalue GAMMA=   1.2359
  1.2359

 Free energy of the ion-electron system (eV)
  ---------------------------------------------------
  alpha Z        PSCENC =      2015.86452450
  Ewald energy   TEWEN  =    124527.92901031
  -Hartree energ DENC   =   -174909.70755245
  -exchange      EXHF   =         0.00000000
  -V(xc)+E(xc)   XCENC  =       229.63680700
  PAW double counting   =     50796.48036745   -49093.76271384
  entropy T*S    EENTRO =        -0.03947828
  eigenvalues    EBANDS =      -590.61424682
  atomic energy  EATOM  =     46663.39518770
  Solvation  Ediel_sol  =         0.00000000
  ---------------------------------------------------
  free energy    TOTEN  =      -360.81809442 eV

  energy without entropy =     -360.77861615  energy(sigma->0) =     -360.80493500


--------------------------------------------------------------------------------------------------------




--------------------------------------- Iteration      1(   7)  ---------------------------------------


    POTLOK:  cpu time    0.3657: real time    0.3668
    SETDIJ:  cpu time    0.0322: real time    0.0323
    EDDIAG:  cpu time    7.2395: real time    7.2605
  RMM-DIIS:  cpu time   25.6790: real time   25.7489
    ORTHCH:  cpu time    0.6631: real time    0.6647
       DOS:  cpu time    0.0017: real time    0.0017
    CHARGE:  cpu time    3.0139: real time    3.0211
    MIXING:  cpu time    0.0102: real time    0.0102
    --------------------------------------------
      LOOP:  cpu time   37.0053: real time   37.1062

 eigenvalue-minimisations  :  6720
 total energy-change (2. order) :-0.1110112E+03  (-0.1342495E+02)
 number of electron     640.0000078 magnetization      44.9456074
 augmentation part      192.5180551 magnetization      33.3665540

 Broyden mixing:
  rms(total) = 0.97840E+01    rms(broyden)= 0.97840E+01
  rms(prec ) = 0.12072E+02
  weight for this iteration     100.00

 eigenvalues of (default mixing * dielectric matrix)
  average eigenvalue GAMMA=   1.0321
  1.7464  0.3177

 Free energy of the ion-electron system (eV)
  ---------------------------------------------------
  alpha Z        PSCENC =      2015.86452450
  Ewald energy   TEWEN  =    124527.92901031
  -Hartree energ DENC   =   -175456.10288851
  -exchange      EXHF   =         0.00000000
  -V(xc)+E(xc)   XCENC  =       224.84538160
  PAW double counting   =     56040.77407810   -54396.41079136
  entropy T*S    EENTRO =        -0.01434031
  eigenvalues    EBANDS =       -92.10948271
  atomic energy  EATOM  =     46663.39518770
  Solvation  Ediel_sol  =         0.00000000
  ---------------------------------------------------
  free energy    TOTEN  =      -471.82932068 eV

  energy without entropy =     -471.81498037  energy(sigma->0) =     -471.82454058


--------------------------------------------------------------------------------------------------------




--------------------------------------- Iteration      1(   8)  ---------------------------------------


    POTLOK:  cpu time    0.3657: real time    0.3666
    SETDIJ:  cpu time    0.0319: real time    0.0320
    EDDIAG:  cpu time    7.1808: real time    7.1978
  RMM-DIIS:  cpu time   25.8678: real time   25.9349
    ORTHCH:  cpu time    0.6600: real time    0.6618
       DOS:  cpu time    0.0017: real time    0.0017
    CHARGE:  cpu time    2.9443: real time    2.9527
    MIXING:  cpu time    0.0104: real time    0.0104
    --------------------------------------------
      LOOP:  cpu time   37.0626: real time   37.1579

 eigenvalue-minimisations  :  6746
 total energy-change (2. order) : 0.1065165E+03  (-0.5170990E+01)
 number of electron     640.0000073 magnetization      42.6079229
 augmentation part      197.9961923 magnetization      32.3003681

 Broyden mixing:
  rms(total) = 0.42011E+01    rms(broyden)= 0.42011E+01
  rms(prec ) = 0.50098E+01
  weight for this iteration     100.00

 eigenvalues of (default mixing * dielectric matrix)
  average eigenvalue GAMMA=   0.9603
  2.0434  0.5136  0.3239

 Free energy of the ion-electron system (eV)
  ---------------------------------------------------
  alpha Z        PSCENC =      2015.86452450
  Ewald energy   TEWEN  =    124527.92901031
  -Hartree energ DENC   =   -174951.64297030
  -exchange      EXHF   =         0.00000000
  -V(xc)+E(xc)   XCENC  =       226.79194138
  PAW double counting   =     59674.25639182   -58074.25025238
  entropy T*S    EENTRO =        -0.03918953
  eigenvalues    EBANDS =      -447.61743371
  atomic energy  EATOM  =     46663.39518770
  Solvation  Ediel_sol  =         0.00000000
  ---------------------------------------------------
  free energy    TOTEN  =      -365.31279021 eV

  energy without entropy =     -365.27360068  energy(sigma->0) =     -365.29972703


--------------------------------------------------------------------------------------------------------




--------------------------------------- Iteration      1(   9)  ---------------------------------------


    POTLOK:  cpu time    0.3623: real time    0.3663
    SETDIJ:  cpu time    0.0321: real time    0.0322
    EDDIAG:  cpu time    7.1697: real time    7.1901
  RMM-DIIS:  cpu time   25.7955: real time   25.8689
    ORTHCH:  cpu time    0.6621: real time    0.6639
       DOS:  cpu time    0.0017: real time    0.0017
    CHARGE:  cpu time    2.9417: real time    2.9501
    MIXING:  cpu time    0.0106: real time    0.0106
    --------------------------------------------
      LOOP:  cpu time   36.9756: real time   37.0837

 eigenvalue-minimisations  :  6746
 total energy-change (2. order) :-0.1402504E+02  (-0.2594795E+01)
 number of electron     640.0000069 magnetization      40.5460652
 augmentation part      197.7423919 magnetization      32.6711157

 Broyden mixing:
  rms(total) = 0.51980E+01    rms(broyden)= 0.51980E+01
  rms(prec ) = 0.79981E+01
  weight for this iteration     100.00

 eigenvalues of (default mixing * dielectric matrix)
  average eigenvalue GAMMA=   0.8420
  2.1908  0.6662  0.3397  0.1714

 Free energy of the ion-electron system (eV)
  ---------------------------------------------------
  alpha Z        PSCENC =      2015.86452450
  Ewald energy   TEWEN  =    124527.92901031
  -Hartree energ DENC   =   -174926.50127806
  -exchange      EXHF   =         0.00000000
  -V(xc)+E(xc)   XCENC  =       226.05754622
  PAW double counting   =     60191.47574052   -58595.03727729
  entropy T*S    EENTRO =        -0.02169768
  eigenvalues    EBANDS =      -482.49958438
  atomic energy  EATOM  =     46663.39518770
  Solvation  Ediel_sol  =         0.00000000
  ---------------------------------------------------
  free energy    TOTEN  =      -379.33782816 eV

  energy without entropy =     -379.31613047  energy(sigma->0) =     -379.33059559


--------------------------------------------------------------------------------------------------------




--------------------------------------- Iteration      1(  10)  ---------------------------------------


    POTLOK:  cpu time    0.3652: real time    0.3663
    SETDIJ:  cpu time    0.0324: real time    0.0325
    EDDIAG:  cpu time    7.1800: real time    7.2004
  RMM-DIIS:  cpu time   25.9206: real time   25.9945
    ORTHCH:  cpu time    0.6631: real time    0.6651
       DOS:  cpu time    0.0017: real time    0.0017
    CHARGE:  cpu time    2.9690: real time    2.9775
    MIXING:  cpu time    0.0105: real time    0.0106
    --------------------------------------------
      LOOP:  cpu time   37.1425: real time   37.2484

 eigenvalue-minimisations  :  6765
 total energy-change (2. order) : 0.2010740E+02  (-0.1118429E+01)
 number of electron     640.0000070 magnetization      38.1917641
 augmentation part      197.4324526 magnetization      27.4496391

 Broyden mixing:
  rms(total) = 0.34105E+01    rms(broyden)= 0.34105E+01
  rms(prec ) = 0.43325E+01
  weight for this iteration     100.00

 eigenvalues of (default mixing * dielectric matrix)
  average eigenvalue GAMMA=   0.7456
  2.2322  0.6766  0.4371  0.2573  0.1249

 Free energy of the ion-electron system (eV)
  ---------------------------------------------------
  alpha Z        PSCENC =      2015.86452450
  Ewald energy   TEWEN  =    124527.92901031
  -Hartree energ DENC   =   -174993.32163055
  -exchange      EXHF   =         0.00000000
  -V(xc)+E(xc)   XCENC  =       225.81581888
  PAW double counting   =     60491.13947412   -58895.87427973
  entropy T*S    EENTRO =        -0.03974373
  eigenvalues    EBANDS =      -394.13879262
  atomic energy  EATOM  =     46663.39518770
  Solvation  Ediel_sol  =         0.00000000
  ---------------------------------------------------
  free energy    TOTEN  =      -359.23043112 eV

  energy without entropy =     -359.19068739  energy(sigma->0) =     -359.21718321


--------------------------------------------------------------------------------------------------------




--------------------------------------- Iteration      1(  11)  ---------------------------------------


    POTLOK:  cpu time    0.3653: real time    0.3662
    SETDIJ:  cpu time    0.0323: real time    0.0324
    EDDIAG:  cpu time    7.2295: real time    7.2506
  RMM-DIIS:  cpu time   26.0402: real time   26.1088
    ORTHCH:  cpu time    0.7204: real time    0.7224
       DOS:  cpu time    0.0017: real time    0.0017
    CHARGE:  cpu time    2.9474: real time    2.9558
    MIXING:  cpu time    0.0112: real time    0.0112
    --------------------------------------------
      LOOP:  cpu time   37.3479: real time   37.4489

 eigenvalue-minimisations  :  6762
 total energy-change (2. order) : 0.7497306E+01  (-0.5178083E+00)
 number of electron     640.0000069 magnetization      37.0292887
 augmentation part      197.4791511 magnetization      26.2473420

 Broyden mixing:
  rms(total) = 0.14823E+01    rms(broyden)= 0.14823E+01
  rms(prec ) = 0.16982E+01
  weight for this iteration     100.00

 eigenvalues of (default mixing * dielectric matrix)
  average eigenvalue GAMMA=   0.6927
  2.1788  0.6069  0.6069  0.3197  0.3197  0.1243

 Free energy of the ion-electron system (eV)
  ---------------------------------------------------
  alpha Z        PSCENC =      2015.86452450
  Ewald energy   TEWEN  =    124527.92901031
  -Hartree energ DENC   =   -174978.45769275
  -exchange      EXHF   =         0.00000000
  -V(xc)+E(xc)   XCENC  =       225.11207241
  PAW double counting   =     60654.68253083   -59060.06488980
  entropy T*S    EENTRO =         0.01955887
  eigenvalues    EBANDS =      -400.21342758
  atomic energy  EATOM  =     46663.39518770
  Solvation  Ediel_sol  =         0.00000000
  ---------------------------------------------------
  free energy    TOTEN  =      -351.73312553 eV

  energy without entropy =     -351.75268440  energy(sigma->0) =     -351.73964515


--------------------------------------------------------------------------------------------------------




--------------------------------------- Iteration      1(  12)  ---------------------------------------


    POTLOK:  cpu time    0.3672: real time    0.3682
    SETDIJ:  cpu time    0.0330: real time    0.0330
    EDDIAG:  cpu time    7.1922: real time    7.2129
  RMM-DIIS:  cpu time   26.0206: real time   26.0946
    ORTHCH:  cpu time    0.6655: real time    0.6671
       DOS:  cpu time    0.0018: real time    0.0018
    CHARGE:  cpu time    2.9640: real time    2.9710
    MIXING:  cpu time    0.0097: real time    0.0098
    --------------------------------------------
      LOOP:  cpu time   37.2540: real time   37.3584

 eigenvalue-minimisations  :  6764
 total energy-change (2. order) :-0.1469684E+01  (-0.1841568E+00)
 number of electron     640.0000067 magnetization      35.4931650
 augmentation part      197.3749498 magnetization      25.6040131

 Broyden mixing:
  rms(total) = 0.14252E+01    rms(broyden)= 0.14252E+01
  rms(prec ) = 0.15675E+01
  weight for this iteration     100.00

 eigenvalues of (default mixing * dielectric matrix)
  average eigenvalue GAMMA=   0.6721
  2.1696  0.7037  0.7037  0.4837  0.2605  0.2605  0.1230

 Free energy of the ion-electron system (eV)
  ---------------------------------------------------
  alpha Z        PSCENC =      2015.86452450
  Ewald energy   TEWEN  =    124527.92901031
  -Hartree energ DENC   =   -174950.25183942
  -exchange      EXHF   =         0.00000000
  -V(xc)+E(xc)   XCENC  =       224.58526028
  PAW double counting   =     60516.31260435   -58920.15657906
  entropy T*S    EENTRO =         0.03223617
  eigenvalues    EBANDS =      -430.91321452
  atomic energy  EATOM  =     46663.39518770
  Solvation  Ediel_sol  =         0.00000000
  ---------------------------------------------------
  free energy    TOTEN  =      -353.20280970 eV

  energy without entropy =     -353.23504587  energy(sigma->0) =     -353.21355509


--------------------------------------------------------------------------------------------------------




--------------------------------------- Iteration      1(  13)  ---------------------------------------


    POTLOK:  cpu time    0.3685: real time    0.3693
    SETDIJ:  cpu time    0.0321: real time    0.0321
    EDDIAG:  cpu time    7.1906: real time    7.2078
  RMM-DIIS:  cpu time   26.1347: real time   26.1966
    ORTHCH:  cpu time    0.6645: real time    0.6661
       DOS:  cpu time    0.0018: real time    0.0018
    CHARGE:  cpu time    2.9537: real time    2.9607
    MIXING:  cpu time    0.0114: real time    0.0115
    --------------------------------------------
      LOOP:  cpu time   37.3572: real time   37.4459

 eigenvalue-minimisations  :  6772
 total energy-change (2. order) :-0.5413915E+00  (-0.6743308E-01)
 number of electron     640.0000068 magnetization      31.9692285
 augmentation part      197.3976613 magnetization      22.2344327

 Broyden mixing:
  rms(total) = 0.10225E+01    rms(broyden)= 0.10225E+01
  rms(prec ) = 0.10761E+01
  weight for this iteration     100.00

 eigenvalues of (default mixing * dielectric matrix)
  average eigenvalue GAMMA=   0.7238
  2.2337  0.8976  0.8976  0.7754  0.1232  0.3135  0.3135  0.2360

 Free energy of the ion-electron system (eV)
  ---------------------------------------------------
  alpha Z        PSCENC =      2015.86452450
  Ewald energy   TEWEN  =    124527.92901031
  -Hartree energ DENC   =   -174951.34462251
  -exchange      EXHF   =         0.00000000
  -V(xc)+E(xc)   XCENC  =       223.95998950
  PAW double counting   =     60496.06734054   -58899.91705341
  entropy T*S    EENTRO =         0.04164356
  eigenvalues    EBANDS =      -429.74022137
  atomic energy  EATOM  =     46663.39518770
  Solvation  Ediel_sol  =         0.00000000
  ---------------------------------------------------
  free energy    TOTEN  =      -353.74420118 eV

  energy without entropy =     -353.78584474  energy(sigma->0) =     -353.75808236


--------------------------------------------------------------------------------------------------------




--------------------------------------- Iteration      1(  14)  ---------------------------------------


    POTLOK:  cpu time    0.3664: real time    0.3672
    SETDIJ:  cpu time    0.0320: real time    0.0321
    EDDIAG:  cpu time    7.1839: real time    7.2011
  RMM-DIIS:  cpu time   26.0573: real time   26.1190
    ORTHCH:  cpu time    0.6641: real time    0.6657
       DOS:  cpu time    0.0017: real time    0.0017
    CHARGE:  cpu time    2.9202: real time    2.9272
    MIXING:  cpu time    0.0119: real time    0.0119
    --------------------------------------------
      LOOP:  cpu time   37.2375: real time   37.3258

 eigenvalue-minimisations  :  6764
 total energy-change (2. order) :-0.2544613E+01  (-0.1080827E+00)
 number of electron     640.0000068 magnetization      27.1015333
 augmentation part      197.3112771 magnetization      17.6097328

 Broyden mixing:
  rms(total) = 0.85225E+00    rms(broyden)= 0.85225E+00
  rms(prec ) = 0.91308E+00
  weight for this iteration     100.00

 eigenvalues of (default mixing * dielectric matrix)
  average eigenvalue GAMMA=   0.7607
  2.3340  1.1187  1.1187  0.8861  0.1232  0.3886  0.3501  0.2635  0.2635

 Free energy of the ion-electron system (eV)
  ---------------------------------------------------
  alpha Z        PSCENC =      2015.86452450
  Ewald energy   TEWEN  =    124527.92901031
  -Hartree energ DENC   =   -174956.79144776
  -exchange      EXHF   =         0.00000000
  -V(xc)+E(xc)   XCENC  =       222.47289322
  PAW double counting   =     60576.58475826   -58981.55255193
  entropy T*S    EENTRO =         0.03488327
  eigenvalues    EBANDS =      -424.22607206
  atomic energy  EATOM  =     46663.39518770
  Solvation  Ediel_sol  =         0.00000000
  ---------------------------------------------------
  free energy    TOTEN  =      -356.28881450 eV

  energy without entropy =     -356.32369777  energy(sigma->0) =     -356.30044225


--------------------------------------------------------------------------------------------------------




--------------------------------------- Iteration      1(  15)  ---------------------------------------


    POTLOK:  cpu time    0.3675: real time    0.3684
    SETDIJ:  cpu time    0.0320: real time    0.0320
    EDDIAG:  cpu time    7.2244: real time    7.2472
  RMM-DIIS:  cpu time   26.0782: real time   26.1528
    ORTHCH:  cpu time    0.7101: real time    0.7121
       DOS:  cpu time    0.0018: real time    0.0018
    CHARGE:  cpu time    2.9203: real time    2.9287
    MIXING:  cpu time    0.0115: real time    0.0116
    --------------------------------------------
      LOOP:  cpu time   37.3457: real time   37.4545

 eigenvalue-minimisations  :  6753
 total energy-change (2. order) :-0.3509066E+01  (-0.1541099E+00)
 number of electron     640.0000068 magnetization      24.7897214
 augmentation part      197.1927997 magnetization      15.5873846

 Broyden mixing:
  rms(total) = 0.68200E+00    rms(broyden)= 0.68200E+00
  rms(prec ) = 0.74657E+00
  weight for this iteration     100.00

 eigenvalues of (default mixing * dielectric matrix)
  average eigenvalue GAMMA=   0.7540
  2.3113  1.5848  0.8942  0.8942  0.4593  0.4593  0.1232  0.2878  0.2878  0.2379

 Free energy of the ion-electron system (eV)
  ---------------------------------------------------
  alpha Z        PSCENC =      2015.86452450
  Ewald energy   TEWEN  =    124527.92901031
  -Hartree energ DENC   =   -174975.89576681
  -exchange      EXHF   =         0.00000000
  -V(xc)+E(xc)   XCENC  =       220.24546364
  PAW double counting   =     60622.39076305   -59027.96680652
  entropy T*S    EENTRO =        -0.02576961
  eigenvalues    EBANDS =      -405.73448690
  atomic energy  EATOM  =     46663.39518770
  Solvation  Ediel_sol  =         0.00000000
  ---------------------------------------------------
  free energy    TOTEN  =      -359.79788066 eV

  energy without entropy =     -359.77211104  energy(sigma->0) =     -359.78929078


--------------------------------------------------------------------------------------------------------




--------------------------------------- Iteration      1(  16)  ---------------------------------------


    POTLOK:  cpu time    0.3654: real time    0.3662
    SETDIJ:  cpu time    0.0331: real time    0.0332
    EDDIAG:  cpu time    7.1831: real time    7.2037
  RMM-DIIS:  cpu time   26.0684: real time   26.1429
    ORTHCH:  cpu time    0.6591: real time    0.6610
       DOS:  cpu time    0.0017: real time    0.0017
    CHARGE:  cpu time    2.8998: real time    2.9080
    MIXING:  cpu time    0.0112: real time    0.0113
    --------------------------------------------
      LOOP:  cpu time   37.2219: real time   37.3280

 eigenvalue-minimisations  :  6753
 total energy-change (2. order) :-0.1934596E+01  (-0.8318617E-01)
 number of electron     640.0000068 magnetization      21.9476575
 augmentation part      197.0879238 magnetization      13.1978719

 Broyden mixing:
  rms(total) = 0.45720E+00    rms(broyden)= 0.45720E+00
  rms(prec ) = 0.48847E+00
  weight for this iteration     100.00

 eigenvalues of (default mixing * dielectric matrix)
  average eigenvalue GAMMA=   0.8382
  2.4834  2.4834  0.7861  0.7861  0.7929  0.6090  0.1232  0.3449  0.2873  0.2873
  0.2371

 Free energy of the ion-electron system (eV)
  ---------------------------------------------------
  alpha Z        PSCENC =      2015.86452450
  Ewald energy   TEWEN  =    124527.92901031
  -Hartree energ DENC   =   -174977.55986224
  -exchange      EXHF   =         0.00000000
  -V(xc)+E(xc)   XCENC  =       218.98560010
  PAW double counting   =     60540.32500991   -58944.90654428
  entropy T*S    EENTRO =        -0.01035563
  eigenvalues    EBANDS =      -405.75504657
  atomic energy  EATOM  =     46663.39518770
  Solvation  Ediel_sol  =         0.00000000
  ---------------------------------------------------
  free energy    TOTEN  =      -361.73247621 eV

  energy without entropy =     -361.72212058  energy(sigma->0) =     -361.72902433


--------------------------------------------------------------------------------------------------------




--------------------------------------- Iteration      1(  17)  ---------------------------------------


    POTLOK:  cpu time    0.3649: real time    0.3660
    SETDIJ:  cpu time    0.0328: real time    0.0328
    EDDIAG:  cpu time    7.1664: real time    7.1866
  RMM-DIIS:  cpu time   26.0500: real time   26.1244
    ORTHCH:  cpu time    0.6614: real time    0.6632
       DOS:  cpu time    0.0018: real time    0.0018
    CHARGE:  cpu time    2.8951: real time    2.9033
    MIXING:  cpu time    0.0114: real time    0.0114
    --------------------------------------------
      LOOP:  cpu time   37.1837: real time   37.2894

 eigenvalue-minimisations  :  6743
 total energy-change (2. order) :-0.2278309E+01  (-0.1037606E+00)
 number of electron     640.0000068 magnetization      19.8063987
 augmentation part      197.0123660 magnetization      12.0612917

 Broyden mixing:
  rms(total) = 0.41548E+00    rms(broyden)= 0.41548E+00
  rms(prec ) = 0.43863E+00
  weight for this iteration     100.00

 eigenvalues of (default mixing * dielectric matrix)
  average eigenvalue GAMMA=   0.8636
  2.7243  2.7243  0.9459  0.9459  0.6933  0.6933  0.1232  0.3650  0.3650  0.2405
  0.2712  0.2712

 Free energy of the ion-electron system (eV)
  ---------------------------------------------------
  alpha Z        PSCENC =      2015.86452450
  Ewald energy   TEWEN  =    124527.92901031
  -Hartree energ DENC   =   -174972.14892214
  -exchange      EXHF   =         0.00000000
  -V(xc)+E(xc)   XCENC  =       217.53821531
  PAW double counting   =     60401.03493118   -58804.01715242
  entropy T*S    EENTRO =        -0.00630371
  eigenvalues    EBANDS =      -413.60027597
  atomic energy  EATOM  =     46663.39518770
  Solvation  Ediel_sol  =         0.00000000
  ---------------------------------------------------
  free energy    TOTEN  =      -364.01078524 eV

  energy without entropy =     -364.00448153  energy(sigma->0) =     -364.00868400


--------------------------------------------------------------------------------------------------------




--------------------------------------- Iteration      1(  18)  ---------------------------------------


    POTLOK:  cpu time    0.3652: real time    0.3664
    SETDIJ:  cpu time    0.0329: real time    0.0329
    EDDIAG:  cpu time    7.1763: real time    7.1968
  RMM-DIIS:  cpu time   26.0448: real time   26.1191
    ORTHCH:  cpu time    0.6637: real time    0.6658
       DOS:  cpu time    0.0018: real time    0.0018
    CHARGE:  cpu time    2.9066: real time    2.9147
    MIXING:  cpu time    0.0118: real time    0.0118
    --------------------------------------------
      LOOP:  cpu time   37.2031: real time   37.3093

 eigenvalue-minimisations  :  6750
 total energy-change (2. order) :-0.1097954E+01  (-0.5018648E-01)
 number of electron     640.0000068 magnetization      17.0835499
 augmentation part      197.0005995 magnetization       9.7516592

 Broyden mixing:
  rms(total) = 0.33777E+00    rms(broyden)= 0.33777E+00
  rms(prec ) = 0.36699E+00
  weight for this iteration     100.00

 eigenvalues of (default mixing * dielectric matrix)
  average eigenvalue GAMMA=   0.9173
  3.6726  2.4104  1.1486  1.1486  0.6915  0.6915  0.5380  0.1232  0.3935  0.3152
  0.2780  0.2780  0.2365

 Free energy of the ion-electron system (eV)
  ---------------------------------------------------
  alpha Z        PSCENC =      2015.86452450
  Ewald energy   TEWEN  =    124527.92901031
  -Hartree energ DENC   =   -174964.92868968
  -exchange      EXHF   =         0.00000000
  -V(xc)+E(xc)   XCENC  =       216.66650024
  PAW double counting   =     60355.67406945   -58758.13639770
  entropy T*S    EENTRO =        -0.00461331
  eigenvalues    EBANDS =      -421.56833085
  atomic energy  EATOM  =     46663.39518770
  Solvation  Ediel_sol  =         0.00000000
  ---------------------------------------------------
  free energy    TOTEN  =      -365.10873934 eV

  energy without entropy =     -365.10412603  energy(sigma->0) =     -365.10720157


--------------------------------------------------------------------------------------------------------




--------------------------------------- Iteration      1(  19)  ---------------------------------------


    POTLOK:  cpu time    0.3653: real time    0.3664
    SETDIJ:  cpu time    0.0331: real time    0.0331
    EDDIAG:  cpu time    7.2408: real time    7.2615
  RMM-DIIS:  cpu time   26.0261: real time   26.1004
    ORTHCH:  cpu time    0.6629: real time    0.6649
       DOS:  cpu time    0.0018: real time    0.0018
    CHARGE:  cpu time    2.9363: real time    2.9447
    MIXING:  cpu time    0.0125: real time    0.0125
    --------------------------------------------
      LOOP:  cpu time   37.2788: real time   37.3854

 eigenvalue-minimisations  :  6740
 total energy-change (2. order) :-0.7600569E+00  (-0.4152066E-01)
 number of electron     640.0000068 magnetization      14.7616293
 augmentation part      197.0554431 magnetization       8.2276965

 Broyden mixing:
  rms(total) = 0.33224E+00    rms(broyden)= 0.33224E+00
  rms(prec ) = 0.36658E+00
  weight for this iteration     100.00

 eigenvalues of (default mixing * dielectric matrix)
  average eigenvalue GAMMA=   0.9708
  4.5990  2.2892  1.3271  1.3271  0.7072  0.7072  0.6943  0.4183  0.1232  0.3384
  0.2868  0.2868  0.2415  0.2448

 Free energy of the ion-electron system (eV)
  ---------------------------------------------------
  alpha Z        PSCENC =      2015.86452450
  Ewald energy   TEWEN  =    124527.92901031
  -Hartree energ DENC   =   -174952.54107416
  -exchange      EXHF   =         0.00000000
  -V(xc)+E(xc)   XCENC  =       215.87350882
  PAW double counting   =     60367.96022194   -58770.52523478
  entropy T*S    EENTRO =        -0.01853687
  eigenvalues    EBANDS =      -433.80640372
  atomic energy  EATOM  =     46663.39518770
  Solvation  Ediel_sol  =         0.00000000
  ---------------------------------------------------
  free energy    TOTEN  =      -365.86879626 eV

  energy without entropy =     -365.85025939  energy(sigma->0) =     -365.86261730


--------------------------------------------------------------------------------------------------------




--------------------------------------- Iteration      1(  20)  ---------------------------------------


    POTLOK:  cpu time    0.3646: real time    0.3673
    SETDIJ:  cpu time    0.0335: real time    0.0335
    EDDIAG:  cpu time    7.1917: real time    7.2123
  RMM-DIIS:  cpu time   26.2092: real time   26.2838
    ORTHCH:  cpu time    0.6637: real time    0.6654
       DOS:  cpu time    0.0017: real time    0.0018
    CHARGE:  cpu time    2.9100: real time    2.9184
    MIXING:  cpu time    0.0127: real time    0.0127
    --------------------------------------------
      LOOP:  cpu time   37.3870: real time   37.4952

 eigenvalue-minimisations  :  6758
 total energy-change (2. order) :-0.1990779E+00  (-0.1529949E-01)
 number of electron     640.0000068 magnetization      12.6727958
 augmentation part      197.0973333 magnetization       6.7256680

 Broyden mixing:
  rms(total) = 0.27114E+00    rms(broyden)= 0.27114E+00
  rms(prec ) = 0.29682E+00
  weight for this iteration     100.00

 eigenvalues of (default mixing * dielectric matrix)
  average eigenvalue GAMMA=   1.0165
  5.5556  2.2186  1.4609  1.4609  0.7578  0.7578  0.7312  0.4479  0.1232  0.3506
  0.3291  0.2364  0.2822  0.2672  0.2672

 Free energy of the ion-electron system (eV)
  ---------------------------------------------------
  alpha Z        PSCENC =      2015.86452450
  Ewald energy   TEWEN  =    124527.92901031
  -Hartree energ DENC   =   -174941.90907164
  -exchange      EXHF   =         0.00000000
  -V(xc)+E(xc)   XCENC  =       215.52755880
  PAW double counting   =     60391.76395410   -58794.53686457
  entropy T*S    EENTRO =        -0.03041209
  eigenvalues    EBANDS =      -444.07176130
  atomic energy  EATOM  =     46663.39518770
  Solvation  Ediel_sol  =         0.00000000
  ---------------------------------------------------
  free energy    TOTEN  =      -366.06787421 eV

  energy without entropy =     -366.03746211  energy(sigma->0) =     -366.05773684


--------------------------------------------------------------------------------------------------------




--------------------------------------- Iteration      1(  21)  ---------------------------------------


    POTLOK:  cpu time    0.3664: real time    0.3675
    SETDIJ:  cpu time    0.0332: real time    0.0333
    EDDIAG:  cpu time    7.2094: real time    7.2300
  RMM-DIIS:  cpu time   26.1060: real time   26.1760
    ORTHCH:  cpu time    0.6607: real time    0.6622
       DOS:  cpu time    0.0017: real time    0.0017
    CHARGE:  cpu time    2.9299: real time    2.9369
    MIXING:  cpu time    0.0125: real time    0.0125
    --------------------------------------------
      LOOP:  cpu time   37.3199: real time   37.4201

 eigenvalue-minimisations  :  6759
 total energy-change (2. order) :-0.9362455E-01  (-0.7356379E-02)
 number of electron     640.0000068 magnetization      11.1044340
 augmentation part      197.1278063 magnetization       5.8356282

 Broyden mixing:
  rms(total) = 0.22173E+00    rms(broyden)= 0.22173E+00
  rms(prec ) = 0.25357E+00
  weight for this iteration     100.00

 eigenvalues of (default mixing * dielectric matrix)
  average eigenvalue GAMMA=   1.0826
  6.8400  2.0705  1.6487  1.6487  0.8354  0.8354  0.6810  0.5687  0.1232  0.4019
  0.3461  0.3176  0.2744  0.2744  0.2366  0.2195

 Free energy of the ion-electron system (eV)
  ---------------------------------------------------
  alpha Z        PSCENC =      2015.86452450
  Ewald energy   TEWEN  =    124527.92901031
  -Hartree energ DENC   =   -174932.65914219
  -exchange      EXHF   =         0.00000000
  -V(xc)+E(xc)   XCENC  =       215.29797115
  PAW double counting   =     60405.09671880   -58807.88949205
  entropy T*S    EENTRO =        -0.03716041
  eigenvalues    EBANDS =      -453.15911656
  atomic energy  EATOM  =     46663.39518770
  Solvation  Ediel_sol  =         0.00000000
  ---------------------------------------------------
  free energy    TOTEN  =      -366.16149876 eV

  energy without entropy =     -366.12433835  energy(sigma->0) =     -366.14911196


--------------------------------------------------------------------------------------------------------




--------------------------------------- Iteration      1(  22)  ---------------------------------------


    POTLOK:  cpu time    0.3639: real time    0.3648
    SETDIJ:  cpu time    0.0330: real time    0.0331
    EDDIAG:  cpu time    7.1876: real time    7.2049
  RMM-DIIS:  cpu time   25.8624: real time   25.9236
    ORTHCH:  cpu time    0.6589: real time    0.6604
       DOS:  cpu time    0.0018: real time    0.0018
    CHARGE:  cpu time    2.9128: real time    2.9197
    MIXING:  cpu time    0.0140: real time    0.0140
    --------------------------------------------
      LOOP:  cpu time   37.0345: real time   37.1224

 eigenvalue-minimisations  :  6758
 total energy-change (2. order) :-0.6567940E-01  (-0.2952145E-02)
 number of electron     640.0000068 magnetization       9.6936918
 augmentation part      197.1390088 magnetization       4.8628846

 Broyden mixing:
  rms(total) = 0.15864E+00    rms(broyden)= 0.15864E+00
  rms(prec ) = 0.17808E+00
  weight for this iteration     100.00

 eigenvalues of (default mixing * dielectric matrix)
  average eigenvalue GAMMA=   1.1289
  8.0191  1.9831  1.9831  1.5903  0.8833  0.8833  0.6630  0.6630  0.4457  0.1232
  0.3554  0.3554  0.2801  0.2801  0.2397  0.2397  0.2044

 Free energy of the ion-electron system (eV)
  ---------------------------------------------------
  alpha Z        PSCENC =      2015.86452450
  Ewald energy   TEWEN  =    124527.92901031
  -Hartree energ DENC   =   -174926.19203974
  -exchange      EXHF   =         0.00000000
  -V(xc)+E(xc)   XCENC  =       215.11765626
  PAW double counting   =     60419.85007293   -58822.65581933
  entropy T*S    EENTRO =        -0.04583377
  eigenvalues    EBANDS =      -459.48993701
  atomic energy  EATOM  =     46663.39518770
  Solvation  Ediel_sol  =         0.00000000
  ---------------------------------------------------
  free energy    TOTEN  =      -366.22717816 eV

  energy without entropy =     -366.18134439  energy(sigma->0) =     -366.21190024


--------------------------------------------------------------------------------------------------------




--------------------------------------- Iteration      1(  23)  ---------------------------------------


    POTLOK:  cpu time    0.3635: real time    0.3644
    SETDIJ:  cpu time    0.0327: real time    0.0328
    EDDIAG:  cpu time    7.2186: real time    7.2359
  RMM-DIIS:  cpu time   25.9390: real time   26.0004
    ORTHCH:  cpu time    0.6622: real time    0.6637
       DOS:  cpu time    0.0018: real time    0.0018
    CHARGE:  cpu time    2.9626: real time    2.9736
    MIXING:  cpu time    0.0162: real time    0.0162
    --------------------------------------------
      LOOP:  cpu time   37.1967: real time   37.2889

 eigenvalue-minimisations  :  6765
 total energy-change (2. order) :-0.7964149E-01  (-0.1415122E-02)
 number of electron     640.0000068 magnetization       8.3547412
 augmentation part      197.1399402 magnetization       3.9880010

 Broyden mixing:
  rms(total) = 0.11449E+00    rms(broyden)= 0.11449E+00
  rms(prec ) = 0.11975E+00
  weight for this iteration     100.00

 eigenvalues of (default mixing * dielectric matrix)
  average eigenvalue GAMMA=   1.1867
  9.2724  2.1428  2.1428  1.3627  0.9932  0.9932  0.7107  0.7107  0.6017  0.1232
  0.3825  0.3825  0.2908  0.2908  0.2749  0.2378  0.2544  0.1937

 Free energy of the ion-electron system (eV)
  ---------------------------------------------------
  alpha Z        PSCENC =      2015.86452450
  Ewald energy   TEWEN  =    124527.92901031
  -Hartree energ DENC   =   -174920.06365514
  -exchange      EXHF   =         0.00000000
  -V(xc)+E(xc)   XCENC  =       214.93588954
  PAW double counting   =     60433.54743144   -58836.36941495
  entropy T*S    EENTRO =        -0.04888317
  eigenvalues    EBANDS =      -465.49690988
  atomic energy  EATOM  =     46663.39518770
  Solvation  Ediel_sol  =         0.00000000
  ---------------------------------------------------
  free energy    TOTEN  =      -366.30681965 eV

  energy without entropy =     -366.25793649  energy(sigma->0) =     -366.29052526


--------------------------------------------------------------------------------------------------------




--------------------------------------- Iteration      1(  24)  ---------------------------------------


[...]
 -0.000   0.000  -0.000   0.000   0.000   0.000  -0.000   0.000  -0.000  -0.000  -0.000  -0.000   0.000   0.000   0.000   0.000
 -0.000   0.000   0.000   0.000  -0.000   0.000  -0.000   0.000  -0.000   0.000  -0.000  -0.000  -0.000   0.000  -0.000  -0.000
 -0.000   0.000  -0.000   0.000  -0.000   0.000  -0.000   0.000  -0.000   0.000   0.000  -0.000   0.000   0.000  -0.000   0.000
  0.000  -0.000  -0.000  -0.000  -0.000  -0.000   0.000  -0.000   0.000   0.000   0.000  -0.000   0.000  -0.000  -0.000  -0.000
 -0.000   0.000   0.000   0.000  -0.000   0.000  -0.000  -0.000  -0.000   0.000   0.000  -0.000  -0.000  -0.000   0.000   0.000


------------------------ aborting loop because EDIFF is reached ----------------------------------------


    CHARGE:  cpu time    2.9860: real time    2.9945
    FORLOC:  cpu time    0.0711: real time    0.0713
    FORNL :  cpu time   11.7764: real time   11.8098
    STRESS:  cpu time   35.0565: real time   35.1551
    FORCOR:  cpu time    0.3961: real time    0.3970
    FORHAR:  cpu time    0.0989: real time    0.0994
    MIXING:  cpu time    0.0107: real time    0.0107
    OFIELD:  cpu time    0.0001: real time    0.0001

 ---------------------------------------------------------------------------------------------

         DFTD3 V3.0 Rev 1        
 Edisp (eV)  -38.50887

 E6    (eV) :   -14.1984
 E8    (eV) :   -24.3105
 % E8        : 63.13
    FORVDW:  cpu time    0.3022: real time    0.3038

  FORCE on cell =-STRESS in cart. coord.  units (eV):
  Direction    XX          YY          ZZ          XY          YZ          ZX
  --------------------------------------------------------------------------------------
  Alpha Z  2015.86452  2015.86452  2015.86452
  Ewald  161377.69877161378.44693************     0.07695     0.26329    -0.11056
  Hartree172345.63338172345.89610************     0.02243     0.05960    -0.04248
  E(xc)   -2855.06397 -2855.05779 -2880.46564     0.00071     0.00251    -0.00070
  Local  ************************355697.34431    -0.08016    -0.23666     0.12841
  n-local   569.65074   569.69916   311.49755     0.00381    -0.00298    -0.00038
  augment  3255.92495  3255.84866  3528.10187    -0.00882    -0.02864     0.00822
  Kinetic  9155.23944  9155.07458  9730.29655    -0.01871    -0.06452     0.01843
  Fock        0.00000     0.00000     0.00000     0.00000     0.00000     0.00000
  vdW       -52.87895   -52.88807   -28.15196    -0.00105     0.00116    -0.00001
  -------------------------------------------------------------------------------------
  Total      75.74753    75.71926    -0.44407    -0.00486    -0.00625     0.00093
  in kB      62.83340    62.80995    -0.36836    -0.00403    -0.00518     0.00077
  external pressure =       41.76 kB  Pullay stress =        0.00 kB


 VOLUME and BASIS-vectors are now :
 -----------------------------------------------------------------------------
  energy-cutoff  :      550.00
  volume of cell :     1931.47
      direct lattice vectors                 reciprocal lattice vectors
    10.560000420  0.000000000  0.000000000     0.094696966  0.054673319  0.000000000
    -5.280000210  9.145228627  0.000000000     0.000000000  0.109346638  0.000000000
     0.000000000  0.000000000 20.000000000     0.000000000  0.000000000  0.050000000

  length of vectors
    10.560000420 10.560000420 20.000000000     0.109346638  0.109346638  0.050000000


 FORCES acting on ions
    electron-ion (+dipol)            ewald-force                    non-local-force                 convergence-correction
 -----------------------------------------------------------------------------------------------
   0.121E+01 -.147E+02 0.231E+04   -.107E+01 0.148E+02 -.231E+04   -.146E+00 -.611E-01 -.255E+00   -.641E-02 -.109E-02 -.751E-03
   0.943E+01 -.265E+02 0.756E+03   -.958E+01 0.268E+02 -.756E+03   0.172E+00 -.304E+00 -.656E+00   0.357E-02 -.124E-02 -.361E-02
   0.707E+01 0.413E+01 -.931E+03   -.719E+01 -.420E+01 0.931E+03   0.659E-01 0.350E-01 0.204E+00   -.572E-03 -.486E-03 -.543E-02
   0.155E+01 0.363E+02 -.226E+04   -.153E+01 -.359E+02 0.226E+04   -.255E-01 -.355E+00 0.313E-01   -.146E-02 -.103E-02 -.189E-02
   -.127E+02 -.735E+01 0.230E+04   0.130E+02 0.751E+01 -.230E+04   -.282E+00 -.162E+00 -.116E+00   -.101E-01 -.601E-02 -.568E-03
   -.369E-01 -.249E-01 0.592E+03   0.374E-01 0.244E-01 -.591E+03   0.966E-03 0.894E-03 -.129E+01   0.200E-03 -.560E-04 -.317E-02
   0.174E+00 -.182E+01 -.777E+03   -.175E+00 0.198E+01 0.777E+03   -.629E-02 -.130E+00 0.134E+00   -.277E-03 -.158E-02 -.348E-02
   0.444E+02 0.255E+02 -.234E+04   -.436E+02 -.251E+02 0.234E+04   -.724E+00 -.416E+00 0.461E+00   -.305E-02 -.171E-02 -.254E-02
   -.658E-02 -.228E+02 0.227E+04   0.678E-02 0.230E+02 -.227E+04   -.261E-03 -.197E+00 0.150E+00   0.275E-03 -.397E-02 -.742E-03
   -.276E+02 0.507E+01 0.756E+03   0.279E+02 -.509E+01 -.756E+03   -.352E+00 0.279E-02 -.656E+00   -.275E-02 -.264E-02 -.332E-02
   -.107E+01 -.134E+01 -.748E+03   0.109E+01 0.155E+01 0.748E+03   0.160E-01 -.202E+00 0.436E+00   0.975E-03 -.823E-03 -.423E-02
   0.425E-01 0.454E+02 -.240E+04   -.422E-01 -.451E+02 0.240E+04   -.602E-03 -.344E+00 0.450E+00   -.143E-03 -.249E-02 -.280E-02
   -.120E+01 -.147E+02 0.231E+04   0.106E+01 0.148E+02 -.231E+04   0.147E+00 -.607E-01 -.256E+00   0.659E-02 -.875E-03 -.787E-03
   -.941E+01 -.264E+02 0.756E+03   0.956E+01 0.267E+02 -.755E+03   -.172E+00 -.306E+00 -.656E+00   -.346E-02 -.138E-02 -.337E-02
   -.698E+01 0.404E+01 -.931E+03   0.709E+01 -.411E+01 0.931E+03   -.678E-01 0.376E-01 0.204E+00   0.464E-03 -.289E-03 -.555E-02
   -.156E+01 0.364E+02 -.226E+04   0.154E+01 -.360E+02 0.226E+04   0.261E-01 -.358E+00 0.318E-01   0.125E-02 -.111E-02 -.168E-02
   -.259E+01 -.140E+01 0.232E+04   0.248E+01 0.133E+01 -.232E+04   0.116E+00 0.634E-01 -.397E+00   0.636E-02 0.375E-02 0.395E-03
   -.722E+01 -.424E+01 0.803E+03   0.741E+01 0.435E+01 -.803E+03   -.206E+00 -.116E+00 -.368E+00   -.471E-02 -.291E-02 -.871E-02
   0.646E+00 0.155E+01 -.748E+03   -.823E+00 -.167E+01 0.748E+03   0.183E+00 0.894E-01 0.435E+00   0.130E-02 -.305E-03 -.412E-02
   -.111E+01 -.796E+00 -.226E+04   0.109E+01 0.783E+00 0.226E+04   0.352E-01 0.235E-01 0.206E-02   0.592E-03 0.521E-03 0.161E-02
   0.128E+02 -.738E+01 0.230E+04   -.130E+02 0.754E+01 -.230E+04   0.281E+00 -.162E+00 -.115E+00   0.101E-01 -.587E-02 -.561E-03
   -.439E-01 0.660E+01 0.809E+03   0.437E-01 -.654E+01 -.809E+03   0.196E-02 -.675E-01 -.197E+00   -.192E-03 -.498E-02 -.584E-02
   0.179E+00 -.670E-01 -.722E+03   -.181E+00 0.674E-01 0.722E+03   -.516E-02 0.129E-03 0.409E+00   0.616E-04 0.144E-03 -.447E-02
   -.444E+02 0.256E+02 -.234E+04   0.437E+02 -.252E+02 0.234E+04   0.724E+00 -.416E+00 0.461E+00   0.308E-02 -.160E-02 -.246E-02
   -.218E-01 0.296E+01 0.232E+04   0.215E-01 -.283E+01 -.232E+04   0.194E-02 -.134E+00 -.398E+00   -.259E-03 -.760E-02 0.321E-03
   0.277E+02 0.510E+01 0.756E+03   -.280E+02 -.512E+01 -.756E+03   0.349E+00 0.172E-03 -.657E+00   0.271E-02 -.245E-02 -.360E-02
   0.708E+00 -.137E+01 -.748E+03   -.720E+00 0.158E+01 0.748E+03   -.313E-02 -.202E+00 0.434E+00   -.779E-03 -.904E-03 -.407E-02
   -.148E-01 0.134E+01 -.226E+04   0.147E-01 -.132E+01 0.226E+04   -.694E-03 -.424E-01 0.106E-02   0.945E-04 -.541E-03 0.154E-02
   0.258E+01 -.140E+01 0.232E+04   -.247E+01 0.134E+01 -.232E+04   -.116E+00 0.638E-01 -.397E+00   -.654E-02 0.357E-02 0.413E-03
   0.721E+01 -.421E+01 0.803E+03   -.740E+01 0.433E+01 -.803E+03   0.206E+00 -.117E+00 -.366E+00   0.457E-02 -.278E-02 -.896E-02
   -.736E+00 0.133E+01 -.748E+03   0.913E+00 -.145E+01 0.748E+03   -.181E+00 0.960E-01 0.436E+00   -.125E-02 -.468E-03 -.398E-02
   0.110E+01 -.795E+00 -.226E+04   -.108E+01 0.783E+00 0.226E+04   -.348E-01 0.231E-01 0.440E-02   -.436E-03 0.557E-03 0.154E-02
   -.122E+02 0.841E+01 0.231E+04   0.123E+02 -.832E+01 -.231E+04   -.125E+00 -.970E-01 -.257E+00   -.422E-02 -.501E-02 -.911E-03
   -.182E+02 0.213E+02 0.756E+03   0.184E+02 -.216E+02 -.756E+03   -.179E+00 0.303E+00 -.658E+00   0.852E-03 0.385E-02 -.355E-02
   -.455E-01 0.983E-01 -.698E+03   0.189E+00 -.176E-01 0.697E+03   -.132E+00 -.779E-01 0.463E+00   -.138E-02 -.722E-03 -.300E-02
   0.321E+02 -.168E+02 -.226E+04   -.318E+02 0.166E+02 0.226E+04   -.320E+00 0.159E+00 0.304E-01   -.154E-02 -.794E-03 -.173E-02
   -.351E-02 -.136E-01 0.232E+04   0.346E-02 0.143E-01 -.232E+04   0.254E-03 -.415E-03 -.383E+00   -.880E-04 0.914E-04 -.908E-03
   -.570E+01 -.319E+01 0.809E+03   0.565E+01 0.316E+01 -.809E+03   0.568E-01 0.302E-01 -.197E+00   0.431E-02 0.265E-02 -.614E-02
   -.137E+01 0.922E+00 -.777E+03   0.151E+01 -.999E+00 0.777E+03   -.119E+00 0.666E-01 0.132E+00   -.148E-02 0.618E-03 -.327E-02
   -.577E-01 -.788E-01 -.222E+04   0.577E-01 0.781E-01 0.222E+04   0.986E-03 0.254E-02 0.274E+00   -.284E-04 -.133E-03 -.143E-02
   -.134E+02 0.630E+01 0.231E+04   0.134E+02 -.645E+01 -.231E+04   0.204E-01 0.157E+00 -.256E+00   0.241E-02 0.637E-02 -.866E-03
   0.392E-01 -.129E+02 0.814E+03   -.399E-01 0.132E+02 -.814E+03   -.120E-03 -.294E+00 -.130E+00   -.924E-04 -.614E-03 -.214E-02
   -.590E-01 -.810E+01 -.931E+03   0.598E-01 0.823E+01 0.931E+03   0.220E-02 -.759E-01 0.205E+00   0.115E-03 0.539E-03 -.557E-02
   0.308E+02 -.195E+02 -.226E+04   -.305E+02 0.192E+02 0.226E+04   -.301E+00 0.199E+00 0.321E-01   -.348E-03 0.151E-02 -.166E-02
   -.198E+02 0.114E+02 0.227E+04   0.199E+02 -.115E+02 -.227E+04   -.171E+00 0.967E-01 0.148E+00   -.316E-02 0.202E-02 -.825E-03
   -.113E+02 0.647E+01 0.814E+03   0.115E+02 -.661E+01 -.814E+03   -.255E+00 0.147E+00 -.131E+00   -.708E-03 0.582E-03 -.214E-02
   -.153E+01 -.168E+00 -.748E+03   0.172E+01 0.728E-01 0.748E+03   -.174E+00 0.113E+00 0.433E+00   -.289E-03 0.136E-02 -.424E-02
   0.394E+02 -.227E+02 -.240E+04   -.391E+02 0.225E+02 0.240E+04   -.302E+00 0.172E+00 0.452E+00   -.230E-02 0.115E-02 -.277E-02
   0.197E+02 0.115E+02 0.227E+04   -.199E+02 -.116E+02 -.227E+04   0.171E+00 0.960E-01 0.149E+00   0.356E-02 0.190E-02 -.743E-03
   0.113E+02 0.642E+01 0.814E+03   -.115E+02 -.656E+01 -.814E+03   0.255E+00 0.148E+00 -.132E+00   0.399E-03 0.497E-03 -.210E-02
   0.151E+01 0.104E-01 -.749E+03   -.170E+01 -.106E+00 0.748E+03   0.176E+00 0.106E+00 0.433E+00   0.593E-03 0.131E-02 -.430E-02
   -.393E+02 -.227E+02 -.240E+04   0.390E+02 0.225E+02 0.240E+04   0.297E+00 0.172E+00 0.451E+00   0.222E-02 0.123E-02 -.279E-02
   -.110E-01 0.146E+02 0.230E+04   0.104E-01 -.149E+02 -.230E+04   0.278E-03 0.327E+00 -.115E+00   0.108E-03 0.118E-01 -.524E-03
   0.562E+01 -.323E+01 0.809E+03   -.557E+01 0.320E+01 -.809E+03   -.553E-01 0.324E-01 -.198E+00   -.429E-02 0.241E-02 -.587E-02
   0.159E+01 0.809E+00 -.777E+03   -.173E+01 -.886E+00 0.777E+03   0.112E+00 0.695E-01 0.131E+00   0.142E-02 0.904E-03 -.350E-02
   0.106E-01 -.511E+02 -.234E+04   -.110E-01 0.503E+02 0.234E+04   0.122E-02 0.831E+00 0.463E+00   0.616E-04 0.340E-02 -.240E-02
   0.134E+02 0.629E+01 0.231E+04   -.134E+02 -.644E+01 -.231E+04   -.207E-01 0.158E+00 -.255E+00   -.242E-02 0.606E-02 -.731E-03
   0.458E-01 0.839E+01 0.803E+03   -.458E-01 -.862E+01 -.803E+03   -.143E-02 0.237E+00 -.368E+00   0.408E-04 0.540E-02 -.888E-02
   -.134E+00 0.363E-01 -.698E+03   0.136E+00 -.201E+00 0.697E+03   0.240E-02 0.154E+00 0.463E+00   -.430E-04 0.139E-02 -.289E-02
   -.307E+02 -.196E+02 -.226E+04   0.304E+02 0.193E+02 0.226E+04   0.299E+00 0.201E+00 0.316E-01   0.387E-03 0.174E-02 -.181E-02
   0.122E+02 0.842E+01 0.231E+04   -.123E+02 -.833E+01 -.231E+04   0.127E+00 -.975E-01 -.256E+00   0.382E-02 -.513E-02 -.835E-03
   0.182E+02 0.214E+02 0.756E+03   -.184E+02 -.217E+02 -.755E+03   0.178E+00 0.300E+00 -.656E+00   -.566E-03 0.370E-02 -.355E-02
   0.718E-01 -.697E-01 -.698E+03   -.215E+00 0.151E+00 0.697E+03   0.129E+00 -.725E-01 0.463E+00   0.107E-02 -.698E-03 -.304E-02
   -.322E+02 -.167E+02 -.226E+04   0.319E+02 0.166E+02 0.226E+04   0.321E+00 0.160E+00 0.305E-01   0.171E-02 -.738E-03 -.172E-02
 -----------------------------------------------------------------------------------------------
   0.738E-03 -.948E-03 0.192E+01   0.352E-12 0.860E-12 0.773E-11   -.250E-02 0.840E-02 -.171E+01   -.837E-04 -.134E-04 -.172E+00
 
 
 POSITION                                       TOTAL-FORCE (eV/Angst)
 -----------------------------------------------------------------------------------
      0.00425      0.00798      1.11585        -0.003940     -0.007403     -0.127058
      2.62813      1.54723      3.60761        -0.000012      0.008682      0.005382
      0.00424      3.05034      6.25686        -0.007029     -0.007569     -0.001724
     -0.00251      0.00556      8.31340         0.002194      0.005181     -0.001185
     -1.30798      2.29337      1.11585         0.000270      0.001080      0.092623
      1.32004      3.81028      3.92068         0.001777      0.000140      0.011683
      1.32034      0.78790      5.98208        -0.007299      0.002541     -0.001460
     -1.31483      2.28822      8.52454         0.003690      0.004052      0.002776
      1.31996      2.29642      1.11585         0.000293      0.009487      0.256381
     -1.29377      3.80912      3.60726         0.004472     -0.004339      0.005929
      3.95761      0.77858      5.92200         0.008354      0.006818      0.010793
      1.32025      2.27409      8.70849        -0.000434      0.001121      0.012923
      2.63563      0.00798      1.11585         0.004453     -0.006921     -0.127554
      0.01204      1.54725      3.60772         0.000064      0.005887      0.006143
      2.63616      3.05030      6.25675         0.005492     -0.003906     -0.001263
      2.64278      0.00567      8.31344        -0.001441      0.003128     -0.000140
     -0.00508      9.14258      1.11585         0.000576     -0.002660     -0.064893
      7.93083      1.53008      3.51374        -0.008204     -0.001504     -0.004070
      5.26426      3.04165      5.92192        -0.003090     -0.008580      0.010031
      5.28291      0.00069      8.30630         0.007923      0.006412     -0.002940
      3.94790      2.29339      1.11585        -0.001556      0.001220      0.092952
      6.60000      3.80687      3.49652         0.001657     -0.001612     -0.000658
      6.60027      0.76169      5.87316        -0.006819      0.000588      0.017073
      3.95528      2.28824      8.52444        -0.002401      0.003258      0.003287
      6.59989      2.29228      1.11585         0.001360     -0.000117     -0.065383
      3.93404      3.80929      3.60769        -0.007552     -0.006072      0.006051
      9.24220      0.77851      5.92216         0.006866      0.006557      0.009918
      6.60026      2.28241      8.30596        -0.000805     -0.011274     -0.002890
      2.64503      9.14255      1.11585        -0.000807     -0.002063     -0.064684
      5.26929      1.53017      3.51373         0.008508     -0.002828     -0.002686
      7.93602      3.04138      5.92155         0.004412     -0.000048      0.011117
      7.91735      0.00067      8.30602        -0.007406      0.005724      0.000479
     -2.63114      4.57259      1.11585        -0.007649     -0.000332     -0.128282
      0.01424      6.07466      3.60773         0.005762     -0.001792      0.005808
     -2.62778      7.62751      5.82384        -0.003311     -0.005733      0.009989
     -2.63567      4.56629      8.31344         0.006984      0.002154     -0.002093
     -3.96007      6.85906      1.11585         0.000144      0.000303     -0.264143
     -1.31681      8.38487      3.49677        -0.000152     -0.003309     -0.001491
     -1.29660      5.32102      5.98219        -0.004429     -0.000206     -0.002798
      6.60015      6.85795      8.18057         0.001130      0.001618      0.017281
     -1.31541      6.85145      1.11585        -0.003922      0.007536     -0.127110
     -3.95991      8.40114      3.48494        -0.000922     -0.015883     -0.002636
      1.32015      5.32966      6.25703         0.003053      0.008413     -0.000993
     -1.31286      6.85728      8.31374        -0.000859     -0.005986     -0.000010
      0.00857      4.56786      1.11585         0.007800     -0.005970      0.255508
     -2.62417      6.08760      3.48503        -0.012581      0.008663     -0.001961
      0.01377      7.61005      5.92234         0.002469      0.000357      0.009587
     -0.00944      4.57740      8.70882        -0.002395     -0.000045      0.012465
      2.63128      4.56789      1.11585        -0.007388     -0.006603      0.256226
      5.26437      6.08755      3.48505         0.012518      0.009888     -0.002341
      2.62648      7.61025      5.92242        -0.001084     -0.007728      0.009566
      2.65013      4.57738      8.70872        -0.000693     -0.000199      0.013001
      1.31993      6.84508      1.11585        -0.000169      0.002188      0.093036
      3.95691      8.38475      3.49689         0.002632     -0.001567     -0.002321
      3.93739      5.32099      5.98261        -0.003796      0.003411     -0.003141
      1.32016      6.85259      8.52518         0.000906     -0.009020      0.004228
      3.95532      6.85139      1.11585         0.003513      0.008129     -0.127028
      1.32013      8.37054      3.51397        -0.001398      0.007672     -0.003621
      6.60012      5.32032      5.82381         0.003594      0.005934      0.009159
      3.95322      6.85718      8.31391        -0.000750     -0.004791     -0.001102
      5.27095      4.57261      1.11585         0.008560     -0.000713     -0.127694
      2.62598      6.07476      3.60783        -0.006306     -0.003878      0.007113
      5.26824      7.62731      5.82389         0.001263      0.000273      0.010236
      5.27616      4.56628      8.31384        -0.006085      0.002239     -0.001388
 -----------------------------------------------------------------------------------
    total drift:                               -0.001845      0.007436      0.044032


--------------------------------------------------------------------------------------------------------



  FREE ENERGIE OF THE ION-ELECTRON SYSTEM (eV)
  ---------------------------------------------------
  free  energy   TOTEN  =      -405.07609946 eV

  energy  without entropy=     -405.03565820  energy(sigma->0) =     -405.06261904
 
 d Force = 0.3975865E-03[ 0.117E-03, 0.678E-03]  d Energy = 0.4001461E-03-0.256E-05
 d Force = 0.2849391E+02[ 0.285E+02, 0.285E+02]  d Ewald  = 0.2849390E+02 0.113E-04


--------------------------------------------------------------------------------------------------------


    POTLOK:  cpu time    0.4107: real time    0.4119


--------------------------------------------------------------------------------------------------------




--------------------------------------------------------------------------------------------------------


  
 reached required accuracy - stopping structural energy minimisation
     LOOP+:  cpu time  481.1551: real time  482.5396
    4ORBIT:  cpu time    0.0000: real time    0.0000

 total amount of memory used by VASP MPI-rank0   198174. kBytes
=======================================================================

   base      :      30000. kBytes
   nonlr-proj:      30765. kBytes
   fftplans  :      17093. kBytes
   grid      :      42083. kBytes
   one-center:        497. kBytes
   wavefun   :      77736. kBytes
 
  
  
 General timing and accounting informations for this job:
 ========================================================
  
                  Total CPU time used (sec):    10673.384
                            User time (sec):    10659.728
                          System time (sec):       13.655
                         Elapsed time (sec):    10873.715
  
                   Maximum memory used (kb):      783316.
                   Average memory used (kb):           0.
  
                          Minor page faults:      3875398
                          Major page faults:            0
                 Voluntary context switches:         6380
