 vasp.5.4.4.18Apr17-6-g9f103f2a35 (build Nov 30 2020 22:55:02) complex          
  
 executed on             LinuxIFC date 2023.09.11  18:26:11
 running on   40 total cores
 distrk:  each k-point on   40 cores,    1 groups
 distr:  one band on NCORES_PER_BAND=   1 cores,   40 groups


--------------------------------------------------------------------------------------------------------


 INCAR:
 POTCAR:    PAW_PBE Fe 06Sep2000                  
 POTCAR:    PAW_PBE Pt 04Feb2005                  
 POTCAR:    PAW_PBE H 15Jun2001                   

 ----------------------------------------------------------------------------- 
|                                                                             |
|           W    W    AA    RRRRR   N    N  II  N    N   GGGG   !!!           |
|           W    W   A  A   R    R  NN   N  II  NN   N  G    G  !!!           |
|           W    W  A    A  R    R  N N  N  II  N N  N  G       !!!           |
|           W WW W  AAAAAA  RRRRR   N  N N  II  N  N N  G  GGG   !            |
|           WW  WW  A    A  R   R   N   NN  II  N   NN  G    G                |
|           W    W  A    A  R    R  N    N  II  N    N   GGGG   !!!           |
|                                                                             |
|      For optimal performance we recommend to set                            |
|        NCORE= 4 - approx SQRT( number of cores)                             |
|      NCORE specifies how many cores store one orbital (NPAR=cpu/NCORE).     |
|      This setting can  greatly improve the performance of VASP for DFT.     |
|      The default,   NCORE=1            might be grossly inefficient         |
|      on modern multi-core architectures or massively parallel machines.     |
|      Do your own testing !!!!                                               |
|      Unfortunately you need to use the default for GW and RPA calculations. |
|      (for HF NCORE is supported but not extensively tested yet)             |
|                                                                             |
 ----------------------------------------------------------------------------- 

 POTCAR:    PAW_PBE Fe 06Sep2000                  
   VRHFIN =Fe:  d7 s1                                                           
   LEXCH  = PE                                                                  
   EATOM  =   594.3153 eV,   43.6809 Ry                                         
                                                                                
   TITEL  = PAW_PBE Fe 06Sep2000                                                
   LULTRA =        F    use ultrasoft PP ?                                      
   IUNSCR =        1    unscreen: 0-lin 1-nonlin 2-no                           
   RPACOR =    2.000    partial core radius                                     
   POMASS =   55.847; ZVAL   =    8.000    mass and valenz                      
   RCORE  =    2.300    outmost cutoff radius                                   
   RWIGS  =    2.460; RWIGS  =    1.302    wigner-seitz radius (au A)           
   ENMAX  =  267.882; ENMIN  =  200.911 eV                                      
   RCLOC  =    1.701    cutoff for local pot                                    
   LCOR   =        T    correct aug charges                                     
   LPAW   =        T    paw PP                                                  
   EAUG   =  511.368                                                            
   DEXC   =    0.000                                                            
   RMAX   =    2.356    core radius for proj-oper                               
   RAUG   =    1.300    factor for augmentation sphere                          
   RDEP   =    2.442    radius for radial grids                                 
   RDEPT  =    1.890    core radius for aug-charge                              
                                                                                
   Atomic configuration                                                         
    9 entries                                                                   
     n  l   j            E        occ.                                          
     1  0  0.50     -6993.8440   2.0000                                         
     2  0  0.50      -814.6047   2.0000                                         
     2  1  1.50      -693.3689   6.0000                                         
     3  0  0.50       -89.4732   2.0000                                         
     3  1  1.50       -55.6373   6.0000                                         
     3  2  2.50        -3.8151   7.0000                                         
     4  0  0.50        -4.2551   1.0000                                         
     4  1  1.50        -3.4015   0.0000                                         
     4  3  2.50        -1.3606   0.0000                                         
   Description                                                                  
     l       E           TYP  RCUT    TYP  RCUT                                 
     2     -3.8151135     23  2.300                                             
     2     -5.1756961     23  2.300                                             
     0     -4.2550963     23  2.300                                             
     0      7.2035603     23  2.300                                             
     1     -2.7211652     23  2.300                                             
     1     18.4316424     23  2.300                                             
  local pseudopotential read in
  partial core-charges read in
  partial kinetic energy density read in
  atomic valenz-charges read in
  non local Contribution for L=           2  read in
    real space projection operators read in
  non local Contribution for L=           2  read in
    real space projection operators read in
  non local Contribution for L=           0  read in
    real space projection operators read in
  non local Contribution for L=           0  read in
    real space projection operators read in
  non local Contribution for L=           1  read in
    real space projection operators read in
  non local Contribution for L=           1  read in
    real space projection operators read in
    PAW grid and wavefunctions read in
 
   number of l-projection  operators is LMAX  =           6
   number of lm-projection operators is LMMAX =          18
 
 POTCAR:    PAW_PBE Pt 04Feb2005                  
   VRHFIN =Pt: s1d9                                                             
   LEXCH  = PE                                                                  
   EATOM  =   729.1176 eV,   53.5886 Ry                                         
                                                                                
   TITEL  = PAW_PBE Pt 04Feb2005                                                
   LULTRA =        F    use ultrasoft PP ?                                      
   IUNSCR =        1    unscreen: 0-lin 1-nonlin 2-no                           
   RPACOR =    2.330    partial core radius                                     
   POMASS =  195.080; ZVAL   =   10.000    mass and valenz                      
   RCORE  =    2.600    outmost cutoff radius                                   
   RWIGS  =    2.750; RWIGS  =    1.455    wigner-seitz radius (au A)           
   ENMAX  =  230.283; ENMIN  =  172.712 eV                                      
   ICORE  =        3    local potential                                         
   LCOR   =        T    correct aug charges                                     
   LPAW   =        T    paw PP                                                  
   EAUG   =  358.966                                                            
   DEXC   =    0.000                                                            
   RMAX   =    2.658    core radius for proj-oper                               
   RAUG   =    1.300    factor for augmentation sphere                          
   RDEP   =    2.761    radius for radial grids                                 
   RDEPT  =    2.203    core radius for aug-charge                              
                                                                                
   Atomic configuration                                                         
   16 entries                                                                   
     n  l   j            E        occ.                                          
     1  0  0.50    -78401.1885   2.0000                                         
     2  0  0.50    -13770.7750   2.0000                                         
     2  1  1.50    -11931.0468   6.0000                                         
     3  0  0.50     -3234.7234   2.0000                                         
     3  1  1.50     -2699.2216   6.0000                                         
     3  2  2.50     -2119.5714  10.0000                                         
     4  0  0.50      -695.1528   2.0000                                         
     4  1  1.50      -519.6034   6.0000                                         
     4  2  2.50      -306.6786  10.0000                                         
     4  3  3.50       -70.1041  14.0000                                         
     5  0  0.50      -101.7747   2.0000                                         
     5  1  1.50       -55.9873   6.0000                                         
     5  2  2.50        -6.1423   9.0000                                         
     6  0  0.50        -5.6573   1.0000                                         
     6  1  1.50        -6.8029   0.0000                                         
     5  3  2.50        -1.3606   0.0000                                         
   Description                                                                  
     l       E           TYP  RCUT    TYP  RCUT                                 
     2     -6.1423404     23  2.500                                             
     2     -7.5029230     23  2.500                                             
     0     -5.6573207     23  2.500                                             
     0      0.7416693     23  2.500                                             
     1     -2.7211652     23  2.600                                             
     1     20.4087390     23  2.600                                             
     3     -1.3605826     23  2.500                                             
  local pseudopotential read in
  partial core-charges read in
  partial kinetic energy density read in
  atomic valenz-charges read in
  non local Contribution for L=           2  read in
    real space projection operators read in
  non local Contribution for L=           2  read in
    real space projection operators read in
  non local Contribution for L=           0  read in
    real space projection operators read in
  non local Contribution for L=           0  read in
    real space projection operators read in
  non local Contribution for L=           1  read in
    real space projection operators read in
  non local Contribution for L=           1  read in
    real space projection operators read in
    PAW grid and wavefunctions read in
 
   number of l-projection  operators is LMAX  =           6
   number of lm-projection operators is LMMAX =          18
 
 POTCAR:    PAW_PBE H 15Jun2001                   
   VRHFIN =H: ultrasoft test                                                    
   LEXCH  = PE                                                                  
   EATOM  =    12.4884 eV,    0.9179 Ry                                         
                                                                                
   TITEL  = PAW_PBE H 15Jun2001                                                 
   LULTRA =        F    use ultrasoft PP ?                                      
   IUNSCR =        0    unscreen: 0-lin 1-nonlin 2-no                           
   RPACOR =    0.000    partial core radius                                     
   POMASS =    1.000; ZVAL   =    1.000    mass and valenz                      
   RCORE  =    1.100    outmost cutoff radius                                   
   RWIGS  =    0.700; RWIGS  =    0.370    wigner-seitz radius (au A)           
   ENMAX  =  250.000; ENMIN  =  200.000 eV                                      
   RCLOC  =    0.701    cutoff for local pot                                    
   LCOR   =        T    correct aug charges                                     
   LPAW   =        T    paw PP                                                  
   EAUG   =  400.000                                                            
   RMAX   =    1.123    core radius for proj-oper                               
   RAUG   =    1.200    factor for augmentation sphere                          
   RDEP   =    1.112    radius for radial grids                                 
   RDEPT  =    0.926    core radius for aug-charge                              
                                                                                
   Atomic configuration                                                         
    2 entries                                                                   
     n  l   j            E        occ.                                          
     1  0  0.50        -6.4927   1.0000                                         
     2  1  0.50        -3.4015   0.0000                                         
   Description                                                                  
     l       E           TYP  RCUT    TYP  RCUT                                 
     0     -6.4927494     23  1.100                                             
     0      6.8029130     23  1.100                                             
     1     -4.0817478     23  1.100                                             
  local pseudopotential read in
  atomic valenz-charges read in
  non local Contribution for L=           0  read in
    real space projection operators read in
  non local Contribution for L=           0  read in
    real space projection operators read in
  non local Contribution for L=           1  read in
    real space projection operators read in
    PAW grid and wavefunctions read in
 
   number of l-projection  operators is LMAX  =           3
   number of lm-projection operators is LMMAX =           5
 
 Optimization of the real space projectors (new method)

 maximal supplied QI-value         = 16.25
 optimisation between [QCUT,QGAM] = [ 11.86, 23.89] = [ 39.41,159.82] Ry 
 Optimized for a Real-space Cutoff    1.49 Angstroem

   l    n(q)    QCUT    max X(q) W(low)/X(q) W(high)/X(q)  e(spline) 
   2     10    11.864    80.901    0.13E-03    0.23E-03    0.37E-06
   2     10    11.864    75.754    0.13E-03    0.23E-03    0.38E-06
   0     11    11.864    58.752    0.44E-04    0.11E-04    0.20E-06
   0     11    11.864    30.679    0.36E-04    0.10E-04    0.18E-06
   1     10    11.864    17.977    0.31E-04    0.45E-04    0.10E-06
   1     10    11.864    13.559    0.25E-04    0.37E-04    0.89E-07
 Optimization of the real space projectors (new method)

 maximal supplied QI-value         = 14.36
 optimisation between [QCUT,QGAM] = [ 11.92, 23.98] = [ 39.79,161.09] Ry 
 Optimized for a Real-space Cutoff    1.49 Angstroem

   l    n(q)    QCUT    max X(q) W(low)/X(q) W(high)/X(q)  e(spline) 
   2     10    11.920    66.195    0.79E-04    0.18E-03    0.24E-06
   2     10    11.920    64.643    0.81E-04    0.19E-03    0.24E-06
   0     11    11.920    95.520    0.28E-04    0.54E-04    0.18E-06
   0     11    11.920    63.403    0.27E-04    0.52E-04    0.17E-06
   1     10    11.920    19.961    0.18E-04    0.11E-03    0.23E-06
   1     10    11.920    13.289    0.25E-04    0.87E-04    0.19E-06
 Optimization of the real space projectors (new method)

 maximal supplied QI-value         = 34.20
 optimisation between [QCUT,QGAM] = [ 11.97, 23.94] = [ 40.13,160.53] Ry 
 Optimized for a Real-space Cutoff    1.18 Angstroem

   l    n(q)    QCUT    max X(q) W(low)/X(q) W(high)/X(q)  e(spline) 
   0      8    11.971    19.460    0.15E-03    0.31E-03    0.25E-06
   0      8    11.971    12.209    0.13E-03    0.29E-03    0.25E-06
   1      8    11.971     4.655    0.22E-03    0.24E-03    0.21E-06
  PAW_PBE Fe 06Sep2000                  :
 energy of atom  1       EATOM= -594.3153
 kinetic energy error for atom=    0.0024 (will be added to EATOM!!)
  PAW_PBE Pt 04Feb2005                  :
 energy of atom  2       EATOM= -729.1176
 kinetic energy error for atom=    0.0021 (will be added to EATOM!!)
  PAW_PBE H 15Jun2001                   :
 energy of atom  3       EATOM=  -12.4884
 kinetic energy error for atom=    0.0008 (will be added to EATOM!!)
 
 
 POSCAR: PtM\(2)                                 
  positions in cartesian coordinates
  No initial velocities read in
 exchange correlation table for  LEXCH =        8
   RHO(1)=    0.500       N(1)  =     2000
   RHO(2)=  100.500       N(2)  =     4000
 


--------------------------------------------------------------------------------------------------------


 ion  position               nearest neighbor table
   1  0.790  0.876  0.310-  55 2.46  39 2.50  20 2.55  56 2.61   2 2.63  73 2.64  72 2.64  65 2.68
                             3 2.68  29 2.70  40 2.73  57 2.79
   2  0.041  0.872  0.317-  49 2.45  23 2.52  39 2.55  52 2.57  77 2.60  65 2.62  67 2.62   1 2.63
                             3 2.64  33 2.65  41 2.66  56 2.68
   3  0.043  0.621  0.315-  39 2.47  12 2.50  41 2.57  60 2.57  73 2.58  15 2.61  77 2.62  66 2.63
                             2 2.64   9 2.65   1 2.68  40 2.72
   4  0.803  0.862  0.045-  21 2.49  19 2.50   5 2.52  62 2.56  58 2.61   6 2.66  42 2.67  59 2.69
                            30 2.87
   5  0.040  0.862  0.053-  62 2.43  54 2.47  35 2.51   4 2.52  24 2.55  43 2.60  58 2.63  34 2.64
                             6 2.65
   6  0.051  0.606  0.043-  43 2.49  32 2.50  21 2.51  18 2.51  54 2.52  42 2.52   5 2.65   4 2.66
                            10 2.67
   7  0.618  0.209  0.135-  63 2.43  55 2.44  58 2.46  64 2.46  30 2.48  28 2.48  37 2.59  22 2.60
                            19 2.61  45 2.63  11 2.70  62 2.75
   8  0.377  0.952  0.132-  59 2.39  50 2.44  24 2.48  16 2.48  53 2.49  26 2.57  38 2.58  19 2.63
                            35 2.65  25 2.66  37 2.75  44 2.78
   9  0.039  0.372  0.316-  61 2.48  12 2.50  13 2.54  68 2.59  46 2.61  66 2.61  33 2.62  71 2.63
                            15 2.64  40 2.65   3 2.65  47 2.68
  10  0.051  0.353  0.049-  38 2.44  16 2.47  31 2.50  32 2.53  42 2.58  18 2.60  34 2.62  48 2.66
                             6 2.67
  11  0.880  0.196  0.141-  49 2.44  61 2.44  34 2.46  48 2.46  63 2.49  58 2.51  62 2.64  31 2.67
                             7 2.70  38 2.71  35 2.71  22 2.73
  12  0.969  0.531  0.224-  31 2.44  21 2.47  40 2.49  32 2.50   9 2.50   3 2.50  46 2.56  60 2.59
                            39 2.62  61 2.64  20 2.74  51 2.77
  13  0.281  0.133  0.315-  26 2.47  46 2.51   9 2.54  15 2.57  57 2.61  74 2.61  69 2.61  33 2.63
                            53 2.63  71 2.64  29 2.64  23 2.72
  14  0.522  0.624  0.311-  36 2.44  50 2.52  41 2.52  51 2.59  80 2.61  23 2.63  27 2.64  76 2.67
                            75 2.72  57 2.73  47 2.74  40 2.77
  15  0.288  0.373  0.317-  46 2.45  60 2.47  64 2.54  41 2.56  13 2.57  29 2.58  27 2.59  74 2.60
                             3 2.61  66 2.64   9 2.64  79 2.71
  16  0.289  0.123  0.044-  10 2.47   8 2.48  38 2.52  37 2.54  34 2.57  18 2.59  59 2.60  24 2.64
                            30 2.65
  17  0.528  0.627  0.045-  44 2.35  25 2.43  22 2.51  28 2.66  43 2.66  24 2.73  59 2.74  48 2.82
                            42 2.90
  18  0.289  0.369  0.048-  32 2.36  37 2.37  45 2.39   6 2.51  30 2.53  43 2.55  16 2.59  10 2.60
                            28 2.67
  19  0.623  0.959  0.131-  59 2.39  20 2.46  53 2.49   4 2.50  30 2.51  55 2.54   7 2.61   8 2.63
                            62 2.64  37 2.70  25 2.71  21 2.79
  20  0.708  0.789  0.218-  21 2.45  19 2.46  40 2.50  25 2.51   1 2.55  57 2.57  55 2.69  50 2.71
                            39 2.71  51 2.72  53 2.72  12 2.74
  21  0.887  0.695  0.135-  20 2.45  12 2.47  39 2.48  42 2.48   4 2.49   6 2.51  54 2.56  62 2.62
                            31 2.64  32 2.65  25 2.71  19 2.79
  22  0.620  0.454  0.134-  48 2.40  51 2.44  36 2.46  28 2.47  63 2.50  17 2.51  44 2.58   7 2.60
                            25 2.65  45 2.69  11 2.73  31 2.75
  23  0.277  0.877  0.315-  26 2.43  52 2.48   2 2.52  33 2.58  69 2.59  14 2.63  57 2.63  67 2.65
                            50 2.69  75 2.70  41 2.71  13 2.72
  24  0.269  0.885  0.046-  34 2.27  35 2.45   8 2.48  44 2.54   5 2.55  16 2.64  17 2.73  43 2.79
                            59 2.83
  25  0.629  0.700  0.128-  17 2.43  59 2.45  42 2.48  20 2.51  50 2.52  51 2.55  22 2.65   8 2.66
                            31 2.69  21 2.71  19 2.71  44 2.76
  26  0.214  0.035  0.227-  23 2.43  38 2.44  35 2.46  13 2.47   8 2.57  33 2.59  53 2.60  50 2.61
                            61 2.66  49 2.70  52 2.77  46 2.77
  27  0.536  0.368  0.317-  63 2.52  36 2.52  29 2.54  64 2.55  76 2.58  15 2.59  78 2.59  56 2.61
                            41 2.62  14 2.64  47 2.65  79 2.74
  28  0.541  0.369  0.044-  22 2.47   7 2.48  30 2.51  45 2.54  17 2.66  48 2.66  43 2.66  18 2.67
                            58 2.69
  29  0.533  0.129  0.314-  55 2.53  64 2.53  27 2.54  53 2.56  72 2.57  15 2.58  74 2.64  78 2.64
                            13 2.64  56 2.66  57 2.66   1 2.70
  30  0.534  0.136  0.044-   7 2.48  37 2.50  28 2.51  19 2.51  18 2.53  58 2.63  16 2.65  59 2.67
                             4 2.87
  31  0.883  0.447  0.138-  51 2.44  12 2.44  61 2.44  48 2.46  42 2.49  10 2.50  21 2.64  38 2.64
                            11 2.67  25 2.69  32 2.71  22 2.75
  32  0.140  0.447  0.136-  18 2.36  46 2.39  60 2.40  45 2.41  37 2.43  54 2.45  12 2.50   6 2.50
                            10 2.53  21 2.65  38 2.65  31 2.71
  33  0.036  0.125  0.318-  49 2.49  61 2.50  23 2.58  26 2.59  71 2.60  70 2.61  67 2.61  47 2.62
                             9 2.62  56 2.63  13 2.63   2 2.65
  34  0.059  0.102  0.058-  24 2.27  38 2.40  35 2.40  11 2.46  16 2.57  10 2.62   5 2.64  58 2.75
                            48 2.77
  35  0.134  0.938  0.142-  52 2.39  34 2.40  24 2.45  26 2.46  49 2.50   5 2.51  44 2.56   8 2.65
                            62 2.66  54 2.70  11 2.71  38 2.76
  36  0.459  0.525  0.223-  14 2.44  22 2.46  64 2.48  45 2.48  63 2.50  27 2.52  60 2.55  44 2.56
                            52 2.58  41 2.63  51 2.65  50 2.71
  37  0.369  0.216  0.135-  18 2.37  46 2.41  64 2.41  53 2.41  32 2.43  45 2.49  30 2.50  16 2.54
                            38 2.57   7 2.59  19 2.70   8 2.75
  38  0.135  0.199  0.139-  34 2.40  26 2.44  10 2.44  46 2.48  61 2.49  16 2.52  37 2.57   8 2.58
                            31 2.64  32 2.65  11 2.71  35 2.76
  39  0.969  0.780  0.224-  62 2.40  54 2.47   3 2.47  21 2.48   1 2.50   2 2.55  52 2.57  12 2.62
                            49 2.65  60 2.67  20 2.71  55 2.82
  40  0.786  0.620  0.308-  51 2.45  12 2.49  20 2.50  80 2.60  47 2.65   9 2.65  73 2.67  68 2.69
                             3 2.72   1 2.73  14 2.77  57 2.77
  41  0.289  0.615  0.319-  52 2.50  14 2.52  15 2.56   3 2.57  60 2.58  77 2.61  27 2.62  36 2.63
                            79 2.66   2 2.66  75 2.67  23 2.71
  42  0.814  0.604  0.046-  21 2.48  25 2.48  31 2.49   6 2.52  10 2.58  48 2.65   4 2.67  17 2.90
                            59 2.92
  43  0.283  0.614  0.042-  44 2.46  54 2.47   6 2.49  45 2.49  18 2.55   5 2.60  28 2.66  17 2.66
                            24 2.79
  44  0.371  0.692  0.130-  17 2.35  43 2.46  50 2.51  54 2.54  24 2.54  45 2.55  52 2.55  36 2.56
                            35 2.56  22 2.58  25 2.76   8 2.78
  45  0.365  0.454  0.134-  18 2.39  60 2.40  54 2.41  32 2.41  64 2.43  36 2.48  37 2.49  43 2.49
                            28 2.54  44 2.55   7 2.63  22 2.69
  46  0.217  0.296  0.224-  32 2.39  60 2.40  37 2.41  64 2.44  15 2.45  38 2.48  13 2.51  53 2.55
                            12 2.56   9 2.61  61 2.77  26 2.77
  47  0.786  0.370  0.315-  61 2.51  63 2.53  51 2.54  56 2.58  76 2.59  68 2.61  33 2.62  40 2.65
                            27 2.65  70 2.65   9 2.68  14 2.74
  48  0.796  0.362  0.053-  22 2.40  31 2.46  11 2.46  58 2.65  42 2.65  10 2.66  28 2.66  34 2.77
                            17 2.82
  49  0.958  0.036  0.229-  11 2.44   2 2.45  56 2.48  62 2.48  33 2.49  35 2.50  55 2.64  61 2.65
                            39 2.65  26 2.70  63 2.72  52 2.76
  50  0.455  0.783  0.217-   8 2.44  57 2.49  44 2.51  14 2.52  25 2.52  52 2.59  26 2.61  51 2.65
                            23 2.69  20 2.71  36 2.71  53 2.79
  51  0.706  0.532  0.221-  31 2.44  22 2.44  40 2.45  47 2.54  25 2.55  14 2.59  63 2.63  61 2.65
                            50 2.65  36 2.65  20 2.72  12 2.77
  52  0.217  0.772  0.226-  35 2.39  23 2.48  41 2.50  54 2.52  44 2.55   2 2.57  39 2.57  36 2.58
                            50 2.59  60 2.62  49 2.76  26 2.77
  53  0.453  0.049  0.219-  37 2.41  57 2.45  19 2.49   8 2.49  46 2.55  29 2.56  64 2.59  26 2.60
                            55 2.63  13 2.63  20 2.72  50 2.79
  54  0.137  0.681  0.136-  60 2.41  45 2.41  32 2.45   5 2.47  39 2.47  43 2.47   6 2.52  52 2.52
                            44 2.54  21 2.56  35 2.70  62 2.78
  55  0.702  0.046  0.223-  62 2.43   7 2.44   1 2.46  63 2.53  29 2.53  19 2.54  56 2.54  53 2.63
                            49 2.64  64 2.66  20 2.69  39 2.82
  56  0.787  0.125  0.317-  49 2.48  63 2.53  55 2.54  47 2.58  65 2.60  27 2.61   1 2.61  70 2.61
                            78 2.62  33 2.63  29 2.66   2 2.68
  57  0.524  0.882  0.306-  53 2.45  50 2.49  20 2.57  13 2.61  23 2.63  80 2.65  29 2.66  69 2.67
                            72 2.69  14 2.73  40 2.77   1 2.79
  58  0.793  0.113  0.051-   7 2.46  62 2.49  11 2.51   4 2.61   5 2.63  30 2.63  48 2.65  28 2.69
                            34 2.75
  59  0.539  0.881  0.046-   8 2.39  19 2.39  25 2.45  16 2.60  30 2.67   4 2.69  17 2.74  24 2.83
                            42 2.92
  60  0.218  0.523  0.224-  32 2.40  45 2.40  46 2.40  54 2.41  64 2.42  15 2.47  36 2.55   3 2.57
                            41 2.58  12 2.59  52 2.62  39 2.67
  61  0.961  0.285  0.226-  31 2.44  11 2.44   9 2.48  38 2.49  33 2.50  47 2.51  12 2.64  49 2.65
                            51 2.65  26 2.66  46 2.77  63 2.77
  62  0.877  0.948  0.140-  39 2.40  55 2.43   5 2.43  49 2.48  58 2.49   4 2.56  21 2.62  11 2.64
                            19 2.64  35 2.66   7 2.75  54 2.78
  63  0.696  0.289  0.224-   7 2.43  11 2.49  22 2.50  36 2.50  27 2.52  55 2.53  56 2.53  47 2.53
                            64 2.58  51 2.63  49 2.72  61 2.77
  64  0.448  0.296  0.222-  37 2.41  60 2.42  45 2.43  46 2.44   7 2.46  36 2.48  29 2.53  15 2.54
                            27 2.55  63 2.58  53 2.59  55 2.66
  65  0.868  0.957  0.412-  56 2.60   2 2.62  77 2.62  78 2.62  73 2.64  67 2.64  70 2.65  72 2.65
                             1 2.68
  66  0.117  0.457  0.413-   9 2.61  71 2.62   3 2.63  68 2.63  15 2.64  73 2.64  77 2.64  79 2.65
                            74 2.65
  67  0.117  0.960  0.415-  33 2.61   2 2.62  70 2.63  71 2.63  65 2.64  75 2.64  69 2.64  23 2.65
                            77 2.67
  68  0.867  0.459  0.410-   9 2.59  47 2.61  76 2.62  73 2.62  66 2.63  80 2.64  70 2.65  71 2.65
                            40 2.69
  69  0.368  0.957  0.409-  23 2.59  13 2.61  75 2.62  80 2.63  72 2.63  74 2.64  67 2.64  71 2.65
                            57 2.67
  70  0.868  0.208  0.414-  33 2.61  56 2.61  76 2.63  67 2.63  78 2.64  71 2.65  65 2.65  47 2.65
                            68 2.65
  71  0.118  0.208  0.414-  33 2.60  66 2.62  67 2.63   9 2.63  13 2.64  70 2.65  74 2.65  69 2.65
                            68 2.65
  72  0.618  0.956  0.406-  29 2.57  80 2.62  73 2.63  69 2.63  78 2.64  74 2.64   1 2.64  65 2.65
                            57 2.69
  73  0.868  0.707  0.407-   3 2.58  77 2.62  68 2.62  72 2.63   1 2.64  80 2.64  66 2.64  65 2.64
                            40 2.67
  74  0.369  0.207  0.413-  15 2.60  79 2.61  13 2.61  78 2.63  29 2.64  72 2.64  69 2.64  71 2.65
                            66 2.65
  75  0.368  0.710  0.417-  81 1.75  69 2.62  80 2.64  67 2.64  41 2.67  76 2.67  77 2.68  23 2.70
                            79 2.71  14 2.72
  76  0.620  0.457  0.410-  27 2.58  47 2.59  68 2.62  70 2.63  80 2.65  78 2.67  14 2.67  75 2.67
                            79 2.68
  77  0.116  0.708  0.414-   2 2.60  41 2.61   3 2.62  65 2.62  73 2.62  66 2.64  67 2.67  75 2.68
                            79 2.69
  78  0.620  0.205  0.414-  27 2.59  65 2.62  56 2.62  74 2.63  70 2.64  72 2.64  79 2.64  29 2.64
                            76 2.67
  79  0.369  0.453  0.420-  81 1.76  74 2.61  78 2.64  66 2.65  41 2.66  76 2.68  77 2.69  15 2.71
                            75 2.71  27 2.74
  80  0.617  0.709  0.403-  40 2.60  14 2.61  72 2.62  69 2.63  73 2.64  68 2.64  75 2.64  57 2.65
                            76 2.65
  81  0.363  0.588  0.469-  75 1.75  79 1.76
 
  LATTYP: Found a hexagonal cell.
 ALAT       =    10.5600004196
 C/A-ratio  =     2.0833332505
  
  Lattice vectors:
  
 A1 = (   5.2800002098,  -9.1452286274,   0.0000000000)
 A2 = ( -10.5600004196,   0.0000000000,   0.0000000000)
 A3 = (   0.0000000000,   0.0000000000, -22.0000000000)


Analysis of symmetry for initial positions (statically):
=====================================================================
 Subroutine PRICEL returns:
 Original cell was already a primitive cell.
 

 Routine SETGRP: Setting up the symmetry group for a 
 hexagonal supercell.


 Subroutine GETGRP returns: Found  1 space group operations
 (whereof  1 operations were pure point group operations)
 out of a pool of 24 trial point group operations.


The static configuration has the point symmetry C_1 .


Analysis of symmetry for dynamics (positions and initial velocities):
=====================================================================
 Subroutine PRICEL returns:
 Original cell was already a primitive cell.
 

 Routine SETGRP: Setting up the symmetry group for a 
 hexagonal supercell.


 Subroutine GETGRP returns: Found  1 space group operations
 (whereof  1 operations were pure point group operations)
 out of a pool of 24 trial point group operations.


The dynamic configuration has the point symmetry C_1 .


Analysis of constrained symmetry for selective dynamics:
=====================================================================
 Subroutine PRICEL returns:
 Original cell was already a primitive cell.
 

 Routine SETGRP: Setting up the symmetry group for a 
 hexagonal supercell.


 Subroutine GETGRP returns: Found  1 space group operations
 (whereof  1 operations were pure point group operations)
 out of a pool of 24 trial point group operations.


The constrained configuration has the point symmetry C_1 .


Analysis of structural, dynamic, and magnetic symmetry:
=====================================================================
 Subroutine PRICEL returns:
 Original cell was already a primitive cell.
 

 Routine SETGRP: Setting up the symmetry group for a 
 hexagonal supercell.


 Subroutine GETGRP returns: Found  1 space group operations
 (whereof  1 operations were pure point group operations)
 out of a pool of 24 trial point group operations.


The magnetic configuration has the point symmetry C_1 .


 Subroutine INISYM returns: Found  1 space group operations
 (whereof  1 operations are pure point group operations),
 and found     1 'primitive' translations

 
 
 KPOINTS: mesh auto                               

Automatic generation of k-mesh.
Space group operators:
 irot       det(A)        alpha          n_x          n_y          n_z        tau_x        tau_y        tau_z
    1     1.000000     0.000001     1.000000     0.000000     0.000000     0.000000     0.000000     0.000000
 
 Subroutine IBZKPT returns following result:
 ===========================================
 
 Found      4 irreducible k-points:
 
 Following reciprocal coordinates:
            Coordinates               Weight
  0.000000  0.000000  0.000000      1.000000
  0.500000  0.000000  0.000000      1.000000
  0.000000  0.500000  0.000000      1.000000
  0.500000  0.500000  0.000000      1.000000
 
 Following cartesian coordinates:
            Coordinates               Weight
  0.000000  0.000000  0.000000      1.000000
  0.047348 -0.027337  0.000000      1.000000
  0.000000  0.054673  0.000000      1.000000
  0.047348  0.027337  0.000000      1.000000
 
 TETIRR: Found     12 inequivalent tetrahedra from       24
 
 Subroutine IBZKPT_HF returns following result:
 ==============================================
 
 Found      4 k-points in 1st BZ
 the following      4 k-points will be used (e.g. in the exchange kernel)
 Following reciprocal coordinates:   # in IRBZ
  0.000000  0.000000  0.000000    0.25000000   1 t-inv F
  0.500000  0.000000  0.000000    0.25000000   2 t-inv F
  0.000000  0.500000  0.000000    0.25000000   3 t-inv F
  0.500000  0.500000  0.000000    0.25000000   4 t-inv F


--------------------------------------------------------------------------------------------------------




 Dimension of arrays:
   k-points           NKPTS =      4   k-points in BZ     NKDIM =      4   number of bands    NBANDS=    480
   number of dos      NEDOS =    301   number of ions     NIONS =     81
   non local maximal  LDIM  =      6   non local SUM 2l+1 LMDIM =     18
   total plane-waves  NPLWV = ******
   max r-space proj   IRMAX =   7802   max aug-charges    IRDMAX=  33988
   dimension x,y,z NGX =    84 NGY =   84 NGZ =  168
   dimension x,y,z NGXF=   168 NGYF=  168 NGZF=  336
   support grid    NGXF=   168 NGYF=  168 NGZF=  336
   ions per type =              64  16   1
   NGX,Y,Z   is equivalent  to a cutoff of  13.22, 13.22, 12.70 a.u.
   NGXF,Y,Z  is equivalent  to a cutoff of  26.45, 26.45, 25.39 a.u.

 SYSTEM =  Pt111                                   
 POSCAR =  PtM\(2)                                 

 Startparameter for this run:
   NWRITE =      2    write-flag & timer
   PREC   = accura    normal or accurate (medium, high low for compatibility)
   ISTART =      0    job   : 0-new  1-cont  2-samecut
   ICHARG =      2    charge: 1-file 2-atom 10-const
   ISPIN  =      2    spin polarized calculation?
   LNONCOLLINEAR =      F non collinear calculations
   LSORBIT =      F    spin-orbit coupling
   INIWAV =      1    electr: 0-lowe 1-rand  2-diag
   LASPH  =      F    aspherical Exc in radial PAW
   METAGGA=      F    non-selfconsistent MetaGGA calc.

 Electronic Relaxation 1
   ENCUT  =  550.0 eV  40.42 Ry    6.36 a.u.  20.19 20.19 42.07*2*pi/ulx,y,z
   ENINI  =  550.0     initial cutoff
   ENAUG  =  511.4 eV  augmentation charge cutoff
   NELM   =    200;   NELMIN=  2; NELMDL= -5     # of ELM steps 
   EDIFF  = 0.1E-04   stopping-criterion for ELM
   LREAL  =      T    real-space projection
   NLSPLINE    = F    spline interpolate recip. space projectors
   LCOMPAT=      F    compatible to vasp.4.4
   GGA_COMPAT  = T    GGA compatible to vasp.4.4-vasp.4.6
   LMAXPAW     = -100 max onsite density
   LMAXMIX     =    2 max onsite mixed and CHGCAR
   VOSKOWN=      0    Vosko Wilk Nusair interpolation
   ROPT   =   -0.00025  -0.00025  -0.00025
 Ionic relaxation
   EDIFFG = -.5E-01   stopping-criterion for IOM
   NSW    =   1009    number of steps for IOM
   NBLOCK =      1;   KBLOCK =   1009    inner block; outer block 
   IBRION =      5    ionic relax: 0-MD 1-quasi-New 2-CG
   NFREE  =      2    steps in history (QN), initial steepest desc. (CG)
   ISIF   =      2    stress and relaxation
   IWAVPR =     11    prediction:  0-non 1-charg 2-wave 3-comb
   ISYM   =      2    0-nonsym 1-usesym 2-fastsym
   LCORR  =      T    Harris-Foulkes like correction to forces

   POTIM  = 0.5000    time-step for ionic-motion
   TEIN   =    0.0    initial temperature
   TEBEG  =    0.0;   TEEND  =   0.0 temperature during run
   SMASS  =  -3.00    Nose mass-parameter (am)
   estimated Nose-frequenzy (Omega)   =  0.10E-29 period in steps =****** mass=  -0.255E-26a.u.
   SCALEE = 1.0000    scale energy and forces
   NPACO  =    256;   APACO  = 16.0  distance and # of slots for P.C.
   PSTRESS=    0.0 pullay stress

  Mass of Ions in am
   POMASS =  55.85195.08  1.00
  Ionic Valenz
   ZVAL   =   8.00 10.00  1.00
  Atomic Wigner-Seitz radii
   RWIGS  =  -1.00 -1.00 -1.00
  virtual crystal weights 
   VCA    =   1.00  1.00  1.00
   NELECT =     673.0000    total number of electrons
   NUPDOWN=      -1.0000    fix difference up-down

 DOS related values:
   EMIN   =  10.00;   EMAX   =-10.00  energy-range for DOS
   EFERMI =   0.00
   ISMEAR =    -5;   SIGMA  =   0.10  broadening in eV -4-tet -1-fermi 0-gaus

 Electronic relaxation 2 (details)
   IALGO  =     68    algorithm
   LDIAG  =      T    sub-space diagonalisation (order eigenvalues)
   LSUBROT=      F    optimize rotation matrix (better conditioning)
   TURBO    =      0    0=normal 1=particle mesh
   IRESTART =      0    0=no restart 2=restart with 2 vectors
   NREBOOT  =      0    no. of reboots
   NMIN     =      0    reboot dimension
   EREF     =   0.00    reference energy to select bands
   IMIX   =      4    mixing-type and parameters
     AMIX     =   0.40;   BMIX     =  1.00
     AMIX_MAG =   1.60;   BMIX_MAG =  1.00
     AMIN     =   0.10
     WC   =   100.;   INIMIX=   1;  MIXPRE=   1;  MAXMIX= -45

 Intra band minimization:
   WEIMIN = 0.0010     energy-eigenvalue tresh-hold
   EBREAK =  0.52E-08  absolut break condition
   DEPER  =   0.30     relativ break condition  

   TIME   =   0.40     timestep for ELM

  volume/ion in A,a.u.               =      26.23       177.01
  Fermi-wavevector in a.u.,A,eV,Ry     =   1.115971  2.108879 16.944568  1.245391
  Thomas-Fermi vector in A             =   2.252580
 
 Write flags
   LWAVE        =      F    write WAVECAR
   LDOWNSAMPLE  =      F    k-point downsampling of WAVECAR
   LCHARG       =      F    write CHGCAR
   LVTOT        =      F    write LOCPOT, total local potential
   LVHAR        =      F    write LOCPOT, Hartree potential only
   LELF         =      F    write electronic localiz. function (ELF)
   LORBIT       =      0    0 simple, 1 ext, 2 COOP (PROOUT), +10 PAW based schemes


 Dipole corrections
   LMONO  =      F    monopole corrections only (constant potential shift)
   LDIPOL =      F    correct potential (dipole corrections)
   IDIPOL =      0    1-x, 2-y, 3-z, 4-all directions 
   EPSILON=  1.0000000 bulk dielectric constant

 Exchange correlation treatment:
   GGA     =    --    GGA type
   LEXCH   =     8    internal setting for exchange type
   VOSKOWN=      0    Vosko Wilk Nusair interpolation
   LHFCALC =     F    Hartree Fock is set to
   LHFONE  =     F    Hartree Fock one center treatment
   AEXX    =    0.0000 exact exchange contribution

 Linear response parameters
   LEPSILON=     F    determine dielectric tensor
   LRPA    =     F    only Hartree local field effects (RPA)
   LNABLA  =     F    use nabla operator in PAW spheres
   LVEL    =     F    velocity operator in full k-point grid
   LINTERFAST=   F  fast interpolation
   KINTER  =     0    interpolate to denser k-point grid
   CSHIFT  =0.1000    complex shift for real part using Kramers Kronig
   OMEGAMAX=  -1.0    maximum frequency
   DEG_THRESHOLD= 0.2000000E-02 threshold for treating states as degnerate
   RTIME   =   -0.100 relaxation time in fs
  (WPLASMAI=    0.000 imaginary part of plasma frequency in eV, 0.658/RTIME)
   DFIELD  = 0.0000000 0.0000000 0.0000000 field for delta impulse in time
 
 Orbital magnetization related:
   ORBITALMAG=     F  switch on orbital magnetization
   LCHIMAG   =     F  perturbation theory with respect to B field
   DQ        =  0.001000  dq finite difference perturbation B field
   LLRAUG    =     F  two centre corrections for induced B field



--------------------------------------------------------------------------------------------------------


 finite differences
   using selective dynamics as specified on POSCAR
   WARNING: If single coordinates had been selected the selection of coordinates
            is made according to the corresponding   d i r e c t   coordinates!
            Don't support selection of single cartesian coordinates -- sorry ...
  !
 charge density and potential will be updated during run
 spin polarized calculation
 RMM-DIIS sequential band-by-band and
  variant of blocked Davidson during initial phase
 perform sub-space diagonalisation
    before iterative eigenvector-optimisation
 modified Broyden-mixing scheme, WC =      100.0
 initial mixing is a Kerker type mixing with AMIX =  0.4000 and BMIX =      1.0000
 Hartree-type preconditioning will be used
 using additional bands          143
 real space projection scheme for non local part
 use partial core corrections
 calculate Harris-corrections to forces 
   (improved forces if not selfconsistent)
 use gradient corrections 
 use of overlap-Matrix (Vanderbilt PP)
 Fermi weights with tetrahedron method with Bloechl corrections


--------------------------------------------------------------------------------------------------------


  energy-cutoff  :      550.00
  volume of cell :     2124.62
      direct lattice vectors                 reciprocal lattice vectors
    10.560000420  0.000000000  0.000000000     0.094696966 -0.054673319  0.000000000
     5.280000210  9.145228627  0.000000000     0.000000000  0.109346638  0.000000000
     0.000000000  0.000000000 22.000000000     0.000000000  0.000000000  0.045454545

  length of vectors
    10.560000420 10.560000420 22.000000000     0.109346638  0.109346638  0.045454545


 
 k-points in units of 2pi/SCALE and weight: mesh auto                               
   0.00000000  0.00000000  0.00000000       0.250
   0.04734848 -0.02733666  0.00000000       0.250
   0.00000000  0.05467332  0.00000000       0.250
   0.04734848  0.02733666  0.00000000       0.250
 
 k-points in reciprocal lattice and weights: mesh auto                               
   0.00000000  0.00000000  0.00000000       0.250
   0.50000000  0.00000000  0.00000000       0.250
   0.00000000  0.50000000  0.00000000       0.250
   0.50000000  0.50000000  0.00000000       0.250
 
 position of ions in fractional coordinates (direct lattice) 
   0.79037291  0.87627987  0.30991315
   0.04100775  0.87200062  0.31744979
   0.04260724  0.62083482  0.31501601
   0.80262678  0.86154673  0.04548925
   0.04041952  0.86170272  0.05313215
   0.05094006  0.60623876  0.04345509
   0.61796243  0.20894070  0.13542057
   0.37710814  0.95205520  0.13151546
   0.03855135  0.37177863  0.31613003
   0.05135058  0.35331409  0.04887412
   0.87963640  0.19644551  0.14052428
   0.96883592  0.53120278  0.22392597
   0.28127587  0.13278566  0.31545615
   0.52191656  0.62435080  0.31063063
   0.28848368  0.37270548  0.31690951
   0.28932566  0.12342146  0.04415376
   0.52764202  0.62724309  0.04507467
   0.28909440  0.36894265  0.04793021
   0.62308868  0.95893090  0.13135365
   0.70847545  0.78863188  0.21815803
   0.88715030  0.69533554  0.13503616
   0.62004886  0.45380695  0.13368724
   0.27744012  0.87699523  0.31513569
   0.26874220  0.88463744  0.04648647
   0.62886211  0.69959047  0.12842619
   0.21400304  0.03486850  0.22670278
   0.53648263  0.36756839  0.31707283
   0.54121580  0.36930502  0.04425184
   0.53314716  0.12916996  0.31437608
   0.53369445  0.13558673  0.04398512
   0.88328883  0.44709780  0.13815827
   0.14022323  0.44695400  0.13555909
   0.03610873  0.12491361  0.31832900
   0.05899674  0.10183506  0.05752430
   0.13429353  0.93758220  0.14247060
   0.45857750  0.52513418  0.22291243
   0.36936136  0.21615030  0.13478133
   0.13522385  0.19851637  0.13931783
   0.96911307  0.77957248  0.22399215
   0.78627886  0.62017848  0.30771450
   0.28865725  0.61527914  0.31947082
   0.81363781  0.60358461  0.04581253
   0.28273285  0.61368477  0.04197721
   0.37110451  0.69197205  0.12976376
   0.36508999  0.45372452  0.13352880
   0.21721085  0.29578876  0.22399368
   0.78603159  0.37011941  0.31453787
   0.79556672  0.36237866  0.05257846
   0.95764693  0.03574221  0.22911573
   0.45494336  0.78324372  0.21741060
   0.70624275  0.53227012  0.22098551
   0.21657307  0.77165234  0.22649472
   0.45258500  0.04855668  0.21929468
   0.13654308  0.68114990  0.13635370
   0.70247641  0.04633630  0.22342188
   0.78712891  0.12495188  0.31678083
   0.52356334  0.88233979  0.30634438
   0.79323109  0.11303356  0.05068741
   0.53860456  0.88072804  0.04620693
   0.21792231  0.52297070  0.22371150
   0.96063821  0.28498431  0.22641046
   0.87747443  0.94780407  0.14048969
   0.69614049  0.28878055  0.22399363
   0.44842904  0.29551018  0.22227386
   0.86833964  0.95693295  0.41225660
   0.11691388  0.45704285  0.41319578
   0.11709823  0.95966051  0.41527495
   0.86681751  0.45928263  0.40983555
   0.36839853  0.95723826  0.40909078
   0.86771413  0.20774999  0.41431337
   0.11805023  0.20805002  0.41433541
   0.61827725  0.95637621  0.40643684
   0.86784738  0.70725445  0.40701245
   0.36925255  0.20693885  0.41310971
   0.36817498  0.71017144  0.41658698
   0.62014502  0.45708751  0.40984519
   0.11558741  0.70784072  0.41372114
   0.61955108  0.20497404  0.41359809
   0.36896503  0.45339557  0.42016908
   0.61725677  0.70892765  0.40268418
   0.36347193  0.58793114  0.46915918
 
 position of ions in cartesian coordinates  (Angst):
  12.97309616  8.01377978  6.81808933
   5.03720534  7.97464503  6.98389531
   3.72794043  5.67767638  6.93035227
  13.02470601  7.87904181  1.00076339
   4.97662069  7.88046837  1.16890735
   3.73886781  5.54419210  0.95601204
   7.62889049  1.91081050  2.97925250
   9.00911375  8.70676251  2.89334004
   2.37009356  3.40000057  6.95486058
   2.40776059  3.23113815  1.07523068
  10.32619303  1.79653909  3.09153417
  13.03565847  4.85797083  4.92637140
   3.67138169  1.21435526  6.94003528
   8.80801145  5.70983085  6.83387384
   5.01427282  3.40847683  6.97200913
   3.70694447  1.12871750  0.97138267
   8.88374358  5.73628142  0.99164268
   5.00085423  3.37406493  1.05446452
  11.64297204  8.76964231  2.88978026
  11.64547749  7.21221883  4.79947661
  13.03967928  6.35900246  2.97079554
   8.94381702  4.15016834  2.94111937
   7.56030283  8.02032187  6.93298521
   7.50880361  8.09021164  1.02270230
  10.33462199  6.39791481  2.82537609
   2.44397789  0.31888044  4.98746125
   7.60601803  3.36149699  6.97560219
   7.66516964  3.37737887  0.97354052
   6.31205163  1.18128885  6.91627373
   6.35171159  1.23997163  0.96767274
  11.68820690  4.08881158  3.03948197
   3.84067457  4.08749653  2.98230000
   1.04085202  1.14236350  7.00323793
   1.16069472  0.93130488  1.26553464
   6.36857396  8.57440354  3.13435310
   7.61528721  4.80247211  4.90407355
   5.04172978  1.97674389  2.96518916
   2.47613036  1.81547761  3.06499229
  14.34997731  7.12936857  4.92782721
  11.57764766  5.67167403  6.76971899
   6.29689472  5.62686841  7.02835808
  11.77894245  5.51991923  1.00787576
   6.22591477  5.61228756  0.92349870
   7.57247639  6.32824264  2.85480283
   6.25101599  4.14941446  2.93763351
   3.85551135  2.70505585  4.92786086
  10.25472453  3.38482664  6.91983309
  10.31454426  3.31403569  1.15672606
  10.30147082  0.32687068  5.04054612
   8.93972904  7.16294286  4.78303310
  10.26831005  4.86773191  4.86168129
   6.36133622  7.05693706  4.98288395
   5.03567706  0.44406195  4.82448290
   5.03836660  6.22927156  2.99978141
   7.66280681  0.42375603  4.91528130
   8.97182764  1.14271355  6.96917821
  10.18758339  8.06919908  6.73957628
   8.97333784  1.03371774  1.11512301
  10.33790857  8.05445927  1.01655249
   5.06254507  4.78268665  4.92165307
  11.64905716  2.60624666  4.98103014
  14.27053609  8.66788494  3.09077329
   8.87600523  2.64096413  4.92785983
   6.29570469  2.70250815  4.89002486
  14.22227309  8.75137057  9.06964530
   3.64779700  4.17976138  9.09030719
   6.30356509  8.77631476  9.13604881
  11.57860563  4.20024464  9.01638203
   8.94450689  8.75416278  8.99999711
  10.25998156  1.89992114  9.11489412
   2.34511469  1.90266502  9.11537902
  11.57867458  8.74627906  8.94161047
  12.89877237  6.46800364  8.95427384
   4.99194431  1.89250312  9.08841353
   7.63763328  6.49468018  9.16491365
   8.96215381  4.18016977  9.01659408
   4.95800222  6.47336520  9.10186501
   7.62472269  1.87453446  9.09915799
   6.29019953  4.14640610  9.24371986
  10.26136987  6.48330542  8.85905196
   6.94254030  5.37676467 10.32150206
 


--------------------------------------------------------------------------------------------------------


 k-point  1 :   0.0000 0.0000 0.0000  plane waves:   62167
 k-point  2 :   0.5000 0.0000 0.0000  plane waves:   62242
 k-point  3 :   0.0000 0.5000 0.0000  plane waves:   62242
 k-point  4 :   0.5000 0.5000 0.0000  plane waves:   62242

 maximum and minimum number of plane-waves per node :     62242    62167

 maximum number of plane-waves:     62242
 maximum index in each direction: 
   IXMAX=   20   IYMAX=   20   IZMAX=   42
   IXMIN=  -20   IYMIN=  -20   IZMIN=  -42


 serial   3D FFT for wavefunctions
 parallel 3D FFT for charge:
    minimum data exchange during FFTs selected (reduces bandwidth)


 total amount of memory used by VASP MPI-rank0   370718. kBytes
=======================================================================

   base      :      30000. kBytes
   nonlr-proj:     106253. kBytes
   fftplans  :      13995. kBytes
   grid      :     120016. kBytes
   one-center:       2519. kBytes
   wavefun   :      97935. kBytes
 
     INWAV:  cpu time    0.0000: real time    0.0000
 Broyden mixing: mesh for mixing (old mesh)
   NGX = 41   NGY = 41   NGZ = 85
  (NGX  =168   NGY  =168   NGZ  =336)
  gives a total of 142885 points

 initial charge density was supplied:
 charge density of overlapping atoms calculated
 number of electron     673.0000000 magnetization      81.0000000
 keeping initial charge density in first step


--------------------------------------------------------------------------------------------------------


 Maximum index for non-local projection operator         7557
 Maximum index for augmentation-charges         1484 (set IRDMAX)


--------------------------------------------------------------------------------------------------------


 First call to EWALD:  gamma=   0.138
 Maximum number of real-space cells 4x 4x 2
 Maximum number of reciprocal cells 2x 2x 4

    FEWALD:  cpu time    0.0039: real time    0.0039


--------------------------------------- Iteration      1(   1)  ---------------------------------------


    POTLOK:  cpu time    0.4458: real time    0.5510
    SETDIJ:  cpu time    0.0310: real time    0.0313
     EDDAV:  cpu time   44.6857: real time   44.8721
 BZINTS: Fermi energy: 13.536691;673.000000 electrons
         Band energy:5924.137869;  BLOECHL correction: -0.008034
       DOS:  cpu time    0.0155: real time    0.0157
    --------------------------------------------
      LOOP:  cpu time   45.1781: real time   45.4701

 eigenvalue-minimisations  :  7680
 total energy-change (2. order) : 0.6220867E+04  (-0.2867559E+05)
 number of electron     673.0000000 magnetization      81.0000000
 augmentation part      673.0000000 magnetization      81.0000000

 Free energy of the ion-electron system (eV)
  ---------------------------------------------------
  alpha Z        PSCENC =      2233.95880446
  Ewald energy   TEWEN  =    179077.25961440
  -Hartree energ DENC   =   -230990.59572960
  -exchange      EXHF   =         0.00000000
  -V(xc)+E(xc)   XCENC  =       302.35690357
  PAW double counting   =     46641.04533170   -46681.65690566
  entropy T*S    EENTRO =         0.00000000
  eigenvalues    EBANDS =      5924.13786907
  atomic energy  EATOM  =     49714.36128149
  Solvation  Ediel_sol  =         0.00000000
  ---------------------------------------------------
  free energy    TOTEN  =      6220.86716943 eV

  energy without entropy =     6220.86716943  energy(sigma->0) =     6220.86716943


--------------------------------------------------------------------------------------------------------




--------------------------------------- Iteration      1(   2)  ---------------------------------------


     EDDAV:  cpu time   44.7132: real time   44.8319
 BZINTS: Fermi energy:  3.015200;673.000000 electrons
         Band energy:-198.615363;  BLOECHL correction: -0.005757
       DOS:  cpu time    0.0145: real time    0.0145
    --------------------------------------------
      LOOP:  cpu time   44.7276: real time   44.8464

 eigenvalue-minimisations  :  7680
 total energy-change (2. order) :-0.6122753E+04  (-0.5742045E+04)
 number of electron     673.0000000 magnetization      81.0000000
 augmentation part      673.0000000 magnetization      81.0000000

 Free energy of the ion-electron system (eV)
  ---------------------------------------------------
  alpha Z        PSCENC =      2233.95880446
  Ewald energy   TEWEN  =    179077.25961440
  -Hartree energ DENC   =   -230990.59572960
  -exchange      EXHF   =         0.00000000
  -V(xc)+E(xc)   XCENC  =       302.35690357
  PAW double counting   =     46641.04533170   -46681.65690566
  entropy T*S    EENTRO =         0.00000000
  eigenvalues    EBANDS =      -198.61536303
  atomic energy  EATOM  =     49714.36128149
  Solvation  Ediel_sol  =         0.00000000
  ---------------------------------------------------
  free energy    TOTEN  =        98.11393733 eV

  energy without entropy =       98.11393733  energy(sigma->0) =       98.11393733


--------------------------------------------------------------------------------------------------------




--------------------------------------- Iteration      1(   3)  ---------------------------------------


     EDDAV:  cpu time   52.0602: real time   52.1986
 BZINTS: Fermi energy:  1.697048;673.000000 electrons
         Band energy:-903.614230;  BLOECHL correction: -0.037245
       DOS:  cpu time    0.0146: real time    0.0147
    --------------------------------------------
      LOOP:  cpu time   52.0749: real time   52.2132

 eigenvalue-minimisations  :  9240
 total energy-change (2. order) :-0.7049989E+03  (-0.5363464E+03)
 number of electron     673.0000000 magnetization      81.0000000
 augmentation part      673.0000000 magnetization      81.0000000

 Free energy of the ion-electron system (eV)
  ---------------------------------------------------
  alpha Z        PSCENC =      2233.95880446
  Ewald energy   TEWEN  =    179077.25961440
  -Hartree energ DENC   =   -230990.59572960
  -exchange      EXHF   =         0.00000000
  -V(xc)+E(xc)   XCENC  =       302.35690357
  PAW double counting   =     46641.04533170   -46681.65690566
  entropy T*S    EENTRO =         0.00000000
  eigenvalues    EBANDS =      -903.61423043
  atomic energy  EATOM  =     49714.36128149
  Solvation  Ediel_sol  =         0.00000000
  ---------------------------------------------------
  free energy    TOTEN  =      -606.88493007 eV

  energy without entropy =     -606.88493007  energy(sigma->0) =     -606.88493007


--------------------------------------------------------------------------------------------------------




--------------------------------------- Iteration      1(   4)  ---------------------------------------


     EDDAV:  cpu time   61.2449: real time   61.4076
 BZINTS: Fermi energy:  1.541526;673.000000 electrons
         Band energy:-978.537982;  BLOECHL correction: -0.004169
       DOS:  cpu time    0.0150: real time    0.0150
    --------------------------------------------
      LOOP:  cpu time   61.2599: real time   61.4226

 eigenvalue-minimisations  : 11320
 total energy-change (2. order) :-0.7492375E+02  (-0.6730702E+02)
 number of electron     673.0000000 magnetization      81.0000000
 augmentation part      673.0000000 magnetization      81.0000000

 Free energy of the ion-electron system (eV)
  ---------------------------------------------------
  alpha Z        PSCENC =      2233.95880446
  Ewald energy   TEWEN  =    179077.25961440
  -Hartree energ DENC   =   -230990.59572960
  -exchange      EXHF   =         0.00000000
  -V(xc)+E(xc)   XCENC  =       302.35690357
  PAW double counting   =     46641.04533170   -46681.65690566
  entropy T*S    EENTRO =         0.00000000
  eigenvalues    EBANDS =      -978.53798211
  atomic energy  EATOM  =     49714.36128149
  Solvation  Ediel_sol  =         0.00000000
  ---------------------------------------------------
  free energy    TOTEN  =      -681.80868175 eV

  energy without entropy =     -681.80868175  energy(sigma->0) =     -681.80868175


--------------------------------------------------------------------------------------------------------




--------------------------------------- Iteration      1(   5)  ---------------------------------------


     EDDAV:  cpu time   59.1474: real time   59.3049
 BZINTS: Fermi energy:  1.531547;673.000000 electrons
         Band energy:-980.427397;  BLOECHL correction: -0.003904
       DOS:  cpu time    0.0153: real time    0.0153
    CHARGE:  cpu time    2.3261: real time    2.3326
    MIXING:  cpu time    0.0088: real time    0.0096
    --------------------------------------------
      LOOP:  cpu time   61.4977: real time   61.6625

 eigenvalue-minimisations  : 10800
 total energy-change (2. order) :-0.1889415E+01  (-0.1844328E+01)
 number of electron     673.0000022 magnetization      77.7712491
 augmentation part      274.6724216 magnetization      60.1440331

 Broyden mixing:
  rms(total) = 0.96120E+01    rms(broyden)= 0.96119E+01
  rms(prec ) = 0.10300E+02
  weight for this iteration     100.00

 Free energy of the ion-electron system (eV)
  ---------------------------------------------------
  alpha Z        PSCENC =      2233.95880446
  Ewald energy   TEWEN  =    179077.25961440
  -Hartree energ DENC   =   -230990.59572960
  -exchange      EXHF   =         0.00000000
  -V(xc)+E(xc)   XCENC  =       302.35690357
  PAW double counting   =     46641.04533170   -46681.65690566
  entropy T*S    EENTRO =         0.00000000
  eigenvalues    EBANDS =      -980.42739672
  atomic energy  EATOM  =     49714.36128149
  Solvation  Ediel_sol  =         0.00000000
  ---------------------------------------------------
  free energy    TOTEN  =      -683.69809636 eV

  energy without entropy =     -683.69809636  energy(sigma->0) =     -683.69809636


--------------------------------------------------------------------------------------------------------




--------------------------------------- Iteration      1(   6)  ---------------------------------------


    POTLOK:  cpu time    0.4158: real time    0.4168
    SETDIJ:  cpu time    0.0322: real time    0.0323
    EDDIAG:  cpu time    6.8603: real time    6.8776
  RMM-DIIS:  cpu time   28.2823: real time   28.3511
    ORTHCH:  cpu time    0.9001: real time    0.9023
 BZINTS: Fermi energy:  1.151525;673.000000 electrons
         Band energy:***********;  BLOECHL correction: -0.010386
       DOS:  cpu time    0.0155: real time    0.0155
    CHARGE:  cpu time    2.2901: real time    2.2955
    MIXING:  cpu time    0.0093: real time    0.0094
    --------------------------------------------
      LOOP:  cpu time   38.8055: real time   38.9005

 eigenvalue-minimisations  :  7692
 total energy-change (2. order) :-0.3750982E+03  (-0.1200297E+03)
 number of electron     673.0000025 magnetization      76.9008713
 augmentation part      325.6747525 magnetization      64.2222492

 Broyden mixing:
  rms(total) = 0.24862E+02    rms(broyden)= 0.24862E+02
  rms(prec ) = 0.29658E+02
  weight for this iteration     100.00

 eigenvalues of (default mixing * dielectric matrix)
  average eigenvalue GAMMA=   0.1473
  0.1473

 Free energy of the ion-electron system (eV)
  ---------------------------------------------------
  alpha Z        PSCENC =      2233.95880446
  Ewald energy   TEWEN  =    179077.25961440
  -Hartree energ DENC   =   -230364.91441412
  -exchange      EXHF   =         0.00000000
  -V(xc)+E(xc)   XCENC  =       247.16522553
  PAW double counting   =     50407.40999555   -50331.58373143
  entropy T*S    EENTRO =         0.00000000
  eigenvalues    EBANDS =     -2042.45306384
  atomic energy  EATOM  =     49714.36128149
  Solvation  Ediel_sol  =         0.00000000
  ---------------------------------------------------
  free energy    TOTEN  =     -1058.79628797 eV

  energy without entropy =    -1058.79628797  energy(sigma->0) =    -1058.79628797


--------------------------------------------------------------------------------------------------------




--------------------------------------- Iteration      1(   7)  ---------------------------------------


    POTLOK:  cpu time    0.4141: real time    0.4151
    SETDIJ:  cpu time    0.0322: real time    0.0323
    EDDIAG:  cpu time    6.8429: real time    6.8593
  RMM-DIIS:  cpu time   28.4454: real time   28.5127
    ORTHCH:  cpu time    0.9043: real time    0.9065
 BZINTS: Fermi energy: -0.522767;673.000000 electrons
         Band energy:***********;  BLOECHL correction: -0.008813
       DOS:  cpu time    0.0137: real time    0.0138
    CHARGE:  cpu time    2.3176: real time    2.3232
    MIXING:  cpu time    0.0100: real time    0.0100
    --------------------------------------------
      LOOP:  cpu time   38.9803: real time   39.0728

 eigenvalue-minimisations  :  7711
 total energy-change (2. order) : 0.4108366E+03  (-0.3237506E+02)
 number of electron     673.0000028 magnetization      75.3597587
 augmentation part      330.9094655 magnetization      58.5350874

 Broyden mixing:
  rms(total) = 0.12970E+02    rms(broyden)= 0.12970E+02
  rms(prec ) = 0.15872E+02
  weight for this iteration     100.00

 eigenvalues of (default mixing * dielectric matrix)
  average eigenvalue GAMMA=   0.3029
  0.4914  0.1144

 Free energy of the ion-electron system (eV)
  ---------------------------------------------------
  alpha Z        PSCENC =      2233.95880446
  Ewald energy   TEWEN  =    179077.25961440
  -Hartree energ DENC   =   -229987.85712134
  -exchange      EXHF   =         0.00000000
  -V(xc)+E(xc)   XCENC  =       248.81584354
  PAW double counting   =     51230.75206390   -51177.64737063
  entropy T*S    EENTRO =         0.00000000
  eigenvalues    EBANDS =     -1987.60277563
  atomic energy  EATOM  =     49714.36128149
  Solvation  Ediel_sol  =         0.00000000
  ---------------------------------------------------
  free energy    TOTEN  =      -647.95965982 eV

  energy without entropy =     -647.95965982  energy(sigma->0) =     -647.95965982


--------------------------------------------------------------------------------------------------------




--------------------------------------- Iteration      1(   8)  ---------------------------------------


    POTLOK:  cpu time    0.4123: real time    0.4133
    SETDIJ:  cpu time    0.0322: real time    0.0323
    EDDIAG:  cpu time    6.8231: real time    6.8394
  RMM-DIIS:  cpu time   28.0944: real time   28.1608
    ORTHCH:  cpu time    0.8971: real time    0.8993
 BZINTS: Fermi energy:  0.722417;673.000000 electrons
         Band energy:***********;  BLOECHL correction: -0.011836
       DOS:  cpu time    0.0165: real time    0.0165
    CHARGE:  cpu time    2.2575: real time    2.2629
    MIXING:  cpu time    0.0094: real time    0.0095
    --------------------------------------------
      LOOP:  cpu time   38.5426: real time   38.6340

 eigenvalue-minimisations  :  7686
 total energy-change (2. order) :-0.3480405E+03  (-0.1769481E+02)
 number of electron     673.0000026 magnetization      74.0526182
 augmentation part      322.4053376 magnetization      61.0316315

 Broyden mixing:
  rms(total) = 0.21247E+02    rms(broyden)= 0.21247E+02
  rms(prec ) = 0.29203E+02
  weight for this iteration     100.00

 eigenvalues of (default mixing * dielectric matrix)
  average eigenvalue GAMMA=   0.3100
  0.6780  0.1687  0.0834

 Free energy of the ion-electron system (eV)
  ---------------------------------------------------
  alpha Z        PSCENC =      2233.95880446
  Ewald energy   TEWEN  =    179077.25961440
  -Hartree energ DENC   =   -230218.35587307
  -exchange      EXHF   =         0.00000000
  -V(xc)+E(xc)   XCENC  =       261.00243373
  PAW double counting   =     53006.33184041   -53039.82901746
  entropy T*S    EENTRO =         0.00000000
  eigenvalues    EBANDS =     -2030.72923982
  atomic energy  EATOM  =     49714.36128149
  Solvation  Ediel_sol  =         0.00000000
  ---------------------------------------------------
  free energy    TOTEN  =      -996.00015585 eV

  energy without entropy =     -996.00015585  energy(sigma->0) =     -996.00015585


--------------------------------------------------------------------------------------------------------




--------------------------------------- Iteration      1(   9)  ---------------------------------------


    POTLOK:  cpu time    0.4140: real time    0.4149
    SETDIJ:  cpu time    0.0323: real time    0.0324
    EDDIAG:  cpu time    6.8181: real time    6.8344
  RMM-DIIS:  cpu time   28.2936: real time   28.3686
    ORTHCH:  cpu time    0.8994: real time    0.9015
 BZINTS: Fermi energy:  1.203429;673.000000 electrons
         Band energy:***********;  BLOECHL correction: -0.023493
       DOS:  cpu time    0.0156: real time    0.0157
    CHARGE:  cpu time    2.2559: real time    2.2614
    MIXING:  cpu time    0.0095: real time    0.0095
    --------------------------------------------
      LOOP:  cpu time   38.7384: real time   38.8383

 eigenvalue-minimisations  :  7689
 total energy-change (2. order) : 0.2135968E+03  (-0.8975335E+01)
 number of electron     673.0000023 magnetization      72.9115432
 augmentation part      312.4069134 magnetization      57.4864112

 Broyden mixing:
  rms(total) = 0.17697E+02    rms(broyden)= 0.17697E+02
  rms(prec ) = 0.21714E+02
  weight for this iteration     100.00

 eigenvalues of (default mixing * dielectric matrix)
  average eigenvalue GAMMA=   0.3005
  0.7923  0.2440  0.0829  0.0829

 Free energy of the ion-electron system (eV)
  ---------------------------------------------------
  alpha Z        PSCENC =      2233.95880446
  Ewald energy   TEWEN  =    179077.25961440
  -Hartree energ DENC   =   -230713.44443756
  -exchange      EXHF   =         0.00000000
  -V(xc)+E(xc)   XCENC  =       265.63207822
  PAW double counting   =     54256.55176412   -54334.39008108
  entropy T*S    EENTRO =         0.00000000
  eigenvalues    EBANDS =     -1282.33233149
  atomic energy  EATOM  =     49714.36128149
  Solvation  Ediel_sol  =         0.00000000
  ---------------------------------------------------
  free energy    TOTEN  =      -782.40330744 eV

  energy without entropy =     -782.40330744  energy(sigma->0) =     -782.40330744


--------------------------------------------------------------------------------------------------------




--------------------------------------- Iteration      1(  10)  ---------------------------------------


    POTLOK:  cpu time    0.4130: real time    0.4139
    SETDIJ:  cpu time    0.0322: real time    0.0323
    EDDIAG:  cpu time    6.8461: real time    6.8624
  RMM-DIIS:  cpu time   28.0555: real time   28.1217
    ORTHCH:  cpu time    1.0122: real time    1.0146
 BZINTS: Fermi energy:  0.923145;673.000000 electrons
         Band energy:***********;  BLOECHL correction: -0.045248
       DOS:  cpu time    0.0145: real time    0.0146
    CHARGE:  cpu time    2.2817: real time    2.2871
    MIXING:  cpu time    0.0100: real time    0.0101
    --------------------------------------------
      LOOP:  cpu time   38.6652: real time   38.7568

 eigenvalue-minimisations  :  7684
 total energy-change (2. order) : 0.1206187E+03  (-0.1133747E+02)
 number of electron     673.0000025 magnetization      71.6821051
 augmentation part      309.6018053 magnetization      54.8389281

 Broyden mixing:
  rms(total) = 0.13427E+02    rms(broyden)= 0.13427E+02
  rms(prec ) = 0.16558E+02
  weight for this iteration     100.00

 eigenvalues of (default mixing * dielectric matrix)
  average eigenvalue GAMMA=   0.3249
  0.9310  0.3914  0.1187  0.1187  0.0648

 Free energy of the ion-electron system (eV)
  ---------------------------------------------------
  alpha Z        PSCENC =      2233.95880446
  Ewald energy   TEWEN  =    179077.25961440
  -Hartree energ DENC   =   -230599.40353943
  -exchange      EXHF   =         0.00000000
  -V(xc)+E(xc)   XCENC  =       267.85607566
  PAW double counting   =     55094.41617786   -55195.94626678
  entropy T*S    EENTRO =         0.00000000
  eigenvalues    EBANDS =     -1254.28673975
  atomic energy  EATOM  =     49714.36128149
  Solvation  Ediel_sol  =         0.00000000
  ---------------------------------------------------
  free energy    TOTEN  =      -661.78459211 eV

  energy without entropy =     -661.78459211  energy(sigma->0) =     -661.78459211


--------------------------------------------------------------------------------------------------------




--------------------------------------- Iteration      1(  11)  ---------------------------------------


    POTLOK:  cpu time    0.4123: real time    0.4134
    SETDIJ:  cpu time    0.0321: real time    0.0322
    EDDIAG:  cpu time    6.8165: real time    6.8328
  RMM-DIIS:  cpu time   28.5451: real time   28.6126
    ORTHCH:  cpu time    0.8993: real time    0.9015
 BZINTS: Fermi energy:  0.704564;673.000000 electrons
         Band energy:***********;  BLOECHL correction: -0.044806
       DOS:  cpu time    0.0159: real time    0.0159
    CHARGE:  cpu time    2.2475: real time    2.2529
    MIXING:  cpu time    0.0104: real time    0.0105
    --------------------------------------------
      LOOP:  cpu time   38.9792: real time   39.0717

 eigenvalue-minimisations  :  7705
 total energy-change (2. order) : 0.1578233E+02  (-0.6887568E+01)
 number of electron     673.0000023 magnetization      70.5245504
 augmentation part      311.8793328 magnetization      55.4180527

 Broyden mixing:
  rms(total) = 0.13172E+02    rms(broyden)= 0.13172E+02
  rms(prec ) = 0.15489E+02
  weight for this iteration     100.00

 eigenvalues of (default mixing * dielectric matrix)
  average eigenvalue GAMMA=   0.3289
  1.0508  0.4649  0.1845  0.1037  0.1037  0.0662

 Free energy of the ion-electron system (eV)
  ---------------------------------------------------
  alpha Z        PSCENC =      2233.95880446
  Ewald energy   TEWEN  =    179077.25961440
  -Hartree energ DENC   =   -230497.21630397
  -exchange      EXHF   =         0.00000000
  -V(xc)+E(xc)   XCENC  =       268.07796758
  PAW double counting   =     55835.99293906   -55947.76789841
  entropy T*S    EENTRO =         0.00000000
  eigenvalues    EBANDS =     -1330.66866845
  atomic energy  EATOM  =     49714.36128149
  Solvation  Ediel_sol  =         0.00000000
  ---------------------------------------------------
  free energy    TOTEN  =      -646.00226385 eV

  energy without entropy =     -646.00226385  energy(sigma->0) =     -646.00226385


--------------------------------------------------------------------------------------------------------




--------------------------------------- Iteration      1(  12)  ---------------------------------------


    POTLOK:  cpu time    0.4108: real time    0.4117
    SETDIJ:  cpu time    0.0318: real time    0.0319
    EDDIAG:  cpu time    6.8144: real time    6.8308
  RMM-DIIS:  cpu time   28.0865: real time   28.1528
    ORTHCH:  cpu time    0.8989: real time    0.9010
 BZINTS: Fermi energy:  0.555171;673.000000 electrons
         Band energy:***********;  BLOECHL correction: -0.002285
       DOS:  cpu time    0.0155: real time    0.0155
    CHARGE:  cpu time    2.3163: real time    2.3218
    MIXING:  cpu time    0.0108: real time    0.0108
    --------------------------------------------
      LOOP:  cpu time   38.5849: real time   38.6763

 eigenvalue-minimisations  :  7694
 total energy-change (2. order) : 0.3728780E+02  (-0.5753794E+01)
 number of electron     673.0000028 magnetization      69.8920793
 augmentation part      314.5939001 magnetization      51.5678234

 Broyden mixing:
  rms(total) = 0.97547E+01    rms(broyden)= 0.97546E+01
  rms(prec ) = 0.11332E+02
  weight for this iteration     100.00

 eigenvalues of (default mixing * dielectric matrix)
  average eigenvalue GAMMA=   0.3350
  1.0994  0.4364  0.4364  0.1126  0.1126  0.0667  0.0809

 Free energy of the ion-electron system (eV)
  ---------------------------------------------------
  alpha Z        PSCENC =      2233.95880446
  Ewald energy   TEWEN  =    179077.25961440
  -Hartree energ DENC   =   -230441.27847339
  -exchange      EXHF   =         0.00000000
  -V(xc)+E(xc)   XCENC  =       266.80074959
  PAW double counting   =     56382.96509391   -56498.39526199
  entropy T*S    EENTRO =         0.00000000
  eigenvalues    EBANDS =     -1344.38626740
  atomic energy  EATOM  =     49714.36128149
  Solvation  Ediel_sol  =         0.00000000
  ---------------------------------------------------
  free energy    TOTEN  =      -608.71445894 eV

  energy without entropy =     -608.71445894  energy(sigma->0) =     -608.71445894


--------------------------------------------------------------------------------------------------------




--------------------------------------- Iteration      1(  13)  ---------------------------------------


    POTLOK:  cpu time    0.4122: real time    0.4132
    SETDIJ:  cpu time    0.0321: real time    0.0322
    EDDIAG:  cpu time    6.8114: real time    6.8277
  RMM-DIIS:  cpu time   28.1986: real time   28.2654
    ORTHCH:  cpu time    0.8969: real time    0.8991
 BZINTS: Fermi energy:  0.738410;673.000000 electrons
         Band energy:***********;  BLOECHL correction: -0.021126
       DOS:  cpu time    0.0158: real time    0.0158
    CHARGE:  cpu time    2.3426: real time    2.3481
    MIXING:  cpu time    0.0132: real time    0.0132
    --------------------------------------------
      LOOP:  cpu time   38.7227: real time   38.8146

 eigenvalue-minimisations  :  7693
 total energy-change (2. order) : 0.5229062E+01  (-0.2918629E+01)
 number of electron     673.0000021 magnetization      69.4294240
 augmentation part      311.2821146 magnetization      50.2116908

 Broyden mixing:
  rms(total) = 0.88213E+01    rms(broyden)= 0.88212E+01
  rms(prec ) = 0.10112E+02
  weight for this iteration     100.00

 eigenvalues of (default mixing * dielectric matrix)
  average eigenvalue GAMMA=   0.3314
  1.1594  0.5114  0.5114  0.1187  0.1187  0.0888  0.0696  0.0731

 Free energy of the ion-electron system (eV)
  ---------------------------------------------------
  alpha Z        PSCENC =      2233.95880446
  Ewald energy   TEWEN  =    179077.25961440
  -Hartree energ DENC   =   -230497.64785837
  -exchange      EXHF   =         0.00000000
  -V(xc)+E(xc)   XCENC  =       265.83243611
  PAW double counting   =     56714.90185795   -56840.51004533
  entropy T*S    EENTRO =         0.00000000
  eigenvalues    EBANDS =     -1271.64148756
  atomic energy  EATOM  =     49714.36128149
  Solvation  Ediel_sol  =         0.00000000
  ---------------------------------------------------
  free energy    TOTEN  =      -603.48539686 eV

  energy without entropy =     -603.48539686  energy(sigma->0) =     -603.48539686


--------------------------------------------------------------------------------------------------------




--------------------------------------- Iteration      1(  14)  ---------------------------------------


    POTLOK:  cpu time    0.4624: real time    0.4635
    SETDIJ:  cpu time    0.0411: real time    0.0412
    EDDIAG:  cpu time    6.9685: real time    6.9873
  RMM-DIIS:  cpu time   28.1939: real time   28.2607
    ORTHCH:  cpu time    0.9012: real time    0.9034
 BZINTS: Fermi energy:  0.760107;673.000000 electrons
         Band energy:***********;  BLOECHL correction: -0.007531
       DOS:  cpu time    0.0140: real time    0.0140
    CHARGE:  cpu time    2.3302: real time    2.3358
    MIXING:  cpu time    0.0120: real time    0.0120
    --------------------------------------------
      LOOP:  cpu time   38.9234: real time   39.0179

 eigenvalue-minimisations  :  7694
 total energy-change (2. order) : 0.2356461E+02  (-0.1488352E+01)
 number of electron     673.0000027 magnetization      69.3289266
 augmentation part      310.0527959 magnetization      50.1397297

 Broyden mixing:
  rms(total) = 0.48101E+01    rms(broyden)= 0.48099E+01
  rms(prec ) = 0.54481E+01
  weight for this iteration     100.00

 eigenvalues of (default mixing * dielectric matrix)
  average eigenvalue GAMMA=   0.3125
  1.1908  0.5140  0.5140  0.1576  0.0994  0.0994  0.1003  0.0683  0.0683

 Free energy of the ion-electron system (eV)
  ---------------------------------------------------
  alpha Z        PSCENC =      2233.95880446
  Ewald energy   TEWEN  =    179077.25961440
  -Hartree energ DENC   =   -230534.79606527
  -exchange      EXHF   =         0.00000000
  -V(xc)+E(xc)   XCENC  =       265.64767154
  PAW double counting   =     57021.01162407   -57151.57419117
  entropy T*S    EENTRO =         0.00000000
  eigenvalues    EBANDS =     -1205.78953013
  atomic energy  EATOM  =     49714.36128149
  Solvation  Ediel_sol  =         0.00000000
  ---------------------------------------------------
  free energy    TOTEN  =      -579.92079061 eV

  energy without entropy =     -579.92079061  energy(sigma->0) =     -579.92079061


--------------------------------------------------------------------------------------------------------




--------------------------------------- Iteration      1(  15)  ---------------------------------------


    POTLOK:  cpu time    0.4153: real time    0.4162
    SETDIJ:  cpu time    0.0321: real time    0.0322
    EDDIAG:  cpu time    6.7851: real time    6.8012
  RMM-DIIS:  cpu time   28.2215: real time   28.2882
    ORTHCH:  cpu time    0.8994: real time    0.9015
 BZINTS: Fermi energy:  0.657838;673.000000 electrons
         Band energy:***********;  BLOECHL correction: -0.013029
       DOS:  cpu time    0.0154: real time    0.0155
    CHARGE:  cpu time    2.3312: real time    2.3368
    MIXING:  cpu time    0.0115: real time    0.0115
    --------------------------------------------
      LOOP:  cpu time   38.7114: real time   38.8032

 eigenvalue-minimisations  :  7694
 total energy-change (2. order) : 0.3201363E+01  (-0.4467622E+00)
 number of electron     673.0000025 magnetization      69.3704006
 augmentation part      311.1530030 magnetization      50.1803280

 Broyden mixing:
  rms(total) = 0.36419E+01    rms(broyden)= 0.36419E+01
  rms(prec ) = 0.40788E+01
  weight for this iteration     100.00

 eigenvalues of (default mixing * dielectric matrix)
  average eigenvalue GAMMA=   0.2901
  1.1958  0.5098  0.5098  0.1656  0.1057  0.1057  0.1069  0.0678  0.0678  0.0665

 Free energy of the ion-electron system (eV)
  ---------------------------------------------------
  alpha Z        PSCENC =      2233.95880446
  Ewald energy   TEWEN  =    179077.25961440
  -Hartree energ DENC   =   -230510.32559477
  -exchange      EXHF   =         0.00000000
  -V(xc)+E(xc)   XCENC  =       265.20681613
  PAW double counting   =     57140.54291055   -57270.01925023
  entropy T*S    EENTRO =         0.00000000
  eigenvalues    EBANDS =     -1227.70400934
  atomic energy  EATOM  =     49714.36128149
  Solvation  Ediel_sol  =         0.00000000
[...]
      7.572476  6.328243  2.854803            0           0           0  
      6.251016  4.149414  2.937634            0           0           0  
      3.855511  2.705056  4.927861            0           0           0  
     10.254725  3.384827  6.919833            0           0           0  
     10.314544  3.314036  1.156726            0           0           0  
     10.301471  0.326871  5.040546            0           0           0  
      8.939729  7.162943  4.783033            0           0           0  
     10.268310  4.867732  4.861681            0           0           0  
      6.361336  7.056937  4.982884            0           0           0  
      5.035677  0.444062  4.824483            0           0           0  
      5.038367  6.229272  2.999781            0           0           0  
      7.662807  0.423756  4.915281            0           0           0  
      8.971828  1.142714  6.969178            0           0           0  
     10.187583  8.069199  6.739576            0           0           0  
      8.973338  1.033718  1.115123            0           0           0  
     10.337909  8.054459  1.016552            0           0           0  
      5.062545  4.782687  4.921653            0           0           0  
     11.649057  2.606247  4.981030            0           0           0  
     14.270536  8.667885  3.090773            0           0           0  
      8.876005  2.640964  4.927860            0           0           0  
      6.295705  2.702508  4.890025            0           0           0  
     14.222273  8.751371  9.069645            0           0           0  
      3.647797  4.179761  9.090307            0           0           0  
      6.303565  8.776315  9.136049            0           0           0  
     11.578606  4.200245  9.016382            0           0           0  
      8.944507  8.754163  8.999997            0           0           0  
     10.259982  1.899921  9.114894            0           0           0  
      2.345115  1.902665  9.115379            0           0           0  
     11.578675  8.746279  8.941610            0           0           0  
     12.898772  6.468004  8.954274            0           0           0  
      4.991944  1.892503  9.088414            0           0           0  
      7.637633  6.494680  9.164914            0           0           0  
      8.962154  4.180170  9.016594            0           0           0  
      4.958002  6.473365  9.101865            0           0           0  
      7.624723  1.874534  9.099158            0           0           0  
      6.290200  4.146406  9.243720            0           0           0  
     10.261370  6.483305  8.859052            0           0           0  
      6.942540  5.376765 10.321502    -0.046066   -0.011749    0.998869  
 
   2 f  =   28.888542 THz   181.512064 2PiTHz  963.618017 cm-1   119.473450 meV
             X         Y         Z           dx          dy          dz
     12.973096  8.013780  6.818089            0           0           0  
      5.037205  7.974645  6.983895            0           0           0  
      3.727940  5.677676  6.930352            0           0           0  
     13.024706  7.879042  1.000763            0           0           0  
      4.976621  7.880468  1.168907            0           0           0  
      3.738868  5.544192  0.956012            0           0           0  
      7.628890  1.910811  2.979252            0           0           0  
      9.009114  8.706763  2.893340            0           0           0  
      2.370094  3.400001  6.954861            0           0           0  
      2.407761  3.231138  1.075231            0           0           0  
     10.326193  1.796539  3.091534            0           0           0  
     13.035658  4.857971  4.926371            0           0           0  
      3.671382  1.214355  6.940035            0           0           0  
      8.808011  5.709831  6.833874            0           0           0  
      5.014273  3.408477  6.972009            0           0           0  
      3.706944  1.128718  0.971383            0           0           0  
      8.883744  5.736281  0.991643            0           0           0  
      5.000854  3.374065  1.054465            0           0           0  
     11.642972  8.769642  2.889780            0           0           0  
     11.645477  7.212219  4.799477            0           0           0  
     13.039679  6.359002  2.970796            0           0           0  
      8.943817  4.150168  2.941119            0           0           0  
      7.560303  8.020322  6.932985            0           0           0  
      7.508804  8.090212  1.022702            0           0           0  
     10.334622  6.397915  2.825376            0           0           0  
      2.443978  0.318880  4.987461            0           0           0  
      7.606018  3.361497  6.975602            0           0           0  
      7.665170  3.377379  0.973541            0           0           0  
      6.312052  1.181289  6.916274            0           0           0  
      6.351712  1.239972  0.967673            0           0           0  
     11.688207  4.088812  3.039482            0           0           0  
      3.840675  4.087497  2.982300            0           0           0  
      1.040852  1.142363  7.003238            0           0           0  
      1.160695  0.931305  1.265535            0           0           0  
      6.368574  8.574404  3.134353            0           0           0  
      7.615287  4.802472  4.904074            0           0           0  
      5.041730  1.976744  2.965189            0           0           0  
      2.476130  1.815478  3.064992            0           0           0  
     14.349977  7.129369  4.927827            0           0           0  
     11.577648  5.671674  6.769719            0           0           0  
      6.296895  5.626868  7.028358            0           0           0  
     11.778942  5.519919  1.007876            0           0           0  
      6.225915  5.612288  0.923499            0           0           0  
      7.572476  6.328243  2.854803            0           0           0  
      6.251016  4.149414  2.937634            0           0           0  
      3.855511  2.705056  4.927861            0           0           0  
     10.254725  3.384827  6.919833            0           0           0  
     10.314544  3.314036  1.156726            0           0           0  
     10.301471  0.326871  5.040546            0           0           0  
      8.939729  7.162943  4.783033            0           0           0  
     10.268310  4.867732  4.861681            0           0           0  
      6.361336  7.056937  4.982884            0           0           0  
      5.035677  0.444062  4.824483            0           0           0  
      5.038367  6.229272  2.999781            0           0           0  
      7.662807  0.423756  4.915281            0           0           0  
      8.971828  1.142714  6.969178            0           0           0  
     10.187583  8.069199  6.739576            0           0           0  
      8.973338  1.033718  1.115123            0           0           0  
     10.337909  8.054459  1.016552            0           0           0  
      5.062545  4.782687  4.921653            0           0           0  
     11.649057  2.606247  4.981030            0           0           0  
     14.270536  8.667885  3.090773            0           0           0  
      8.876005  2.640964  4.927860            0           0           0  
      6.295705  2.702508  4.890025            0           0           0  
     14.222273  8.751371  9.069645            0           0           0  
      3.647797  4.179761  9.090307            0           0           0  
      6.303565  8.776315  9.136049            0           0           0  
     11.578606  4.200245  9.016382            0           0           0  
      8.944507  8.754163  8.999997            0           0           0  
     10.259982  1.899921  9.114894            0           0           0  
      2.345115  1.902665  9.115379            0           0           0  
     11.578675  8.746279  8.941610            0           0           0  
     12.898772  6.468004  8.954274            0           0           0  
      4.991944  1.892503  9.088414            0           0           0  
      7.637633  6.494680  9.164914            0           0           0  
      8.962154  4.180170  9.016594            0           0           0  
      4.958002  6.473365  9.101865            0           0           0  
      7.624723  1.874534  9.099158            0           0           0  
      6.290200  4.146406  9.243720            0           0           0  
     10.261370  6.483305  8.859052            0           0           0  
      6.942540  5.376765 10.321502     0.500155    0.865298    0.033244  
 
   3 f  =    5.031908 THz    31.616413 2PiTHz  167.846392 cm-1    20.810308 meV
             X         Y         Z           dx          dy          dz
     12.973096  8.013780  6.818089            0           0           0  
      5.037205  7.974645  6.983895            0           0           0  
      3.727940  5.677676  6.930352            0           0           0  
     13.024706  7.879042  1.000763            0           0           0  
      4.976621  7.880468  1.168907            0           0           0  
      3.738868  5.544192  0.956012            0           0           0  
      7.628890  1.910811  2.979252            0           0           0  
      9.009114  8.706763  2.893340            0           0           0  
      2.370094  3.400001  6.954861            0           0           0  
      2.407761  3.231138  1.075231            0           0           0  
     10.326193  1.796539  3.091534            0           0           0  
     13.035658  4.857971  4.926371            0           0           0  
      3.671382  1.214355  6.940035            0           0           0  
      8.808011  5.709831  6.833874            0           0           0  
      5.014273  3.408477  6.972009            0           0           0  
      3.706944  1.128718  0.971383            0           0           0  
      8.883744  5.736281  0.991643            0           0           0  
      5.000854  3.374065  1.054465            0           0           0  
     11.642972  8.769642  2.889780            0           0           0  
     11.645477  7.212219  4.799477            0           0           0  
     13.039679  6.359002  2.970796            0           0           0  
      8.943817  4.150168  2.941119            0           0           0  
      7.560303  8.020322  6.932985            0           0           0  
      7.508804  8.090212  1.022702            0           0           0  
     10.334622  6.397915  2.825376            0           0           0  
      2.443978  0.318880  4.987461            0           0           0  
      7.606018  3.361497  6.975602            0           0           0  
      7.665170  3.377379  0.973541            0           0           0  
      6.312052  1.181289  6.916274            0           0           0  
      6.351712  1.239972  0.967673            0           0           0  
     11.688207  4.088812  3.039482            0           0           0  
      3.840675  4.087497  2.982300            0           0           0  
      1.040852  1.142363  7.003238            0           0           0  
      1.160695  0.931305  1.265535            0           0           0  
      6.368574  8.574404  3.134353            0           0           0  
      7.615287  4.802472  4.904074            0           0           0  
      5.041730  1.976744  2.965189            0           0           0  
      2.476130  1.815478  3.064992            0           0           0  
     14.349977  7.129369  4.927827            0           0           0  
     11.577648  5.671674  6.769719            0           0           0  
      6.296895  5.626868  7.028358            0           0           0  
     11.778942  5.519919  1.007876            0           0           0  
      6.225915  5.612288  0.923499            0           0           0  
      7.572476  6.328243  2.854803            0           0           0  
      6.251016  4.149414  2.937634            0           0           0  
      3.855511  2.705056  4.927861            0           0           0  
     10.254725  3.384827  6.919833            0           0           0  
     10.314544  3.314036  1.156726            0           0           0  
     10.301471  0.326871  5.040546            0           0           0  
      8.939729  7.162943  4.783033            0           0           0  
     10.268310  4.867732  4.861681            0           0           0  
      6.361336  7.056937  4.982884            0           0           0  
      5.035677  0.444062  4.824483            0           0           0  
      5.038367  6.229272  2.999781            0           0           0  
      7.662807  0.423756  4.915281            0           0           0  
      8.971828  1.142714  6.969178            0           0           0  
     10.187583  8.069199  6.739576            0           0           0  
      8.973338  1.033718  1.115123            0           0           0  
     10.337909  8.054459  1.016552            0           0           0  
      5.062545  4.782687  4.921653            0           0           0  
     11.649057  2.606247  4.981030            0           0           0  
     14.270536  8.667885  3.090773            0           0           0  
      8.876005  2.640964  4.927860            0           0           0  
      6.295705  2.702508  4.890025            0           0           0  
     14.222273  8.751371  9.069645            0           0           0  
      3.647797  4.179761  9.090307            0           0           0  
      6.303565  8.776315  9.136049            0           0           0  
     11.578606  4.200245  9.016382            0           0           0  
      8.944507  8.754163  8.999997            0           0           0  
     10.259982  1.899921  9.114894            0           0           0  
      2.345115  1.902665  9.115379            0           0           0  
     11.578675  8.746279  8.941610            0           0           0  
     12.898772  6.468004  8.954274            0           0           0  
      4.991944  1.892503  9.088414            0           0           0  
      7.637633  6.494680  9.164914            0           0           0  
      8.962154  4.180170  9.016594            0           0           0  
      4.958002  6.473365  9.101865            0           0           0  
      7.624723  1.874534  9.099158            0           0           0  
      6.290200  4.146406  9.243720            0           0           0  
     10.261370  6.483305  8.859052            0           0           0  
      6.942540  5.376765 10.321502    -0.864710    0.501121   -0.033984  
 
 Finite differences POTIM=  1.500000000000000E-002
  LATTYP: Found a hexagonal cell.
 ALAT       =    10.5600004196
 C/A-ratio  =     2.0833332505
  
  Lattice vectors:
  
 A1 = (   5.2800002098,  -9.1452286274,   0.0000000000)
 A2 = ( -10.5600004196,   0.0000000000,   0.0000000000)
 A3 = (   0.0000000000,   0.0000000000, -22.0000000000)


Analysis of symmetry for initial positions (statically):
=====================================================================
 Subroutine PRICEL returns:
 Original cell was already a primitive cell.
 

 Routine SETGRP: Setting up the symmetry group for a 
 hexagonal supercell.


 Subroutine GETGRP returns: Found  1 space group operations
 (whereof  1 operations were pure point group operations)
 out of a pool of 24 trial point group operations.


The static configuration has the point symmetry C_1 .


Analysis of symmetry for dynamics (positions and initial velocities):
=====================================================================
 Subroutine PRICEL returns:
 Original cell was already a primitive cell.
 

 Routine SETGRP: Setting up the symmetry group for a 
 hexagonal supercell.


 Subroutine GETGRP returns: Found  1 space group operations
 (whereof  1 operations were pure point group operations)
 out of a pool of 24 trial point group operations.


The dynamic configuration has the point symmetry C_1 .


Analysis of constrained symmetry for selective dynamics:
=====================================================================
 Subroutine PRICEL returns:
 Original cell was already a primitive cell.
 

 Routine SETGRP: Setting up the symmetry group for a 
 hexagonal supercell.


 Subroutine GETGRP returns: Found  1 space group operations
 (whereof  1 operations were pure point group operations)
 out of a pool of 24 trial point group operations.


The constrained configuration has the point symmetry C_1 .


Analysis of structural, dynamic, and magnetic symmetry:
=====================================================================
 Subroutine PRICEL returns:
 Original cell was already a primitive cell.
 

 Routine SETGRP: Setting up the symmetry group for a 
 hexagonal supercell.


 Subroutine GETGRP returns: Found  1 space group operations
 (whereof  1 operations were pure point group operations)
 out of a pool of 24 trial point group operations.


The magnetic configuration has the point symmetry C_1 .


 Subroutine INISYM returns: Found  1 space group operations
 (whereof  1 operations are pure point group operations),
 and found     1 'primitive' translations

 
 KPOINTS: mesh auto                               

Automatic generation of k-mesh.
Space group operators:
 irot       det(A)        alpha          n_x          n_y          n_z        tau_x        tau_y        tau_z
    1     1.000000     0.000001     1.000000     0.000000     0.000000     0.000000     0.000000     0.000000
 
 Subroutine IBZKPT returns following result:
 ===========================================
 
 Found      4 irreducible k-points:
 
 Following reciprocal coordinates:
            Coordinates               Weight
  0.000000  0.000000  0.000000      1.000000
  0.500000  0.000000  0.000000      1.000000
  0.000000  0.500000  0.000000      1.000000
  0.500000  0.500000  0.000000      1.000000
 
 Following cartesian coordinates:
            Coordinates               Weight
  0.000000  0.000000  0.000000      1.000000
  0.047348 -0.027337  0.000000      1.000000
  0.000000  0.054673  0.000000      1.000000
  0.047348  0.027337  0.000000      1.000000
 
 TETIRR: Found     12 inequivalent tetrahedra from       24
     LOOP+:  cpu time  609.4634: real time  611.1236
    4ORBIT:  cpu time    0.0000: real time    0.0000
 BZINTS: Fermi energy:  0.853307;673.000000 electrons
         Band energy:***********;  BLOECHL correction: -0.035160

 total amount of memory used by VASP MPI-rank0   370718. kBytes
=======================================================================

   base      :      30000. kBytes
   nonlr-proj:     106253. kBytes
   fftplans  :      13995. kBytes
   grid      :     120016. kBytes
   one-center:       2519. kBytes
   wavefun   :      97935. kBytes
 
  
  
 General timing and accounting informations for this job:
 ========================================================
  
                  Total CPU time used (sec):    12924.440
                            User time (sec):    12894.369
                          System time (sec):       30.072
                         Elapsed time (sec):    12959.909
  
                   Maximum memory used (kb):     1244004.
                   Average memory used (kb):           0.
  
                          Minor page faults:      4927185
                          Major page faults:            0
                 Voluntary context switches:         5920
