 vasp.5.4.4.18Apr17-6-g9f103f2a35 (build Nov 30 2020 22:55:02) complex          
  
 executed on             LinuxIFC date 2023.09.08  21:32:52
 running on   40 total cores
 distrk:  each k-point on   40 cores,    1 groups
 distr:  one band on NCORES_PER_BAND=   4 cores,   10 groups


--------------------------------------------------------------------------------------------------------


 INCAR:
 POTCAR:    PAW_PBE Pt 04Feb2005                  
 POTCAR:    PAW_PBE Pt 04Feb2005                  
   VRHFIN =Pt: s1d9                                                             
   LEXCH  = PE                                                                  
   EATOM  =   729.1176 eV,   53.5886 Ry                                         
                                                                                
   TITEL  = PAW_PBE Pt 04Feb2005                                                
   LULTRA =        F    use ultrasoft PP ?                                      
   IUNSCR =        1    unscreen: 0-lin 1-nonlin 2-no                           
   RPACOR =    2.330    partial core radius                                     
   POMASS =  195.080; ZVAL   =   10.000    mass and valenz                      
   RCORE  =    2.600    outmost cutoff radius                                   
   RWIGS  =    2.750; RWIGS  =    1.455    wigner-seitz radius (au A)           
   ENMAX  =  230.283; ENMIN  =  172.712 eV                                      
   ICORE  =        3    local potential                                         
   LCOR   =        T    correct aug charges                                     
   LPAW   =        T    paw PP                                                  
   EAUG   =  358.966                                                            
   DEXC   =    0.000                                                            
   RMAX   =    2.658    core radius for proj-oper                               
   RAUG   =    1.300    factor for augmentation sphere                          
   RDEP   =    2.761    radius for radial grids                                 
   RDEPT  =    2.203    core radius for aug-charge                              
                                                                                
   Atomic configuration                                                         
   16 entries                                                                   
     n  l   j            E        occ.                                          
     1  0  0.50    -78401.1885   2.0000                                         
     2  0  0.50    -13770.7750   2.0000                                         
     2  1  1.50    -11931.0468   6.0000                                         
     3  0  0.50     -3234.7234   2.0000                                         
     3  1  1.50     -2699.2216   6.0000                                         
     3  2  2.50     -2119.5714  10.0000                                         
     4  0  0.50      -695.1528   2.0000                                         
     4  1  1.50      -519.6034   6.0000                                         
     4  2  2.50      -306.6786  10.0000                                         
     4  3  3.50       -70.1041  14.0000                                         
     5  0  0.50      -101.7747   2.0000                                         
     5  1  1.50       -55.9873   6.0000                                         
     5  2  2.50        -6.1423   9.0000                                         
     6  0  0.50        -5.6573   1.0000                                         
     6  1  1.50        -6.8029   0.0000                                         
     5  3  2.50        -1.3606   0.0000                                         
   Description                                                                  
     l       E           TYP  RCUT    TYP  RCUT                                 
     2     -6.1423404     23  2.500                                             
     2     -7.5029230     23  2.500                                             
     0     -5.6573207     23  2.500                                             
     0      0.7416693     23  2.500                                             
     1     -2.7211652     23  2.600                                             
     1     20.4087390     23  2.600                                             
     3     -1.3605826     23  2.500                                             
  local pseudopotential read in
  partial core-charges read in
  partial kinetic energy density read in
  atomic valenz-charges read in
  non local Contribution for L=           2  read in
    real space projection operators read in
  non local Contribution for L=           2  read in
    real space projection operators read in
  non local Contribution for L=           0  read in
    real space projection operators read in
  non local Contribution for L=           0  read in
    real space projection operators read in
  non local Contribution for L=           1  read in
    real space projection operators read in
  non local Contribution for L=           1  read in
    real space projection operators read in
    PAW grid and wavefunctions read in
 
   number of l-projection  operators is LMAX  =           6
   number of lm-projection operators is LMMAX =          18
 
 Optimization of the real space projectors (new method)

 maximal supplied QI-value         = 14.36
 optimisation between [QCUT,QGAM] = [ 11.92, 23.98] = [ 39.79,161.09] Ry 
 Optimized for a Real-space Cutoff    1.49 Angstroem

   l    n(q)    QCUT    max X(q) W(low)/X(q) W(high)/X(q)  e(spline) 
   2     10    11.920    66.195    0.79E-04    0.18E-03    0.24E-06
   2     10    11.920    64.643    0.81E-04    0.19E-03    0.24E-06
   0     11    11.920    95.520    0.28E-04    0.54E-04    0.18E-06
   0     11    11.920    63.403    0.27E-04    0.52E-04    0.17E-06
   1     10    11.920    19.961    0.18E-04    0.11E-03    0.23E-06
   1     10    11.920    13.289    0.25E-04    0.87E-04    0.19E-06
  PAW_PBE Pt 04Feb2005                  :
 energy of atom  1       EATOM= -729.1176
 kinetic energy error for atom=    0.0021 (will be added to EATOM!!)
 
 
 POSCAR: Pt111                                   
  positions in direct lattice
  velocities in cartesian coordinates
 exchange correlation table for  LEXCH =        8
   RHO(1)=    0.500       N(1)  =     2000
   RHO(2)=  100.500       N(2)  =     4000
 


--------------------------------------------------------------------------------------------------------


 ion  position               nearest neighbor table
   1  0.784  0.869  0.328-  71 2.74  20 2.75  55 2.75  43 2.79   3 2.79  27 2.79   2 2.79  73 2.79
                            56 2.79  72 2.79  35 2.79  34 2.79
   2  0.034  0.869  0.328-  55 2.74  65 2.75  68 2.75  29 2.79   3 2.79  57 2.79  72 2.79   1 2.79
                            23 2.79  47 2.79  39 2.79  27 2.79
   3  0.034  0.619  0.328-  12 2.74  55 2.75  76 2.75   9 2.79   1 2.79   2 2.79  39 2.79  56 2.79
                            28 2.79  57 2.79  15 2.79  35 2.80
   4  0.787  0.867  0.022-   6 2.79  21 2.79   5 2.79  58 2.79  75 2.79  78 2.79  74 2.79  44 2.79
                            19 2.80
   5  0.037  0.868  0.022-  74 2.78   4 2.79  48 2.79  49 2.79  70 2.79  24 2.79  59 2.79   6 2.79
                            78 2.80
   6  0.037  0.618  0.022-  46 2.79  18 2.79   4 2.79  70 2.79  59 2.79  10 2.79  58 2.79   5 2.79
                            21 2.80
   7  0.619  0.202  0.126-  71 2.74  79 2.74  80 2.75  42 2.78  78 2.79  53 2.79  44 2.79  22 2.79
                            11 2.79  61 2.79  19 2.79  74 2.80
   8  0.369  0.952  0.126-  66 2.74  69 2.74  26 2.75  16 2.79  25 2.79  19 2.79  54 2.79  24 2.79
                            49 2.79  60 2.79  53 2.79  75 2.80
   9  0.035  0.369  0.328-  12 2.74  77 2.75  62 2.75   3 2.79  33 2.79  15 2.79  13 2.79  56 2.79
                            47 2.79  63 2.79  30 2.79  28 2.79
  10  0.037  0.368  0.022-  54 2.78  48 2.79  64 2.79  46 2.79  18 2.79   6 2.79  58 2.79  16 2.79
                            45 2.80
  11  0.869  0.202  0.125-  65 2.74  77 2.75  79 2.75  64 2.79  45 2.79  49 2.79  74 2.79   7 2.79
                            22 2.79  54 2.79  78 2.79  48 2.80
  12  0.952  0.536  0.227-  21 2.74   9 2.74   3 2.74  45 2.74  56 2.75  46 2.75  77 2.79  55 2.79
                            20 2.79  67 2.79  76 2.79  62 2.79
  13  0.285  0.119  0.328-  62 2.74  26 2.74  69 2.75  73 2.79  43 2.79  31 2.79  36 2.79  23 2.79
                             9 2.79  47 2.79  15 2.79  33 2.80
  14  0.534  0.619  0.328-  51 2.74  66 2.74  67 2.75  41 2.79  56 2.79  73 2.79  57 2.79  52 2.79
                            23 2.79  63 2.79  38 2.79  37 2.80
  15  0.285  0.369  0.328-  62 2.75  76 2.75  80 2.75  41 2.79  57 2.79   9 2.79  50 2.79  43 2.79
                            36 2.79  13 2.79   3 2.79  28 2.80
  16  0.288  0.118  0.022-   8 2.79  44 2.79  75 2.79  53 2.79  18 2.79  48 2.79  24 2.79  10 2.79
                            54 2.80
  17  0.537  0.618  0.022-  22 2.79  59 2.79  24 2.79  25 2.79  42 2.79  64 2.79  58 2.79  75 2.79
                            60 2.80
  18  0.287  0.368  0.022-  53 2.79   6 2.79  59 2.79  61 2.79  16 2.79  10 2.79  44 2.79  42 2.79
                            46 2.80
  19  0.619  0.952  0.125-  20 2.74  71 2.75  69 2.75  44 2.79   8 2.79  75 2.79  21 2.79  53 2.79
                            25 2.79  78 2.79   7 2.79   4 2.80
  20  0.702  0.786  0.227-  19 2.74  56 2.74  25 2.75   1 2.75  73 2.75  21 2.75  67 2.79  66 2.79
                            69 2.79  12 2.79  71 2.79  55 2.79
  21  0.869  0.702  0.126-  12 2.74  55 2.75  20 2.75   4 2.79  45 2.79  19 2.79  58 2.79  46 2.79
                            70 2.79  78 2.79  25 2.79   6 2.80
  22  0.619  0.452  0.126-  79 2.74  67 2.74  51 2.75  17 2.79  25 2.79  61 2.79  42 2.79  45 2.79
                             7 2.79  11 2.79  60 2.79  64 2.80
  23  0.284  0.869  0.328-  26 2.74  68 2.75  66 2.75  31 2.79  73 2.79  47 2.79  13 2.79  14 2.79
                            57 2.79   2 2.79  37 2.79  29 2.80
  24  0.287  0.868  0.022-  60 2.79  17 2.79  48 2.79   8 2.79   5 2.79  59 2.79  16 2.79  75 2.79
                            49 2.80
  25  0.619  0.702  0.125-  67 2.74  20 2.75  66 2.75   8 2.79  75 2.79  22 2.79  17 2.79  60 2.79
                            19 2.79  45 2.79  21 2.79  58 2.80
  26  0.202  0.036  0.227-  54 2.74  13 2.74  23 2.74  49 2.75  47 2.75   8 2.75  69 2.79  62 2.79
                            77 2.79  66 2.79  65 2.79  68 2.79
  27  0.867  0.953  0.431-  29 2.78   1 2.79  34 2.79  72 2.79  39 2.79  40 2.79  32 2.79   2 2.79
                            35 2.79
  28  0.117  0.453  0.432-  39 2.78  50 2.79   3 2.79  30 2.79  35 2.79  33 2.79  36 2.79   9 2.79
                            15 2.80
  29  0.117  0.953  0.431-  27 2.78  32 2.79   2 2.79  47 2.79  39 2.79  31 2.79  37 2.79  33 2.79
                            23 2.80
  30  0.868  0.453  0.431-  33 2.78  32 2.79  35 2.79  28 2.79  63 2.79   9 2.79  56 2.79  38 2.79
                            52 2.79
  31  0.367  0.953  0.432-  37 2.79  33 2.79  23 2.79  36 2.79  13 2.79  29 2.79  52 2.80  34 2.80
                            73 2.80
  32  0.867  0.203  0.431-  30 2.79  38 2.79  29 2.79  63 2.79  40 2.79  33 2.79  27 2.79  72 2.79
                            47 2.79
  33  0.117  0.203  0.431-  30 2.78  31 2.79  36 2.79   9 2.79  32 2.79  47 2.79  28 2.79  29 2.79
                            13 2.80
  34  0.617  0.953  0.431-  36 2.79  35 2.79  43 2.79  73 2.79  40 2.79  27 2.79  52 2.79   1 2.79
                            31 2.80
  35  0.867  0.703  0.431-  52 2.79  34 2.79  30 2.79  56 2.79  28 2.79   1 2.79  27 2.79  39 2.79
                             3 2.80
  36  0.367  0.203  0.432-  34 2.79  33 2.79  40 2.79  31 2.79  13 2.79  15 2.79  50 2.79  28 2.79
                            43 2.80
  37  0.367  0.703  0.432-  31 2.79  52 2.79  23 2.79  38 2.79  50 2.79  57 2.79  39 2.79  29 2.79
                            14 2.80
  38  0.617  0.453  0.431-  32 2.79  40 2.79  41 2.79  50 2.79  52 2.79  37 2.79  14 2.79  30 2.79
                            63 2.80
  39  0.117  0.703  0.431-  28 2.78  50 2.79  29 2.79   3 2.79  27 2.79   2 2.79  37 2.79  57 2.79
                            35 2.79
  40  0.617  0.203  0.431-  38 2.79  43 2.79  41 2.79  36 2.79  34 2.79  27 2.79  50 2.79  32 2.79
                            72 2.80
  41  0.535  0.369  0.328-  80 2.74  51 2.74  79 2.75  15 2.79  14 2.79  40 2.79  38 2.79  63 2.79
                            72 2.79  57 2.79  43 2.79  50 2.80
  42  0.538  0.367  0.022-   7 2.78  74 2.79  44 2.79  64 2.79  22 2.79  17 2.79  18 2.79  59 2.79
                            61 2.80
  43  0.535  0.119  0.328-  80 2.74  69 2.74  71 2.75   1 2.79  40 2.79  34 2.79  72 2.79  13 2.79
                            15 2.79  41 2.79  73 2.79  36 2.80
  44  0.537  0.118  0.022-  19 2.79  42 2.79  16 2.79  75 2.79   7 2.79  74 2.79   4 2.79  18 2.79
                            53 2.80
  45  0.869  0.452  0.126-  77 2.74  12 2.74  67 2.75  21 2.79  58 2.79  11 2.79  22 2.79  46 2.79
                            25 2.79  64 2.79  54 2.79  10 2.80
  46  0.119  0.452  0.126-  62 2.74  76 2.75  12 2.75   6 2.79  54 2.79  10 2.79  21 2.79  53 2.79
                            45 2.79  70 2.79  61 2.79  18 2.80
  47  0.035  0.119  0.328-  77 2.74  65 2.75  26 2.75  23 2.79  29 2.79  63 2.79  72 2.79  13 2.79
                             9 2.79  33 2.79   2 2.79  32 2.79
  48  0.037  0.118  0.022-  49 2.79  10 2.79   5 2.79  24 2.79  54 2.79  74 2.79  64 2.79  16 2.79
                            11 2.80
  49  0.119  0.952  0.126-  68 2.75  26 2.75  65 2.75  48 2.79  60 2.79   5 2.79  11 2.79  54 2.79
                             8 2.79  70 2.79  78 2.79  24 2.80
  50  0.367  0.453  0.432-  28 2.79  39 2.79  15 2.79  38 2.79  40 2.79  57 2.79  37 2.79  36 2.79
                            41 2.80
  51  0.452  0.536  0.227-  41 2.74  61 2.74  14 2.74  60 2.74  57 2.75  22 2.75  76 2.79  80 2.79
                            66 2.79  68 2.79  67 2.79  79 2.79
  52  0.617  0.703  0.431-  35 2.79  37 2.79  14 2.79  38 2.79  73 2.79  34 2.79  30 2.79  31 2.80
                            56 2.80
  53  0.369  0.202  0.126-  69 2.74  80 2.74  62 2.75  18 2.79  61 2.79  16 2.79  54 2.79   7 2.79
                            19 2.79  46 2.79   8 2.79  44 2.80
  54  0.120  0.202  0.126-  26 2.74  62 2.75  77 2.75  10 2.78  46 2.79  53 2.79   8 2.79  49 2.79
                            48 2.79  11 2.79  45 2.79  16 2.80
  55  0.952  0.786  0.227-   2 2.74  78 2.74   3 2.75  21 2.75   1 2.75  70 2.75  71 2.79  68 2.79
                            12 2.79  76 2.79  65 2.79  20 2.79
  56  0.784  0.619  0.328-  67 2.74  20 2.74  12 2.75  63 2.79  14 2.79  73 2.79   3 2.79  35 2.79
                             9 2.79   1 2.79  30 2.79  52 2.80
  57  0.284  0.619  0.328-  76 2.74  68 2.74  51 2.75  15 2.79   2 2.79  14 2.79  23 2.79  41 2.79
                             3 2.79  50 2.79  37 2.79  39 2.79
  58  0.787  0.618  0.022-  75 2.79  64 2.79  45 2.79   4 2.79  21 2.79  10 2.79   6 2.79  17 2.79
                            25 2.80
  59  0.287  0.618  0.022-  61 2.79  17 2.79  18 2.79   6 2.79  60 2.79  24 2.79   5 2.79  42 2.79
                            70 2.80
  60  0.369  0.702  0.126-  51 2.74  66 2.75  68 2.75  24 2.79  49 2.79  70 2.79  59 2.79  61 2.79
                            25 2.79   8 2.79  22 2.79  17 2.80
  61  0.369  0.452  0.126-  80 2.74  51 2.74  76 2.75  59 2.79  53 2.79  22 2.79  18 2.79  60 2.79
                             7 2.79  46 2.79  70 2.79  42 2.80
  62  0.202  0.286  0.227-  13 2.74  46 2.74  15 2.75  54 2.75   9 2.75  53 2.75  26 2.79  77 2.79
                            69 2.79  76 2.79  80 2.79  12 2.79
  63  0.785  0.369  0.328-  67 2.74  79 2.75  77 2.75  56 2.79  32 2.79  72 2.79  47 2.79  41 2.79
                            30 2.79  14 2.79   9 2.79  38 2.80
  64  0.787  0.368  0.022-  10 2.79  11 2.79  58 2.79  42 2.79  45 2.79  17 2.79  74 2.79  48 2.79
                            22 2.80
  65  0.952  0.036  0.227-  11 2.74   2 2.75  78 2.75  47 2.75  72 2.75  49 2.75  79 2.79  68 2.79
                            71 2.79  77 2.79  55 2.79  26 2.79
  66  0.452  0.786  0.227-   8 2.74  14 2.74  73 2.74  60 2.75  23 2.75  25 2.75  20 2.79  67 2.79
                            51 2.79  26 2.79  69 2.79  68 2.79
  67  0.702  0.536  0.227-  56 2.74  22 2.74  25 2.74  63 2.74  45 2.75  14 2.75  20 2.79  66 2.79
                            12 2.79  51 2.79  79 2.79  77 2.79
  68  0.202  0.786  0.227-  70 2.74  57 2.74  49 2.75  23 2.75   2 2.75  60 2.75  76 2.79  55 2.79
                            65 2.79  51 2.79  66 2.79  26 2.79
  69  0.452  0.036  0.227-  53 2.74  73 2.74   8 2.74  43 2.74  13 2.75  19 2.75  26 2.79  20 2.79
                            66 2.79  62 2.79  71 2.79  80 2.79
  70  0.119  0.702  0.126-  68 2.74  76 2.74  55 2.75   6 2.79  60 2.79  78 2.79   5 2.79  21 2.79
                            46 2.79  49 2.79  61 2.79  59 2.80
  71  0.702  0.036  0.227-   7 2.74   1 2.74  72 2.75  19 2.75  78 2.75  43 2.75  55 2.79  80 2.79
                            79 2.79  69 2.79  65 2.79  20 2.79
  72  0.785  0.119  0.328-  79 2.74  71 2.75  65 2.75  43 2.79  63 2.79   2 2.79  47 2.79  41 2.79
                            27 2.79   1 2.79  32 2.79  40 2.80
  73  0.534  0.869  0.328-  69 2.74  66 2.74  20 2.75  13 2.79  23 2.79  14 2.79  34 2.79  56 2.79
                             1 2.79  52 2.79  43 2.79  31 2.80
  74  0.787  0.118  0.022-   5 2.78  42 2.79  78 2.79  44 2.79  11 2.79  48 2.79  64 2.79   4 2.79
                             7 2.80
  75  0.537  0.868  0.022-  58 2.79  16 2.79  25 2.79  19 2.79   4 2.79  44 2.79  24 2.79  17 2.79
                             8 2.80
  76  0.202  0.536  0.227-  57 2.74  70 2.74  46 2.75  15 2.75   3 2.75  61 2.75  68 2.79  51 2.79
                            55 2.79  62 2.79  12 2.79  80 2.79
  77  0.952  0.286  0.227-  47 2.74  45 2.74   9 2.75  11 2.75  63 2.75  54 2.75  12 2.79  26 2.79
                            62 2.79  65 2.79  79 2.79  67 2.79
  78  0.869  0.952  0.126-  55 2.74  65 2.75  71 2.75  74 2.79   7 2.79  70 2.79  19 2.79  49 2.79
                            11 2.79   4 2.79  21 2.79   5 2.80
  79  0.702  0.286  0.227-  22 2.74  72 2.74   7 2.74  63 2.75  11 2.75  41 2.75  80 2.79  65 2.79
                            71 2.79  67 2.79  77 2.79  51 2.79
  80  0.452  0.286  0.227-  41 2.74  43 2.74  61 2.74  53 2.74  15 2.75   7 2.75  79 2.79  51 2.79
                            71 2.79  62 2.79  69 2.79  76 2.79
 
  LATTYP: Found a hexagonal cell.
 ALAT       =    11.1599998850
 C/A-ratio  =     1.9713261852
  
  Lattice vectors:
  
 A1 = (   5.5799999991,  -9.6648433740,   0.0000000000)
 A2 = ( -11.1599999990,   0.0000000000,   0.0000000000)
 A3 = (   0.0000000000,   0.0000000000, -22.0000000000)


Analysis of symmetry for initial positions (statically):
=====================================================================
 Subroutine PRICEL returns:
 Original cell was already a primitive cell.
 

 Routine SETGRP: Setting up the symmetry group for a 
 hexagonal supercell.


 Subroutine GETGRP returns: Found  1 space group operations
 (whereof  1 operations were pure point group operations)
 out of a pool of 24 trial point group operations.


The static configuration has the point symmetry C_1 .


Analysis of symmetry for dynamics (positions and initial velocities):
=====================================================================
 Subroutine PRICEL returns:
 Original cell was already a primitive cell.
 

 Routine SETGRP: Setting up the symmetry group for a 
 hexagonal supercell.


 Subroutine GETGRP returns: Found  1 space group operations
 (whereof  1 operations were pure point group operations)
 out of a pool of 24 trial point group operations.


The dynamic configuration has the point symmetry C_1 .


 Subroutine INISYM returns: Found  1 space group operations
 (whereof  1 operations are pure point group operations),
 and found     1 'primitive' translations

 
 
 KPOINTS: mesh auto                               

Automatic generation of k-mesh.
Space group operators:
 irot       det(A)        alpha          n_x          n_y          n_z        tau_x        tau_y        tau_z
    1     1.000000     0.000000     1.000000     0.000000     0.000000     0.000000     0.000000     0.000000
 
 Subroutine IBZKPT returns following result:
 ===========================================
 
 Found      4 irreducible k-points:
 
 Following reciprocal coordinates:
            Coordinates               Weight
  0.000000  0.000000  0.000000      1.000000
  0.500000  0.000000  0.000000      1.000000
  0.000000  0.500000  0.000000      1.000000
  0.500000  0.500000  0.000000      1.000000
 
 Following cartesian coordinates:
            Coordinates               Weight
  0.000000  0.000000  0.000000      1.000000
  0.044803 -0.025867  0.000000      1.000000
  0.000000  0.051734  0.000000      1.000000
  0.044803  0.025867  0.000000      1.000000
 


--------------------------------------------------------------------------------------------------------




 Dimension of arrays:
   k-points           NKPTS =      4   k-points in BZ     NKDIM =      4   number of bands    NBANDS=    480
   number of dos      NEDOS =    301   number of ions     NIONS =     80
   non local maximal  LDIM  =      6   non local SUM 2l+1 LMDIM =     18
   total plane-waves  NPLWV = ******
   max r-space proj   IRMAX =   8018   max aug-charges    IRDMAX=  34929
   dimension x,y,z NGX =    90 NGY =   90 NGZ =  168
   dimension x,y,z NGXF=   180 NGYF=  180 NGZF=  336
   support grid    NGXF=   180 NGYF=  180 NGZF=  336
   ions per type =              80
   NGX,Y,Z   is equivalent  to a cutoff of  13.41, 13.41, 12.70 a.u.
   NGXF,Y,Z  is equivalent  to a cutoff of  26.81, 26.81, 25.39 a.u.

 SYSTEM =  Pt111                                   
 POSCAR =  Pt111                                   

 Startparameter for this run:
   NWRITE =      2    write-flag & timer
   PREC   = accura    normal or accurate (medium, high low for compatibility)
   ISTART =      0    job   : 0-new  1-cont  2-samecut
   ICHARG =      2    charge: 1-file 2-atom 10-const
   ISPIN  =      1    spin polarized calculation?
   LNONCOLLINEAR =      F non collinear calculations
   LSORBIT =      F    spin-orbit coupling
   INIWAV =      1    electr: 0-lowe 1-rand  2-diag
   LASPH  =      F    aspherical Exc in radial PAW
   METAGGA=      F    non-selfconsistent MetaGGA calc.

 Electronic Relaxation 1
   ENCUT  =  550.0 eV  40.42 Ry    6.36 a.u.  21.34 21.34 42.07*2*pi/ulx,y,z
   ENINI  =  550.0     initial cutoff
   ENAUG  =  359.0 eV  augmentation charge cutoff
   NELM   =    200;   NELMIN=  2; NELMDL= -5     # of ELM steps 
   EDIFF  = 0.1E-04   stopping-criterion for ELM
   LREAL  =      T    real-space projection
   NLSPLINE    = F    spline interpolate recip. space projectors
   LCOMPAT=      F    compatible to vasp.4.4
   GGA_COMPAT  = T    GGA compatible to vasp.4.4-vasp.4.6
   LMAXPAW     = -100 max onsite density
   LMAXMIX     =    2 max onsite mixed and CHGCAR
   VOSKOWN=      0    Vosko Wilk Nusair interpolation
   ROPT   =   -0.00025
 Ionic relaxation
   EDIFFG = -.5E-01   stopping-criterion for IOM
   NSW    =    300    number of steps for IOM
   NBLOCK =      1;   KBLOCK =    300    inner block; outer block 
   IBRION =      2    ionic relax: 0-MD 1-quasi-New 2-CG
   NFREE  =      1    steps in history (QN), initial steepest desc. (CG)
   ISIF   =      2    stress and relaxation
   IWAVPR =     11    prediction:  0-non 1-charg 2-wave 3-comb
   ISYM   =      2    0-nonsym 1-usesym 2-fastsym
   LCORR  =      T    Harris-Foulkes like correction to forces

   POTIM  = 0.5000    time-step for ionic-motion
   TEIN   =    0.0    initial temperature
   TEBEG  =    0.0;   TEEND  =   0.0 temperature during run
   SMASS  =  -3.00    Nose mass-parameter (am)
   estimated Nose-frequenzy (Omega)   =  0.10E-29 period in steps =****** mass=  -0.285E-26a.u.
   SCALEE = 1.0000    scale energy and forces
   NPACO  =    256;   APACO  = 16.0  distance and # of slots for P.C.
   PSTRESS=    0.0 pullay stress

  Mass of Ions in am
   POMASS = 195.08
  Ionic Valenz
   ZVAL   =  10.00
  Atomic Wigner-Seitz radii
   RWIGS  =  -1.00
  virtual crystal weights 
   VCA    =   1.00
   NELECT =     800.0000    total number of electrons
   NUPDOWN=      -1.0000    fix difference up-down

 DOS related values:
   EMIN   =  10.00;   EMAX   =-10.00  energy-range for DOS
   EFERMI =   0.00
   ISMEAR =     1;   SIGMA  =   0.10  broadening in eV -4-tet -1-fermi 0-gaus

 Electronic relaxation 2 (details)
   IALGO  =     68    algorithm
   LDIAG  =      T    sub-space diagonalisation (order eigenvalues)
   LSUBROT=      F    optimize rotation matrix (better conditioning)
   TURBO    =      0    0=normal 1=particle mesh
   IRESTART =      0    0=no restart 2=restart with 2 vectors
   NREBOOT  =      0    no. of reboots
   NMIN     =      0    reboot dimension
   EREF     =   0.00    reference energy to select bands
   IMIX   =      4    mixing-type and parameters
     AMIX     =   0.40;   BMIX     =  1.00
     AMIX_MAG =   1.60;   BMIX_MAG =  1.00
     AMIN     =   0.10
     WC   =   100.;   INIMIX=   1;  MIXPRE=   1;  MAXMIX= -45

 Intra band minimization:
   WEIMIN = 0.0010     energy-eigenvalue tresh-hold
   EBREAK =  0.52E-08  absolut break condition
   DEPER  =   0.30     relativ break condition  

   TIME   =   0.40     timestep for ELM

  volume/ion in A,a.u.               =      29.66       200.17
  Fermi-wavevector in a.u.,A,eV,Ry     =   1.139404  2.153161 17.663636  1.298241
  Thomas-Fermi vector in A             =   2.276107
 
 Write flags
   LWAVE        =      F    write WAVECAR
   LDOWNSAMPLE  =      F    k-point downsampling of WAVECAR
   LCHARG       =      F    write CHGCAR
   LVTOT        =      F    write LOCPOT, total local potential
   LVHAR        =      F    write LOCPOT, Hartree potential only
   LELF         =      F    write electronic localiz. function (ELF)
   LORBIT       =      0    0 simple, 1 ext, 2 COOP (PROOUT), +10 PAW based schemes


 Dipole corrections
   LMONO  =      F    monopole corrections only (constant potential shift)
   LDIPOL =      F    correct potential (dipole corrections)
   IDIPOL =      0    1-x, 2-y, 3-z, 4-all directions 
   EPSILON=  1.0000000 bulk dielectric constant

 Exchange correlation treatment:
   GGA     =    --    GGA type
   LEXCH   =     8    internal setting for exchange type
   VOSKOWN=      0    Vosko Wilk Nusair interpolation
   LHFCALC =     F    Hartree Fock is set to
   LHFONE  =     F    Hartree Fock one center treatment
   AEXX    =    0.0000 exact exchange contribution

 Linear response parameters
   LEPSILON=     F    determine dielectric tensor
   LRPA    =     F    only Hartree local field effects (RPA)
   LNABLA  =     F    use nabla operator in PAW spheres
   LVEL    =     F    velocity operator in full k-point grid
   LINTERFAST=   F  fast interpolation
   KINTER  =     0    interpolate to denser k-point grid
   CSHIFT  =0.1000    complex shift for real part using Kramers Kronig
   OMEGAMAX=  -1.0    maximum frequency
   DEG_THRESHOLD= 0.2000000E-02 threshold for treating states as degnerate
   RTIME   =   -0.100 relaxation time in fs
  (WPLASMAI=    0.000 imaginary part of plasma frequency in eV, 0.658/RTIME)
   DFIELD  = 0.0000000 0.0000000 0.0000000 field for delta impulse in time
 
 Orbital magnetization related:
   ORBITALMAG=     F  switch on orbital magnetization
   LCHIMAG   =     F  perturbation theory with respect to B field
   DQ        =  0.001000  dq finite difference perturbation B field
   LLRAUG    =     F  two centre corrections for induced B field



--------------------------------------------------------------------------------------------------------


 conjugate gradient relaxation of ions
 charge density and potential will be updated during run
 non-spin polarized calculation
 RMM-DIIS sequential band-by-band and
  variant of blocked Davidson during initial phase
 perform sub-space diagonalisation
    before iterative eigenvector-optimisation
 modified Broyden-mixing scheme, WC =      100.0
 initial mixing is a Kerker type mixing with AMIX =  0.4000 and BMIX =      1.0000
 Hartree-type preconditioning will be used
 using additional bands           80
 real space projection scheme for non local part
 use partial core corrections
 calculate Harris-corrections to forces 
   (improved forces if not selfconsistent)
 use gradient corrections 
 use of overlap-Matrix (Vanderbilt PP)
 Methfessel and Paxton  Order N= 1 SIGMA  =   0.10


--------------------------------------------------------------------------------------------------------


  energy-cutoff  :      550.00
  volume of cell :     2372.91
      direct lattice vectors                 reciprocal lattice vectors
    11.159999999  0.000000000  0.000000000     0.089605735 -0.051733896  0.000000000
     5.580000000  9.664843374  0.000000000     0.000000000  0.103467792  0.000000000
     0.000000000  0.000000000 22.000000000     0.000000000  0.000000000  0.045454545

  length of vectors
    11.159999999 11.159999885 22.000000000     0.103467791  0.103467792  0.045454545


 
 k-points in units of 2pi/SCALE and weight: mesh auto                               
   0.00000000  0.00000000  0.00000000       0.250
   0.04480287 -0.02586695  0.00000000       0.250
   0.00000000  0.05173390  0.00000000       0.250
   0.04480287  0.02586695  0.00000000       0.250
 
 k-points in reciprocal lattice and weights: mesh auto                               
   0.00000000  0.00000000  0.00000000       0.250
   0.50000000  0.00000000  0.00000000       0.250
   0.00000000  0.50000000  0.00000000       0.250
   0.50000000  0.50000000  0.00000000       0.250
 
 position of ions in fractional coordinates (direct lattice) 
   0.78442860  0.86936417  0.32772747
   0.03444920  0.86934389  0.32774937
   0.03434940  0.61944525  0.32787166
   0.78746358  0.86738893  0.02178175
   0.03690392  0.86812094  0.02193806
   0.03720893  0.61762341  0.02204379
   0.61948508  0.20173812  0.12551080
   0.36949462  0.95174462  0.12553035
   0.03476420  0.36948716  0.32785279
   0.03702877  0.36760129  0.02207390
   0.86945337  0.20190614  0.12544818
   0.95173937  0.53575761  0.22672529
   0.28472294  0.11934152  0.32783693
   0.53444012  0.61939898  0.32779539
   0.28474476  0.36940061  0.32794591
   0.28760234  0.11760726  0.02199112
   0.53679606  0.61768686  0.02189700
   0.28694763  0.36790968  0.02205190
   0.61930627  0.95174085  0.12544435
   0.70157043  0.78557199  0.22659826
   0.86924259  0.70176365  0.12552085
   0.61927542  0.45187626  0.12552888
   0.28446079  0.86945870  0.32783449
   0.28718183  0.86764020  0.02189363
   0.61902838  0.70183898  0.12543380
   0.20196204  0.03581541  0.22670703
   0.86732827  0.95299774  0.43131976
   0.11748820  0.45330032  0.43160761
   0.11678683  0.95308356  0.43141153
   0.86775559  0.45261734  0.43143417
   0.36674413  0.95316819  0.43152577
   0.86729215  0.20316055  0.43140923
   0.11738193  0.20320890  0.43146007
   0.61729739  0.95302702  0.43138177
   0.86689894  0.70294654  0.43146488
   0.36746420  0.20274786  0.43153810
   0.36745577  0.70314308  0.43155991
   0.61737073  0.45275518  0.43146682
   0.11730439  0.70285665  0.43149589
   0.61724243  0.20304326  0.43134600
   0.53456733  0.36943850  0.32776700
   0.53757566  0.36726642  0.02190423
   0.53473102  0.11928169  0.32775886
   0.53728833  0.11770181  0.02186281
   0.86924913  0.45191913  0.12558803
   0.11931973  0.45183186  0.12566723
   0.03461650  0.11942571  0.32778999
   0.03738296  0.11769372  0.02190132
   0.11936148  0.95191781  0.12555182
   0.36718189  0.45312368  0.43162956
   0.45170797  0.53574407  0.22672272
   0.61733128  0.70282656  0.43146148
   0.36945654  0.20192806  0.12563008
   0.11958360  0.20181156  0.12559832
   0.95176567  0.78572206  0.22668712
   0.78440850  0.61928528  0.32774519
   0.28445832  0.61943908  0.32787990
   0.78694236  0.61778603  0.02187955
   0.28706621  0.61761750  0.02196795
   0.36904601  0.70189939  0.12556586
   0.36943780  0.45180821  0.12561018
   0.20202637  0.28569234  0.22681224
   0.78460794  0.36937377  0.32775529
   0.78717484  0.36783173  0.02181551
   0.95189203  0.03573906  0.22663141
   0.45176624  0.78567801  0.22666953
   0.70172051  0.53577861  0.22664472
   0.20169358  0.78569819  0.22673061
   0.45191244  0.03558221  0.22668539
   0.11916120  0.70195931  0.12559869
   0.70190268  0.03563718  0.22657964
   0.78459646  0.11942264  0.32767112
   0.53443745  0.86931499  0.32781385
   0.78732785  0.11762776  0.02181509
   0.53737712  0.86774890  0.02176591
   0.20185002  0.53583121  0.22678605
   0.95205217  0.28573101  0.22672325
   0.86930589  0.95187157  0.12550997
   0.70194442  0.28563206  0.22657730
   0.45209968  0.28567475  0.22674081
 
 position of ions in cartesian coordinates  (Angst):
  13.60527523  8.40226855  7.21000443
   5.23539191  8.40207249  7.21048623
   3.83984381  5.98684129  7.21317656
  13.62812377  8.38317819  0.47919859
   5.25596256  8.39025288  0.48263742
   3.86159027  5.96923349  0.48496328
   8.03915219  1.94976731  2.76123762
   9.43429495  9.19846273  2.76166777
   2.44970685  3.57103553  7.21276133
   2.46445632  3.55280894  0.48562570
  10.82973591  1.95139125  2.75985989
  13.61093877  5.17801337  4.98795630
   3.84343365  1.15341707  7.21241238
   9.42059802  5.98639408  7.21149859
   5.23900693  3.57019907  7.21481006
   3.86589065  1.13665573  0.48380465
   9.43733669  5.96984680  0.48173390
   5.25527159  3.55578944  0.48514189
  12.22217194  9.19842625  2.75977575
  12.21301763  7.59243021  4.98516180
  13.61658841  6.78243576  2.76145871
   9.43258321  4.36731326  2.76163536
   8.02616199  8.40318212  7.21235872
   8.04638157  8.38560661  0.48165984
  10.82461822  6.78316383  2.75954362
   2.45374640  0.34615036  4.98755467
  14.99711083  9.21057386  9.48903483
   3.84058406  4.38107656  9.49536751
   6.62154728  9.21140329  9.49105375
  12.20975716  4.37447567  9.49155179
   9.41154298  9.21222129  9.49356704
  10.81261621  1.96351487  9.49100303
   2.44388799  1.96398222  9.49212161
  12.20692958  9.21085685  9.49039903
  13.59703383  6.79386822  9.49222741
   5.23223349  1.95952629  9.49383822
   8.02434479  6.79576770  9.49431795
   9.41623126  4.37580786  9.49227005
   5.23105710  6.79299941  9.49290957
   8.02140692  1.96238132  9.48961193
   8.02723822  3.57056528  7.21087390
   8.04869094  3.54957243  0.48189296
   6.63318999  1.15283882  7.21069492
   6.65291383  1.13756958  0.48098189
  12.22252901  4.36772760  2.76293665
   3.85282993  4.36688419  2.76467895
   1.05271560  1.15423076  7.21137972
   1.07392473  1.13749137  0.48182908
   6.64377553  9.20013651  2.76213995
   6.62618010  4.37936944  9.49585041
   8.03051281  5.17788253  4.98789975
  10.81118925  6.79270861  9.49215254
   5.24989356  1.95160312  2.76386166
   2.46066145  1.95047712  2.76316298
  15.00603397  7.59388067  4.98711654
  12.20961075  5.98529527  7.21039424
   6.63102491  5.98678165  7.21335782
  12.22952279  5.97080522  0.48135011
   6.64996454  5.96917639  0.48329501
   8.03515208  6.78374767  2.76244901
   6.64401571  4.36665559  2.76342397
   3.84877759  2.76117175  4.98986925
  10.81733032  3.56993968  7.21061635
  10.83737225  3.55503609  0.47994118
  10.82253901  0.34541241  4.98589096
   9.42579450  7.59345491  4.98672967
  10.82084548  5.17821635  4.98618379
   6.63509624  7.59364993  4.98807335
   5.24189153  0.34389648  4.98707862
   5.24677188  6.78432674  2.76317115
   8.03208933  0.34442776  4.98475213
   9.42247477  1.15420108  7.20876462
  10.81509953  8.40179319  7.21190469
   9.44294172  1.13685390  0.47993201
  10.83916758  8.38665722  0.47885009
   5.24258434  5.17872475  4.98929307
  12.21928121  2.76154541  4.98791160
  15.01289704  9.19968960  2.76121924
   9.42752665  2.76058915  4.98470065
   6.63949759  2.76100176  4.98829778
 


--------------------------------------------------------------------------------------------------------


 k-point  1 :   0.0000 0.0000 0.0000  plane waves:   69505
 k-point  2 :   0.5000 0.0000 0.0000  plane waves:   69454
 k-point  3 :   0.0000 0.5000 0.0000  plane waves:   69454
 k-point  4 :   0.5000 0.5000 0.0000  plane waves:   69454

 maximum and minimum number of plane-waves per node :     17422    17318

 maximum number of plane-waves:     69505
 maximum index in each direction: 
   IXMAX=   21   IYMAX=   21   IZMAX=   42
   IXMIN=  -21   IYMIN=  -21   IZMIN=  -42


 real space projection operators:
  total allocation   :      86962.78 KBytes
  max/ min on nodes  :      22228.03      21248.30


 parallel 3D FFT for wavefunctions:
    minimum data exchange during FFTs selected (reduces bandwidth)
 parallel 3D FFT for charge:
    minimum data exchange during FFTs selected (reduces bandwidth)


 total amount of memory used by VASP MPI-rank0   171836. kBytes
=======================================================================

   base      :      30000. kBytes
   nonlr-proj:      38197. kBytes
   fftplans  :      20284. kBytes
   grid      :      28516. kBytes
   one-center:        311. kBytes
   wavefun   :      54528. kBytes
 
     INWAV:  cpu time    0.0000: real time    0.0000
 Broyden mixing: mesh for mixing (old mesh)
   NGX = 43   NGY = 43   NGZ = 85
  (NGX  =180   NGY  =180   NGZ  =336)
  gives a total of 157165 points

 initial charge density was supplied:
 charge density of overlapping atoms calculated
 number of electron     800.0000000 magnetization 
 keeping initial charge density in first step


--------------------------------------------------------------------------------------------------------


 Maximum index for non-local projection operator         2129
 Maximum index for augmentation-charges         1793 (set IRDMAX)


--------------------------------------------------------------------------------------------------------


 First call to EWALD:  gamma=   0.133
 Maximum number of real-space cells 4x 4x 2
 Maximum number of reciprocal cells 2x 2x 4

    FEWALD:  cpu time    0.0038: real time    0.0038


--------------------------------------- Iteration      1(   1)  ---------------------------------------


    POTLOK:  cpu time    0.2103: real time    0.2230
    SETDIJ:  cpu time    0.0211: real time    0.0214
     EDDAV:  cpu time   30.4323: real time   30.5658
       DOS:  cpu time    0.0012: real time    0.0014
    --------------------------------------------
      LOOP:  cpu time   30.6648: real time   30.8116

 eigenvalue-minimisations  :  3840
 total energy-change (2. order) : 0.5617654E+04  (-0.3911082E+05)
 number of electron     800.0000000 magnetization 
 augmentation part      800.0000000 magnetization 

 Free energy of the ion-electron system (eV)
  ---------------------------------------------------
  alpha Z        PSCENC =      2563.82377583
  Ewald energy   TEWEN  =    178337.67214789
  -Hartree energ DENC   =   -242477.28830994
  -exchange      EXHF   =         0.00000000
  -V(xc)+E(xc)   XCENC  =       281.39586782
  PAW double counting   =     55689.88283425   -53427.22359852
  entropy T*S    EENTRO =        -0.00034768
  eigenvalues    EBANDS =      6320.14802254
  atomic energy  EATOM  =     58329.24398462
  Solvation  Ediel_sol  =         0.00000000
  ---------------------------------------------------
  free energy    TOTEN  =      5617.65437682 eV

  energy without entropy =     5617.65472450  energy(sigma->0) =     5617.65449271


--------------------------------------------------------------------------------------------------------




--------------------------------------- Iteration      1(   2)  ---------------------------------------


     EDDAV:  cpu time   33.2653: real time   33.3629
       DOS:  cpu time    0.0010: real time    0.0010
    --------------------------------------------
      LOOP:  cpu time   33.2663: real time   33.3639

 eigenvalue-minimisations  :  4290
 total energy-change (2. order) :-0.5754534E+04  (-0.5353524E+04)
 number of electron     800.0000000 magnetization 
 augmentation part      800.0000000 magnetization 

 Free energy of the ion-electron system (eV)
  ---------------------------------------------------
  alpha Z        PSCENC =      2563.82377583
  Ewald energy   TEWEN  =    178337.67214789
  -Hartree energ DENC   =   -242477.28830994
  -exchange      EXHF   =         0.00000000
  -V(xc)+E(xc)   XCENC  =       281.39586782
  PAW double counting   =     55689.88283425   -53427.22359852
  entropy T*S    EENTRO =        -0.00831616
  eigenvalues    EBANDS =       565.62153662
  atomic energy  EATOM  =     58329.24398462
  Solvation  Ediel_sol  =         0.00000000
  ---------------------------------------------------
  free energy    TOTEN  =      -136.88007759 eV

  energy without entropy =     -136.87176143  energy(sigma->0) =     -136.87730553


--------------------------------------------------------------------------------------------------------




--------------------------------------- Iteration      1(   3)  ---------------------------------------


     EDDAV:  cpu time   35.0483: real time   35.1688
       DOS:  cpu time    0.0011: real time    0.0011
    --------------------------------------------
      LOOP:  cpu time   35.0494: real time   35.1699

 eigenvalue-minimisations  :  4630
 total energy-change (2. order) :-0.3439041E+03  (-0.3077734E+03)
 number of electron     800.0000000 magnetization 
 augmentation part      800.0000000 magnetization 

 Free energy of the ion-electron system (eV)
  ---------------------------------------------------
  alpha Z        PSCENC =      2563.82377583
  Ewald energy   TEWEN  =    178337.67214789
  -Hartree energ DENC   =   -242477.28830994
  -exchange      EXHF   =         0.00000000
  -V(xc)+E(xc)   XCENC  =       281.39586782
  PAW double counting   =     55689.88283425   -53427.22359852
  entropy T*S    EENTRO =        -0.11103608
  eigenvalues    EBANDS =       221.82020414
  atomic energy  EATOM  =     58329.24398462
  Solvation  Ediel_sol  =         0.00000000
  ---------------------------------------------------
  free energy    TOTEN  =      -480.78412999 eV

  energy without entropy =     -480.67309391  energy(sigma->0) =     -480.74711796


--------------------------------------------------------------------------------------------------------




--------------------------------------- Iteration      1(   4)  ---------------------------------------


     EDDAV:  cpu time   36.8092: real time   36.9348
       DOS:  cpu time    0.0012: real time    0.0012
    --------------------------------------------
      LOOP:  cpu time   36.8104: real time   36.9360

 eigenvalue-minimisations  :  4890
 total energy-change (2. order) :-0.1609022E+02  (-0.1531555E+02)
 number of electron     800.0000000 magnetization 
 augmentation part      800.0000000 magnetization 

 Free energy of the ion-electron system (eV)
  ---------------------------------------------------
  alpha Z        PSCENC =      2563.82377583
  Ewald energy   TEWEN  =    178337.67214789
  -Hartree energ DENC   =   -242477.28830994
  -exchange      EXHF   =         0.00000000
  -V(xc)+E(xc)   XCENC  =       281.39586782
  PAW double counting   =     55689.88283425   -53427.22359852
  entropy T*S    EENTRO =        -0.12863324
  eigenvalues    EBANDS =       205.74758255
  atomic energy  EATOM  =     58329.24398462
  Solvation  Ediel_sol  =         0.00000000
  ---------------------------------------------------
  free energy    TOTEN  =      -496.87434873 eV

  energy without entropy =     -496.74571549  energy(sigma->0) =     -496.83147099


--------------------------------------------------------------------------------------------------------




--------------------------------------- Iteration      1(   5)  ---------------------------------------


     EDDAV:  cpu time   36.0779: real time   36.1632
       DOS:  cpu time    0.0011: real time    0.0011
    CHARGE:  cpu time    2.5045: real time    2.5106
    MIXING:  cpu time    0.0072: real time    0.0078
    --------------------------------------------
      LOOP:  cpu time   38.5907: real time   38.6827

 eigenvalue-minimisations  :  4800
 total energy-change (2. order) :-0.4248527E+00  (-0.4232029E+00)
 number of electron     800.0000018 magnetization 
 augmentation part      232.2162241 magnetization 

 Broyden mixing:
  rms(total) = 0.10039E+02    rms(broyden)= 0.10039E+02
  rms(prec ) = 0.10217E+02
  weight for this iteration     100.00

 Free energy of the ion-electron system (eV)
  ---------------------------------------------------
  alpha Z        PSCENC =      2563.82377583
  Ewald energy   TEWEN  =    178337.67214789
  -Hartree energ DENC   =   -242477.28830994
  -exchange      EXHF   =         0.00000000
  -V(xc)+E(xc)   XCENC  =       281.39586782
  PAW double counting   =     55689.88283425   -53427.22359852
  entropy T*S    EENTRO =        -0.12883083
  eigenvalues    EBANDS =       205.32292741
  atomic energy  EATOM  =     58329.24398462
  Solvation  Ediel_sol  =         0.00000000
  ---------------------------------------------------
  free energy    TOTEN  =      -497.29920147 eV

  energy without entropy =     -497.17037064  energy(sigma->0) =     -497.25625786


--------------------------------------------------------------------------------------------------------




--------------------------------------- Iteration      1(   6)  ---------------------------------------


    POTLOK:  cpu time    0.2024: real time    0.2029
    SETDIJ:  cpu time    0.0161: real time    0.0161
    EDDIAG:  cpu time    5.5288: real time    5.5473
  RMM-DIIS:  cpu time   19.2474: real time   19.3145
    ORTHCH:  cpu time    0.5029: real time    0.5045
       DOS:  cpu time    0.0011: real time    0.0011
    CHARGE:  cpu time    2.4971: real time    2.5056
    MIXING:  cpu time    0.0071: real time    0.0074
    --------------------------------------------
      LOOP:  cpu time   28.0028: real time   28.0994

 eigenvalue-minimisations  :  3869
 total energy-change (2. order) :-0.1673460E+02  (-0.1024665E+02)
 number of electron     800.0000023 magnetization 
 augmentation part      245.3740241 magnetization 

 Broyden mixing:
  rms(total) = 0.91806E+01    rms(broyden)= 0.91806E+01
  rms(prec ) = 0.10424E+02
  weight for this iteration     100.00

 eigenvalues of (default mixing * dielectric matrix)
  average eigenvalue GAMMA=   0.7220
  0.7220

 Free energy of the ion-electron system (eV)
  ---------------------------------------------------
  alpha Z        PSCENC =      2563.82377583
  Ewald energy   TEWEN  =    178337.67214789
  -Hartree energ DENC   =   -241342.73811238
  -exchange      EXHF   =         0.00000000
  -V(xc)+E(xc)   XCENC  =       260.67454538
  PAW double counting   =     62046.89398725   -59907.96927318
  entropy T*S    EENTRO =         0.01716682
  eigenvalues    EBANDS =      -801.65201927
  atomic energy  EATOM  =     58329.24398462
  Solvation  Ediel_sol  =         0.00000000
  ---------------------------------------------------
  free energy    TOTEN  =      -514.03379702 eV

  energy without entropy =     -514.05096384  energy(sigma->0) =     -514.03951929


--------------------------------------------------------------------------------------------------------




--------------------------------------- Iteration      1(   7)  ---------------------------------------


    POTLOK:  cpu time    0.1958: real time    0.1965
    SETDIJ:  cpu time    0.0158: real time    0.0159
    EDDIAG:  cpu time    5.3515: real time    5.3699
  RMM-DIIS:  cpu time   18.7998: real time   18.8664
    ORTHCH:  cpu time    0.5031: real time    0.5048
       DOS:  cpu time    0.0012: real time    0.0012
    CHARGE:  cpu time    2.4807: real time    2.4880
    MIXING:  cpu time    0.0069: real time    0.0069
    --------------------------------------------
      LOOP:  cpu time   27.3548: real time   27.4497

 eigenvalue-minimisations  :  3848
 total energy-change (2. order) :-0.1363267E+02  (-0.1191912E+02)
 number of electron     800.0000018 magnetization 
 augmentation part      241.9527708 magnetization 

 Broyden mixing:
  rms(total) = 0.72588E+01    rms(broyden)= 0.72588E+01
  rms(prec ) = 0.90793E+01
  weight for this iteration     100.00

 eigenvalues of (default mixing * dielectric matrix)
  average eigenvalue GAMMA=   1.1971
  2.1729  0.2213

 Free energy of the ion-electron system (eV)
  ---------------------------------------------------
  alpha Z        PSCENC =      2563.82377583
  Ewald energy   TEWEN  =    178337.67214789
  -Hartree energ DENC   =   -242181.75858697
  -exchange      EXHF   =         0.00000000
  -V(xc)+E(xc)   XCENC  =       257.25747546
  PAW double counting   =     64299.18264987   -62185.40855803
  entropy T*S    EENTRO =        -0.28639324
  eigenvalues    EBANDS =        52.60703829
  atomic energy  EATOM  =     58329.24398462
  Solvation  Ediel_sol  =         0.00000000
  ---------------------------------------------------
  free energy    TOTEN  =      -527.66646626 eV

  energy without entropy =     -527.38007301  energy(sigma->0) =     -527.57100184


--------------------------------------------------------------------------------------------------------




--------------------------------------- Iteration      1(   8)  ---------------------------------------


    POTLOK:  cpu time    0.1958: real time    0.1963
    SETDIJ:  cpu time    0.0157: real time    0.0158
    EDDIAG:  cpu time    5.3472: real time    5.3598
  RMM-DIIS:  cpu time   19.1800: real time   19.2325
    ORTHCH:  cpu time    0.5038: real time    0.5050
       DOS:  cpu time    0.0011: real time    0.0011
    CHARGE:  cpu time    2.5108: real time    2.5167
    MIXING:  cpu time    0.0074: real time    0.0074
    --------------------------------------------
      LOOP:  cpu time   27.7618: real time   27.8346

 eigenvalue-minimisations  :  3867
 total energy-change (2. order) : 0.4417254E+02  (-0.3689936E+01)
 number of electron     800.0000021 magnetization 
 augmentation part      249.7640037 magnetization 

 Broyden mixing:
  rms(total) = 0.35397E+01    rms(broyden)= 0.35397E+01
  rms(prec ) = 0.42005E+01
  weight for this iteration     100.00

 eigenvalues of (default mixing * dielectric matrix)
  average eigenvalue GAMMA=   0.9693
  2.1256  0.5530  0.2293

 Free energy of the ion-electron system (eV)
  ---------------------------------------------------
  alpha Z        PSCENC =      2563.82377583
  Ewald energy   TEWEN  =    178337.67214789
  -Hartree energ DENC   =   -241540.43197757
  -exchange      EXHF   =         0.00000000
  -V(xc)+E(xc)   XCENC  =       248.37092164
  PAW double counting   =     71650.45595008   -69631.41910212
  entropy T*S    EENTRO =         0.03881108
  eigenvalues    EBANDS =      -441.24843669
  atomic energy  EATOM  =     58329.24398462
  Solvation  Ediel_sol  =         0.00000000
  ---------------------------------------------------
  free energy    TOTEN  =      -483.49392522 eV

  energy without entropy =     -483.53273630  energy(sigma->0) =     -483.50686225


--------------------------------------------------------------------------------------------------------




--------------------------------------- Iteration      1(   9)  ---------------------------------------


    POTLOK:  cpu time    0.2013: real time    0.2018
    SETDIJ:  cpu time    0.0160: real time    0.0161
    EDDIAG:  cpu time    5.3494: real time    5.3620
  RMM-DIIS:  cpu time   19.0536: real time   19.0986
    ORTHCH:  cpu time    0.5026: real time    0.5038
       DOS:  cpu time    0.0012: real time    0.0012
    CHARGE:  cpu time    2.4621: real time    2.4679
    MIXING:  cpu time    0.0073: real time    0.0073
    --------------------------------------------
      LOOP:  cpu time   27.5935: real time   27.6586

 eigenvalue-minimisations  :  3860
 total energy-change (2. order) : 0.3961302E+00  (-0.4094551E+01)
 number of electron     800.0000022 magnetization 
 augmentation part      249.5358847 magnetization 

 Broyden mixing:
  rms(total) = 0.39674E+01    rms(broyden)= 0.39673E+01
  rms(prec ) = 0.61900E+01
  weight for this iteration     100.00

 eigenvalues of (default mixing * dielectric matrix)
  average eigenvalue GAMMA=   0.8666
  2.1252  0.9006  0.2203  0.2203

 Free energy of the ion-electron system (eV)
  ---------------------------------------------------
  alpha Z        PSCENC =      2563.82377583
  Ewald energy   TEWEN  =    178337.67214789
  -Hartree energ DENC   =   -241473.52786176
  -exchange      EXHF   =         0.00000000
  -V(xc)+E(xc)   XCENC  =       250.04879392
  PAW double counting   =     71832.88123699   -69810.89885402
  entropy T*S    EENTRO =        -0.00266885
  eigenvalues    EBANDS =      -512.33834960
  atomic energy  EATOM  =     58329.24398462
  Solvation  Ediel_sol  =         0.00000000
  ---------------------------------------------------
  free energy    TOTEN  =      -483.09779498 eV

  energy without entropy =     -483.09512613  energy(sigma->0) =     -483.09690537


--------------------------------------------------------------------------------------------------------




--------------------------------------- Iteration      1(  10)  ---------------------------------------


    POTLOK:  cpu time    0.1992: real time    0.1997
    SETDIJ:  cpu time    0.0159: real time    0.0159
    EDDIAG:  cpu time    5.3519: real time    5.3647
  RMM-DIIS:  cpu time   19.0196: real time   19.0827
    ORTHCH:  cpu time    0.5032: real time    0.5050
       DOS:  cpu time    0.0011: real time    0.0011
    CHARGE:  cpu time    2.4925: real time    2.5014
    MIXING:  cpu time    0.0077: real time    0.0078
    --------------------------------------------
      LOOP:  cpu time   27.5911: real time   27.6784

 eigenvalue-minimisations  :  3857
 total energy-change (2. order) :-0.3493750E+02  (-0.1744064E+01)
 number of electron     800.0000017 magnetization 
 augmentation part      248.5056193 magnetization 

 Broyden mixing:
  rms(total) = 0.59083E+01    rms(broyden)= 0.59083E+01
  rms(prec ) = 0.97475E+01
  weight for this iteration     100.00

 eigenvalues of (default mixing * dielectric matrix)
  average eigenvalue GAMMA=   0.7818
  2.1913  1.1327  0.2423  0.2423  0.1008

 Free energy of the ion-electron system (eV)
  ---------------------------------------------------
  alpha Z        PSCENC =      2563.82377583
  Ewald energy   TEWEN  =    178337.67214789
  -Hartree energ DENC   =   -241495.42844666
  -exchange      EXHF   =         0.00000000
  -V(xc)+E(xc)   XCENC  =       251.02987321
  PAW double counting   =     72009.59581431   -69985.79195972
  entropy T*S    EENTRO =        -0.02479957
  eigenvalues    EBANDS =      -528.15568032
  atomic energy  EATOM  =     58329.24398462
  Solvation  Ediel_sol  =         0.00000000
  ---------------------------------------------------
  free energy    TOTEN  =      -518.03529040 eV

  energy without entropy =     -518.01049083  energy(sigma->0) =     -518.02702388


--------------------------------------------------------------------------------------------------------




--------------------------------------- Iteration      1(  11)  ---------------------------------------


    POTLOK:  cpu time    0.1974: real time    0.1980
    SETDIJ:  cpu time    0.0159: real time    0.0162
    EDDIAG:  cpu time    5.3370: real time    5.3561
  RMM-DIIS:  cpu time   19.0054: real time   19.0718
    ORTHCH:  cpu time    0.5052: real time    0.5066
       DOS:  cpu time    0.0012: real time    0.0012
    CHARGE:  cpu time    2.5254: real time    2.5343
    MIXING:  cpu time    0.0081: real time    0.0081
    --------------------------------------------
      LOOP:  cpu time   27.5957: real time   27.6923

 eigenvalue-minimisations  :  3859
 total energy-change (2. order) : 0.4801115E+02  (-0.6855350E+00)
 number of electron     800.0000021 magnetization 
 augmentation part      248.4152069 magnetization 

 Broyden mixing:
  rms(total) = 0.24154E+01    rms(broyden)= 0.24154E+01
  rms(prec ) = 0.26953E+01
  weight for this iteration     100.00

 eigenvalues of (default mixing * dielectric matrix)
  average eigenvalue GAMMA=   0.6898
  2.1700  1.0932  0.2743  0.2743  0.2349  0.0922

 Free energy of the ion-electron system (eV)
  ---------------------------------------------------
  alpha Z        PSCENC =      2563.82377583
  Ewald energy   TEWEN  =    178337.67214789
  -Hartree energ DENC   =   -241576.13933467
  -exchange      EXHF   =         0.00000000
  -V(xc)+E(xc)   XCENC  =       251.73907913
  PAW double counting   =     72392.14374858   -70368.64847825
  entropy T*S    EENTRO =        -0.26013750
  eigenvalues    EBANDS =      -399.59892584
  atomic energy  EATOM  =     58329.24398462
  Solvation  Ediel_sol  =         0.00000000
  ---------------------------------------------------
  free energy    TOTEN  =      -470.02414021 eV

  energy without entropy =     -469.76400271  energy(sigma->0) =     -469.93742771


--------------------------------------------------------------------------------------------------------




--------------------------------------- Iteration      1(  12)  ---------------------------------------


    POTLOK:  cpu time    0.2016: real time    0.2021
    SETDIJ:  cpu time    0.0159: real time    0.0159
    EDDIAG:  cpu time    5.3403: real time    5.3591
  RMM-DIIS:  cpu time   19.1075: real time   19.1736
    ORTHCH:  cpu time    0.5069: real time    0.5086
       DOS:  cpu time    0.0012: real time    0.0012
    CHARGE:  cpu time    2.5256: real time    2.5340
    MIXING:  cpu time    0.0081: real time    0.0081
    --------------------------------------------
      LOOP:  cpu time   27.7071: real time   27.8027

 eigenvalue-minimisations  :  3860
 total energy-change (2. order) : 0.2585310E+01  (-0.1783683E+00)
 number of electron     800.0000021 magnetization 
 augmentation part      248.4649928 magnetization 

 Broyden mixing:
  rms(total) = 0.16815E+01    rms(broyden)= 0.16815E+01
  rms(prec ) = 0.18513E+01
  weight for this iteration     100.00

 eigenvalues of (default mixing * dielectric matrix)
  average eigenvalue GAMMA=   0.6364
  2.1318  0.9956  0.3945  0.3945  0.2226  0.2226  0.0932

 Free energy of the ion-electron system (eV)
  ---------------------------------------------------
  alpha Z        PSCENC =      2563.82377583
  Ewald energy   TEWEN  =    178337.67214789
  -Hartree energ DENC   =   -241555.76978037
  -exchange      EXHF   =         0.00000000
  -V(xc)+E(xc)   XCENC  =       251.91606850
  PAW double counting   =     72356.39528033   -70331.86837013
  entropy T*S    EENTRO =        -0.21214256
  eigenvalues    EBANDS =      -418.63979394
  atomic energy  EATOM  =     58329.24398462
  Solvation  Ediel_sol  =         0.00000000
  ---------------------------------------------------
  free energy    TOTEN  =      -467.43882983 eV

  energy without entropy =     -467.22668726  energy(sigma->0) =     -467.36811564


--------------------------------------------------------------------------------------------------------




--------------------------------------- Iteration      1(  13)  ---------------------------------------


    POTLOK:  cpu time    0.2047: real time    0.2053
    SETDIJ:  cpu time    0.0161: real time    0.0161
    EDDIAG:  cpu time    5.3438: real time    5.3629
  RMM-DIIS:  cpu time   19.2115: real time   19.2779
    ORTHCH:  cpu time    0.5077: real time    0.5091
       DOS:  cpu time    0.0012: real time    0.0012
    CHARGE:  cpu time    2.5246: real time    2.5334
    MIXING:  cpu time    0.0085: real time    0.0085
    --------------------------------------------
      LOOP:  cpu time   27.8181: real time   27.9145

 eigenvalue-minimisations  :  3898
 total energy-change (2. order) : 0.1046960E+01  (-0.8925978E-01)
 number of electron     800.0000021 magnetization 
 augmentation part      248.4225324 magnetization 

 Broyden mixing:
  rms(total) = 0.11203E+01    rms(broyden)= 0.11203E+01
  rms(prec ) = 0.14066E+01
  weight for this iteration     100.00

 eigenvalues of (default mixing * dielectric matrix)
  average eigenvalue GAMMA=   0.6879
  2.0490  0.9730  0.9730  0.5272  0.3923  0.2479  0.2479  0.0928

 Free energy of the ion-electron system (eV)
  ---------------------------------------------------
  alpha Z        PSCENC =      2563.82377583
  Ewald energy   TEWEN  =    178337.67214789
  -Hartree energ DENC   =   -241555.94539148
  -exchange      EXHF   =         0.00000000
  -V(xc)+E(xc)   XCENC  =       252.01767622
  PAW double counting   =     72250.59922922   -70224.59680820
  entropy T*S    EENTRO =        -0.16301553
  eigenvalues    EBANDS =      -419.04346813
  atomic energy  EATOM  =     58329.24398462
  Solvation  Ediel_sol  =         0.00000000
  ---------------------------------------------------
  free energy    TOTEN  =      -466.39186956 eV

  energy without entropy =     -466.22885403  energy(sigma->0) =     -466.33753105


--------------------------------------------------------------------------------------------------------




--------------------------------------- Iteration      1(  14)  ---------------------------------------


    POTLOK:  cpu time    0.1973: real time    0.1980
    SETDIJ:  cpu time    0.0158: real time    0.0158
    EDDIAG:  cpu time    5.3465: real time    5.3655
  RMM-DIIS:  cpu time   19.0716: real time   19.1383
    ORTHCH:  cpu time    0.5041: real time    0.5058
       DOS:  cpu time    0.0011: real time    0.0011
    CHARGE:  cpu time    2.4860: real time    2.4945
    MIXING:  cpu time    0.0086: real time    0.0087
    --------------------------------------------
      LOOP:  cpu time   27.6311: real time   27.7277

 eigenvalue-minimisations  :  3862
 total energy-change (2. order) :-0.7666829E+00  (-0.1275684E+00)
 number of electron     800.0000020 magnetization 
 augmentation part      248.0097808 magnetization 

 Broyden mixing:
  rms(total) = 0.14401E+01    rms(broyden)= 0.14401E+01
  rms(prec ) = 0.18533E+01
  weight for this iteration     100.00

 eigenvalues of (default mixing * dielectric matrix)
  average eigenvalue GAMMA=   0.6840
  1.9271  1.3019  1.3019  0.4404  0.4404  0.0928  0.2227  0.2227  0.2067

 Free energy of the ion-electron system (eV)
  ---------------------------------------------------
  alpha Z        PSCENC =      2563.82377583
  Ewald energy   TEWEN  =    178337.67214789
  -Hartree energ DENC   =   -241613.11299443
  -exchange      EXHF   =         0.00000000
  -V(xc)+E(xc)   XCENC  =       252.14233207
  PAW double counting   =     72140.23511514   -70112.69012260
  entropy T*S    EENTRO =        -0.17935321
  eigenvalues    EBANDS =      -364.29343775
  atomic energy  EATOM  =     58329.24398462
  Solvation  Ediel_sol  =         0.00000000
  ---------------------------------------------------
  free energy    TOTEN  =      -467.15855244 eV

  energy without entropy =     -466.97919923  energy(sigma->0) =     -467.09876804


--------------------------------------------------------------------------------------------------------




--------------------------------------- Iteration      1(  15)  ---------------------------------------


    POTLOK:  cpu time    0.1970: real time    0.1979
    SETDIJ:  cpu time    0.0159: real time    0.0160
    EDDIAG:  cpu time    5.3383: real time    5.3568
  RMM-DIIS:  cpu time   19.1684: real time   19.2355
    ORTHCH:  cpu time    0.5050: real time    0.5069
       DOS:  cpu time    0.0012: real time    0.0012
    CHARGE:  cpu time    2.4762: real time    2.4846
    MIXING:  cpu time    0.0090: real time    0.0090
    --------------------------------------------
      LOOP:  cpu time   27.7110: real time   27.8079

 eigenvalue-minimisations  :  3875
 total energy-change (2. order) : 0.1359754E+00  (-0.5004011E-01)
 number of electron     800.0000020 magnetization 
 augmentation part      247.8672563 magnetization 

 Broyden mixing:
  rms(total) = 0.12967E+01    rms(broyden)= 0.12967E+01
  rms(prec ) = 0.17564E+01
  weight for this iteration     100.00

 eigenvalues of (default mixing * dielectric matrix)
  average eigenvalue GAMMA=   0.6715
  1.7153  1.5424  1.5424  0.4432  0.4432  0.2772  0.2772  0.2441  0.0928  0.1372

 Free energy of the ion-electron system (eV)
  ---------------------------------------------------
  alpha Z        PSCENC =      2563.82377583
  Ewald energy   TEWEN  =    178337.67214789
  -Hartree energ DENC   =   -241631.19727369
  -exchange      EXHF   =         0.00000000
  -V(xc)+E(xc)   XCENC  =       252.33142906
  PAW double counting   =     72084.77468408   -70056.07879157
  entropy T*S    EENTRO =        -0.21208339
  eigenvalues    EBANDS =      -347.38044984
  atomic energy  EATOM  =     58329.24398462
  Solvation  Ediel_sol  =         0.00000000
  ---------------------------------------------------
  free energy    TOTEN  =      -467.02257700 eV

  energy without entropy =     -466.81049361  energy(sigma->0) =     -466.95188254


--------------------------------------------------------------------------------------------------------




--------------------------------------- Iteration      1(  16)  ---------------------------------------


    POTLOK:  cpu time    0.1989: real time    0.1995
    SETDIJ:  cpu time    0.0159: real time    0.0159
    EDDIAG:  cpu time    5.3305: real time    5.3492
  RMM-DIIS:  cpu time   19.1018: real time   19.1686
    ORTHCH:  cpu time    0.5753: real time    0.5774
       DOS:  cpu time    0.0017: real time    0.0017
    CHARGE:  cpu time    2.4872: real time    2.4954
    MIXING:  cpu time    0.0084: real time    0.0084
    --------------------------------------------
      LOOP:  cpu time   27.7198: real time   27.8162

 eigenvalue-minimisations  :  3869
 total energy-change (2. order) : 0.9710937E+00  (-0.2437490E-01)
 number of electron     800.0000020 magnetization 
 augmentation part      247.9514699 magnetization 

 Broyden mixing:
  rms(total) = 0.55879E+00    rms(broyden)= 0.55879E+00
  rms(prec ) = 0.72006E+00
  weight for this iteration     100.00

 eigenvalues of (default mixing * dielectric matrix)
  average eigenvalue GAMMA=   0.6462
  1.6431  1.6431  1.6199  0.4631  0.4631  0.2816  0.2816  0.2421  0.2421  0.0928
  0.1359

 Free energy of the ion-electron system (eV)
  ---------------------------------------------------
  alpha Z        PSCENC =      2563.82377583
  Ewald energy   TEWEN  =    178337.67214789
  -Hartree energ DENC   =   -241621.32099530
  -exchange      EXHF   =         0.00000000
  -V(xc)+E(xc)   XCENC  =       252.54967150
  PAW double counting   =     72060.16369975   -70030.48957354
  entropy T*S    EENTRO =        -0.34195841
  eigenvalues    EBANDS =      -357.35223565
  atomic energy  EATOM  =     58329.24398462
  Solvation  Ediel_sol  =         0.00000000
  ---------------------------------------------------
  free energy    TOTEN  =      -466.05148331 eV

  energy without entropy =     -465.70952490  energy(sigma->0) =     -465.93749718


--------------------------------------------------------------------------------------------------------




--------------------------------------- Iteration      1(  17)  ---------------------------------------


    POTLOK:  cpu time    0.2002: real time    0.2006
    SETDIJ:  cpu time    0.0157: real time    0.0157
    EDDIAG:  cpu time    5.3457: real time    5.3645
  RMM-DIIS:  cpu time   19.5297: real time   19.5975
    ORTHCH:  cpu time    0.5055: real time    0.5070
       DOS:  cpu time    0.0012: real time    0.0012
    CHARGE:  cpu time    2.4985: real time    2.5074
    MIXING:  cpu time    0.0094: real time    0.0094
    --------------------------------------------
      LOOP:  cpu time   28.1058: real time   28.2033

 eigenvalue-minimisations  :  3903
 total energy-change (2. order) : 0.1915741E+00  (-0.8240044E-02)
 number of electron     800.0000020 magnetization 
 augmentation part      248.0214925 magnetization 

 Broyden mixing:
  rms(total) = 0.22432E+00    rms(broyden)= 0.22432E+00
  rms(prec ) = 0.26458E+00
  weight for this iteration     100.00

 eigenvalues of (default mixing * dielectric matrix)
  average eigenvalue GAMMA=   0.6441
  1.6936  1.6936  1.6209  0.5604  0.5604  0.3276  0.3276  0.0928  0.2516  0.2516
  0.2129  0.1360

 Free energy of the ion-electron system (eV)
  ---------------------------------------------------
  alpha Z        PSCENC =      2563.82377583
  Ewald energy   TEWEN  =    178337.67214789
  -Hartree energ DENC   =   -241615.37295514
  -exchange      EXHF   =         0.00000000
  -V(xc)+E(xc)   XCENC  =       252.64533869
  PAW double counting   =     72075.84055101   -70045.90770165
  entropy T*S    EENTRO =        -0.33169809
  eigenvalues    EBANDS =      -363.47335239
  atomic energy  EATOM  =     58329.24398462
  Solvation  Ediel_sol  =         0.00000000
  ---------------------------------------------------
  free energy    TOTEN  =      -465.85990922 eV

  energy without entropy =     -465.52821113  energy(sigma->0) =     -465.74934319


--------------------------------------------------------------------------------------------------------




--------------------------------------- Iteration      1(  18)  ---------------------------------------


    POTLOK:  cpu time    0.2021: real time    0.2026
    SETDIJ:  cpu time    0.0161: real time    0.0161
    EDDIAG:  cpu time    5.3377: real time    5.3572
  RMM-DIIS:  cpu time   19.9694: real time   20.0387
    ORTHCH:  cpu time    0.5038: real time    0.5053
       DOS:  cpu time    0.0012: real time    0.0012
    CHARGE:  cpu time    2.5206: real time    2.5296
    MIXING:  cpu time    0.0117: real time    0.0117
    --------------------------------------------
      LOOP:  cpu time   28.5626: real time   28.6624

 eigenvalue-minimisations  :  3976
 total energy-change (2. order) : 0.1782016E-01  (-0.2456917E-02)
 number of electron     800.0000020 magnetization 
 augmentation part      248.0258750 magnetization 

 Broyden mixing:
  rms(total) = 0.20114E+00    rms(broyden)= 0.20114E+00
  rms(prec ) = 0.23485E+00
  weight for this iteration     100.00

 eigenvalues of (default mixing * dielectric matrix)
  average eigenvalue GAMMA=   0.6478
  1.7142  1.7142  1.7077  0.6667  0.6667  0.3703  0.3703  0.2693  0.2693  0.2551
  0.0928  0.1893  0.1354

 Free energy of the ion-electron system (eV)
  ---------------------------------------------------
  alpha Z        PSCENC =      2563.82377583
  Ewald energy   TEWEN  =    178337.67214789
  -Hartree energ DENC   =   -241615.85845698
  -exchange      EXHF   =         0.00000000
  -V(xc)+E(xc)   XCENC  =       252.70285430
  PAW double counting   =     72122.07466880   -70092.20276308
  entropy T*S    EENTRO =        -0.31463003
  eigenvalues    EBANDS =      -362.98367043
  atomic energy  EATOM  =     58329.24398462
  Solvation  Ediel_sol  =         0.00000000
  ---------------------------------------------------
  free energy    TOTEN  =      -465.84208906 eV

  energy without entropy =     -465.52745903  energy(sigma->0) =     -465.73721239


--------------------------------------------------------------------------------------------------------




--------------------------------------- Iteration      1(  19)  ---------------------------------------


    POTLOK:  cpu time    0.2180: real time    0.2186
    SETDIJ:  cpu time    0.0245: real time    0.0245
    EDDIAG:  cpu time    5.4871: real time    5.5063
  RMM-DIIS:  cpu time   19.1321: real time   19.1878
    ORTHCH:  cpu time    0.5024: real time    0.5036
       DOS:  cpu time    0.0012: real time    0.0012
    CHARGE:  cpu time    2.5187: real time    2.5247
    MIXING:  cpu time    0.0104: real time    0.0104
    --------------------------------------------
      LOOP:  cpu time   27.8945: real time   27.9771

 eigenvalue-minimisations  :  3860
 total energy-change (2. order) : 0.1250451E-01  (-0.1385140E-02)
 number of electron     800.0000020 magnetization 
 augmentation part      247.9841729 magnetization 

 Broyden mixing:
  rms(total) = 0.17632E+00    rms(broyden)= 0.17632E+00
  rms(prec ) = 0.20278E+00
  weight for this iteration     100.00

 eigenvalues of (default mixing * dielectric matrix)
  average eigenvalue GAMMA=   0.6591
  1.9827  1.6882  1.6882  0.7614  0.7614  0.4558  0.4558  0.2938  0.2938  0.2520
  0.0928  0.2037  0.1354  0.1629

 Free energy of the ion-electron system (eV)
  ---------------------------------------------------
  alpha Z        PSCENC =      2563.82377583
  Ewald energy   TEWEN  =    178337.67214789
  -Hartree energ DENC   =   -241621.63304505
  -exchange      EXHF   =         0.00000000
  -V(xc)+E(xc)   XCENC  =       252.73288293
  PAW double counting   =     72171.80232476   -70142.09626898
  entropy T*S    EENTRO =        -0.31982576
  eigenvalues    EBANDS =      -357.05556081
  atomic energy  EATOM  =     58329.24398462
  Solvation  Ediel_sol  =         0.00000000
  ---------------------------------------------------
  free energy    TOTEN  =      -465.82958456 eV

  energy without entropy =     -465.50975880  energy(sigma->0) =     -465.72297597


--------------------------------------------------------------------------------------------------------




--------------------------------------- Iteration      1(  20)  ---------------------------------------


    POTLOK:  cpu time    0.2018: real time    0.2023
    SETDIJ:  cpu time    0.0164: real time    0.0165
    EDDIAG:  cpu time    5.3621: real time    5.3748
  RMM-DIIS:  cpu time   19.0346: real time   19.0797
    ORTHCH:  cpu time    0.5026: real time    0.5038
       DOS:  cpu time    0.0012: real time    0.0012
    CHARGE:  cpu time    2.5125: real time    2.5185
    MIXING:  cpu time    0.0109: real time    0.0110
    --------------------------------------------
      LOOP:  cpu time   27.6422: real time   27.7077

 eigenvalue-minimisations  :  3868
 total energy-change (2. order) :-0.1079983E-01  (-0.1799288E-02)
 number of electron     800.0000020 magnetization 
 augmentation part      247.9367952 magnetization 

 Broyden mixing:
  rms(total) = 0.24484E+00    rms(broyden)= 0.24484E+00
  rms(prec ) = 0.33020E+00
  weight for this iteration     100.00

 eigenvalues of (default mixing * dielectric matrix)
  average eigenvalue GAMMA=   0.6618
  2.0567  1.7189  1.7189  0.9093  0.9093  0.4814  0.4814  0.2898  0.2898  0.2530
  0.2530  0.0928  0.1983  0.1342  0.1406

 Free energy of the ion-electron system (eV)
  ---------------------------------------------------
  alpha Z        PSCENC =      2563.82377583
  Ewald energy   TEWEN  =    178337.67214789
  -Hartree energ DENC   =   -241628.42392292
  -exchange      EXHF   =         0.00000000
  -V(xc)+E(xc)   XCENC  =       252.74528675
  PAW double counting   =     72211.83770711   -70182.29301201
  entropy T*S    EENTRO =        -0.32755208
  eigenvalues    EBANDS =      -350.11879958
  atomic energy  EATOM  =     58329.24398462
  Solvation  Ediel_sol  =         0.00000000
  ---------------------------------------------------
  free energy    TOTEN  =      -465.84038438 eV

  energy without entropy =     -465.51283230  energy(sigma->0) =     -465.73120036


--------------------------------------------------------------------------------------------------------




--------------------------------------- Iteration      1(  21)  ---------------------------------------


    POTLOK:  cpu time    0.2146: real time    0.2151
    SETDIJ:  cpu time    0.0171: real time    0.0172
    EDDIAG:  cpu time    5.4352: real time    5.4521
  RMM-DIIS:  cpu time   19.2168: real time   19.2842
    ORTHCH:  cpu time    0.5082: real time    0.5097
       DOS:  cpu time    0.0012: real time    0.0012
    CHARGE:  cpu time    2.5042: real time    2.5131
    MIXING:  cpu time    0.0110: real time    0.0110
    --------------------------------------------
      LOOP:  cpu time   27.9082: real time   28.0035

 eigenvalue-minimisations  :  3866
 total energy-change (2. order) : 0.1224038E-01  (-0.6724508E-03)
 number of electron     800.0000020 magnetization 
 augmentation part      247.9416008 magnetization 

 Broyden mixing:
  rms(total) = 0.20468E+00    rms(broyden)= 0.20468E+00
  rms(prec ) = 0.28449E+00
  weight for this iteration     100.00

 eigenvalues of (default mixing * dielectric matrix)
  average eigenvalue GAMMA=   0.6518
  2.0338  1.7358  1.7358  1.0015  1.0015  0.4815  0.4815  0.3104  0.3104  0.2641
  0.2641  0.2477  0.0928  0.1953  0.1347  0.1376

 Free energy of the ion-electron system (eV)
  ---------------------------------------------------
  alpha Z        PSCENC =      2563.82377583
  Ewald energy   TEWEN  =    178337.67214789
  -Hartree energ DENC   =   -241629.85557619
  -exchange      EXHF   =         0.00000000
  -V(xc)+E(xc)   XCENC  =       252.75281468
  PAW double counting   =     72227.38810584   -70197.88882817
  entropy T*S    EENTRO =        -0.32725943
  eigenvalues    EBANDS =      -348.63730909
  atomic energy  EATOM  =     58329.24398462
  Solvation  Ediel_sol  =         0.00000000
  ---------------------------------------------------
  free energy    TOTEN  =      -465.82814400 eV

  energy without entropy =     -465.50088458  energy(sigma->0) =     -465.71905753


--------------------------------------------------------------------------------------------------------




--------------------------------------- Iteration      1(  22)  ---------------------------------------


    POTLOK:  cpu time    0.2050: real time    0.2055
    SETDIJ:  cpu time    0.0161: real time    0.0163
    EDDIAG:  cpu time    5.3349: real time    5.3531
  RMM-DIIS:  cpu time   19.2840: real time   19.3316
    ORTHCH:  cpu time    0.5033: real time    0.5045
       DOS:  cpu time    0.0012: real time    0.0012
    CHARGE:  cpu time    2.5230: real time    2.5289
    MIXING:  cpu time    0.0102: real time    0.0102
    --------------------------------------------
      LOOP:  cpu time   27.8777: real time   27.9514

 eigenvalue-minimisations  :  3877
 total energy-change (2. order) : 0.1924948E-01  (-0.3268708E-03)
 number of electron     800.0000020 magnetization 
 augmentation part      247.9660280 magnetization 

 Broyden mixing:
  rms(total) = 0.77643E-01    rms(broyden)= 0.77642E-01
  rms(prec ) = 0.97113E-01
  weight for this iteration     100.00

 eigenvalues of (default mixing * dielectric matrix)
  average eigenvalue GAMMA=   0.6764
  2.0461  1.7285  1.7285  1.2027  1.2027  0.5724  0.5724  0.4189  0.3959  0.2884
  0.2884  0.0928  0.2560  0.2366  0.1961  0.1375  0.1344

 Free energy of the ion-electron system (eV)
  ---------------------------------------------------
  alpha Z        PSCENC =      2563.82377583
  Ewald energy   TEWEN  =    178337.67214789
  -Hartree energ DENC   =   -241628.45010179
  -exchange      EXHF   =         0.00000000
  -V(xc)+E(xc)   XCENC  =       252.76842145
  PAW double counting   =     72235.94405485   -70206.44047437
  entropy T*S    EENTRO =        -0.31981042
  eigenvalues    EBANDS =      -350.05089258
  atomic energy  EATOM  =     58329.24398462
  Solvation  Ediel_sol  =         0.00000000
  ---------------------------------------------------
  free energy    TOTEN  =      -465.80889452 eV

  energy without entropy =     -465.48908410  energy(sigma->0) =     -465.70229105


--------------------------------------------------------------------------------------------------------




--------------------------------------- Iteration      1(  23)  ---------------------------------------


    POTLOK:  cpu time    0.2052: real time    0.2056
[...]

  length of vectors
    11.159999999 11.159999885 22.000000000     0.103467791  0.103467792  0.045454545


 FORCES acting on ions
    electron-ion (+dipol)            ewald-force                    non-local-force                 convergence-correction
 -----------------------------------------------------------------------------------------------
   0.128E+00 0.224E+00 -.133E+04   -.142E+00 -.210E+00 0.132E+04   0.185E-02 -.833E-02 0.681E+00   0.226E-02 -.785E-02 0.111E+00
   -.128E+00 -.911E-01 -.133E+04   0.136E+00 0.850E-01 0.132E+04   0.149E-01 0.248E-02 0.686E+00   -.173E-01 0.655E-02 0.117E+00
   0.277E-01 -.744E-01 -.133E+04   -.218E-01 0.807E-01 0.133E+04   0.157E-01 -.114E-01 0.675E+00   -.190E-01 0.101E-02 0.111E+00
   0.557E-01 -.439E+00 0.261E+04   -.169E-01 0.385E+00 -.261E+04   -.373E-01 0.590E-01 -.129E+01   -.891E-02 0.207E-03 -.115E+00
   -.592E+00 0.149E+01 0.261E+04   0.604E+00 -.146E+01 -.261E+04   0.174E-02 -.476E-01 -.129E+01   -.143E-01 0.592E-02 -.123E+00
   -.401E-02 0.223E+00 0.261E+04   0.578E-01 -.251E+00 -.261E+04   -.316E-01 0.234E-01 -.131E+01   -.161E-01 0.616E-02 -.120E+00
   0.156E+00 0.772E-02 0.133E+04   -.158E+00 -.172E-02 -.133E+04   -.787E-02 0.476E-02 -.679E+00   0.838E-02 -.118E-01 -.205E+00
   0.435E+00 -.214E+00 0.133E+04   -.441E+00 0.206E+00 -.133E+04   -.138E-01 -.203E-03 -.680E+00   0.151E-01 0.248E-02 -.213E+00
   0.151E+00 0.102E+00 -.133E+04   -.135E+00 -.101E+00 0.133E+04   -.530E-02 -.968E-02 0.681E+00   -.108E-01 0.882E-02 0.113E+00
   -.874E+00 -.257E+00 0.261E+04   0.862E+00 0.215E+00 -.261E+04   0.185E-01 0.372E-01 -.130E+01   -.104E-01 0.671E-02 -.119E+00
   -.249E+00 -.163E+00 0.133E+04   0.267E+00 0.157E+00 -.133E+04   -.147E-02 0.115E-02 -.664E+00   -.571E-02 0.636E-02 -.199E+00
   -.473E+00 0.448E-01 -.328E+00   0.481E+00 -.430E-01 0.371E+00   0.760E-02 -.334E-02 -.633E-02   -.734E-02 0.297E-02 -.437E-01
   -.790E-01 -.265E-01 -.133E+04   0.830E-01 0.202E-01 0.133E+04   -.155E-02 -.828E-03 0.684E+00   -.559E-02 0.958E-02 0.122E+00
   0.395E-01 0.198E+00 -.133E+04   -.655E-01 -.183E+00 0.133E+04   0.712E-02 -.175E-01 0.688E+00   0.194E-01 -.698E-02 0.120E+00
   0.840E-01 0.172E+00 -.133E+04   -.688E-01 -.167E+00 0.133E+04   -.864E-02 -.597E-02 0.671E+00   -.143E-01 0.198E-02 0.116E+00
   0.964E+00 -.823E+00 0.261E+04   -.919E+00 0.794E+00 -.261E+04   -.588E-01 0.344E-01 -.130E+01   0.548E-02 -.277E-02 -.126E+00
   -.977E-02 -.547E-01 0.261E+04   -.185E-01 0.432E-01 -.261E+04   0.131E-01 0.173E-01 -.130E+01   0.162E-01 -.263E-02 -.127E+00
   0.333E-01 0.250E+00 0.261E+04   -.325E-01 -.228E+00 -.261E+04   -.760E-03 -.144E-01 -.131E+01   -.126E-03 -.489E-02 -.124E+00
   -.475E+00 -.588E-01 0.133E+04   0.460E+00 0.586E-01 -.133E+04   0.136E-01 0.489E-02 -.674E+00   0.148E-01 -.692E-02 -.209E+00
   -.999E+00 -.384E+00 0.107E+01   0.976E+00 0.396E+00 -.103E+01   0.310E-01 0.300E-02 0.706E-02   0.189E-01 -.812E-02 -.492E-01
   -.599E-01 -.216E+00 0.133E+04   0.734E-01 0.208E+00 -.133E+04   0.334E-02 0.126E-01 -.669E+00   -.784E-02 0.334E-02 -.198E+00
   -.702E-01 0.140E+00 0.133E+04   0.617E-01 -.129E+00 -.133E+04   -.323E-02 -.236E-02 -.683E+00   0.160E-01 -.127E-01 -.208E+00
   0.221E+00 0.215E+00 -.133E+04   -.224E+00 -.218E+00 0.133E+04   -.888E-02 -.797E-02 0.677E+00   -.200E-02 0.938E-02 0.126E+00
   0.594E-01 -.338E+00 0.261E+04   -.556E-01 0.307E+00 -.261E+04   -.139E-01 0.314E-01 -.129E+01   0.855E-02 0.176E-02 -.131E+00
   -.286E+00 0.193E+00 0.133E+04   0.258E+00 -.187E+00 -.133E+04   0.111E-01 -.153E-02 -.669E+00   0.230E-01 -.446E-02 -.211E+00
   0.506E+00 0.417E+00 -.610E-01   -.501E+00 -.429E+00 0.103E+00   -.262E-02 -.249E-01 -.595E-02   -.831E-02 0.193E-01 -.426E-01
   0.806E+00 0.238E-01 -.261E+04   -.782E+00 -.159E-01 0.261E+04   -.225E-01 -.941E-02 0.130E+01   -.153E-02 -.184E-02 0.106E+00
   0.832E+00 0.556E+00 -.261E+04   -.796E+00 -.516E+00 0.261E+04   -.270E-01 -.415E-01 0.129E+01   -.139E-01 0.230E-02 0.108E+00
   -.668E+00 0.127E+00 -.261E+04   0.611E+00 -.139E+00 0.261E+04   0.681E-01 -.727E-02 0.130E+01   -.539E-02 0.104E-01 0.112E+00
   0.802E+00 -.101E+01 -.261E+04   -.789E+00 0.982E+00 0.261E+04   -.246E-01 0.422E-01 0.129E+01   0.492E-02 -.166E-02 0.104E+00
   -.119E+01 0.736E+00 -.261E+04   0.112E+01 -.708E+00 0.261E+04   0.737E-01 -.385E-01 0.130E+01   0.209E-02 0.371E-02 0.115E+00
   0.485E+00 0.631E+00 -.261E+04   -.497E+00 -.600E+00 0.261E+04   -.211E-02 -.336E-01 0.130E+01   0.713E-02 0.292E-02 0.106E+00
   0.369E+00 0.691E+00 -.261E+04   -.354E+00 -.669E+00 0.261E+04   -.386E-02 -.325E-01 0.129E+01   -.784E-02 0.846E-02 0.109E+00
   0.268E+00 0.466E+00 -.261E+04   -.257E+00 -.440E+00 0.261E+04   -.152E-01 -.174E-01 0.131E+01   0.481E-02 -.749E-02 0.109E+00
   -.578E+00 -.648E+00 -.261E+04   0.508E+00 0.660E+00 0.261E+04   0.682E-01 0.265E-03 0.129E+01   -.237E-02 -.412E-02 0.104E+00
   -.462E+00 0.674E-01 -.261E+04   0.447E+00 -.958E-01 0.261E+04   0.193E-01 0.257E-01 0.129E+01   -.576E-02 -.747E-03 0.113E+00
   0.446E+00 0.153E+00 -.261E+04   -.407E+00 -.134E+00 0.261E+04   -.401E-01 -.221E-01 0.129E+01   0.299E-02 0.293E-02 0.118E+00
   -.503E+00 -.514E+00 -.261E+04   0.452E+00 0.505E+00 0.261E+04   0.314E-01 0.248E-01 0.129E+01   0.144E-01 -.531E-02 0.111E+00
   -.672E-01 -.133E+01 -.261E+04   0.678E-01 0.130E+01 0.261E+04   0.185E-01 0.292E-01 0.129E+01   -.137E-01 0.233E-02 0.111E+00
   -.478E+00 0.616E+00 -.261E+04   0.442E+00 -.583E+00 0.261E+04   0.304E-01 -.213E-01 0.129E+01   0.651E-02 -.626E-02 0.110E+00
   -.230E+00 -.956E-01 -.133E+04   0.212E+00 0.115E+00 0.133E+04   0.130E-01 -.271E-02 0.696E+00   0.999E-02 -.107E-01 0.116E+00
   0.125E+01 -.134E+01 0.261E+04   -.121E+01 0.129E+01 -.261E+04   -.565E-01 0.773E-01 -.130E+01   0.913E-02 -.898E-02 -.122E+00
   0.225E+00 0.502E-01 -.133E+04   -.233E+00 -.430E-01 0.132E+04   -.958E-02 -.290E-02 0.681E+00   0.791E-02 -.858E-02 0.115E+00
   0.417E+00 -.573E+00 0.261E+04   -.409E+00 0.579E+00 -.261E+04   -.220E-01 0.143E-01 -.129E+01   0.751E-02 -.115E-01 -.120E+00
   0.158E-01 0.302E+00 0.133E+04   -.194E-01 -.308E+00 -.132E+04   -.380E-03 -.107E-01 -.684E+00   0.948E-04 0.396E-02 -.197E+00
   -.212E+00 0.228E-01 0.132E+04   0.234E+00 -.323E-01 -.132E+04   -.218E-03 0.281E-02 -.674E+00   -.162E-01 0.608E-02 -.195E+00
   0.216E-01 0.582E-01 -.133E+04   -.213E-01 -.665E-01 0.133E+04   0.505E-02 -.102E-01 0.682E+00   -.831E-02 0.156E-01 0.119E+00
   -.589E+00 -.370E+00 0.261E+04   0.624E+00 0.336E+00 -.261E+04   -.237E-01 0.266E-01 -.130E+01   -.726E-02 0.900E-02 -.122E+00
   -.245E+00 -.537E-01 0.133E+04   0.268E+00 0.436E-01 -.132E+04   -.162E-03 -.450E-02 -.673E+00   -.147E-01 0.135E-01 -.206E+00
   -.128E+01 0.408E+00 -.261E+04   0.125E+01 -.378E+00 0.261E+04   0.443E-01 -.281E-01 0.129E+01   -.534E-02 -.238E-02 0.115E+00
   -.405E+00 0.436E-01 -.309E+00   0.390E+00 -.250E-01 0.360E+00   0.156E-01 -.156E-02 -.116E-01   0.770E-02 -.139E-01 -.477E-01
   -.138E+00 -.257E+00 -.261E+04   0.113E+00 0.259E+00 0.261E+04   0.146E-01 0.635E-02 0.130E+01   0.131E-01 -.335E-02 0.110E+00
   0.226E-01 -.322E-01 0.132E+04   -.226E-01 0.409E-01 -.132E+04   0.450E-03 -.848E-02 -.683E+00   0.708E-02 -.371E-02 -.205E+00
   0.172E+00 -.703E-02 0.133E+04   -.154E+00 -.149E-01 -.132E+04   -.144E-01 0.563E-02 -.674E+00   -.980E-02 0.145E-01 -.200E+00
   0.624E+00 0.134E+00 0.248E+00   -.612E+00 -.128E+00 -.199E+00   -.109E-01 -.118E-01 -.104E-01   -.199E-01 -.640E-03 -.457E-01
   -.147E+00 -.174E+00 -.133E+04   0.121E+00 0.186E+00 0.133E+04   0.169E-01 -.193E-02 0.695E+00   0.126E-01 -.570E-02 0.112E+00
   -.364E+00 -.128E+00 -.133E+04   0.371E+00 0.133E+00 0.133E+04   0.136E-01 -.281E-02 0.690E+00   -.129E-01 -.885E-03 0.121E+00
   -.214E+00 0.608E+00 0.261E+04   0.220E+00 -.609E+00 -.261E+04   -.595E-02 -.219E-02 -.129E+01   -.943E-03 0.539E-02 -.117E+00
   0.401E+00 -.631E-01 0.261E+04   -.382E+00 0.421E-01 -.261E+04   -.200E-01 0.257E-01 -.130E+01   0.758E-03 -.257E-02 -.129E+00
   -.432E-01 0.865E-02 0.133E+04   0.269E-01 -.649E-02 -.133E+04   0.204E-01 0.596E-03 -.672E+00   0.803E-02 -.499E-02 -.213E+00
   0.323E+00 -.183E-02 0.133E+04   -.317E+00 0.948E-02 -.132E+04   -.102E-01 -.459E-02 -.682E+00   0.659E-04 -.113E-01 -.205E+00
   -.342E+00 -.442E+00 -.131E+01   0.358E+00 0.438E+00 0.136E+01   0.110E-01 -.328E-02 -.215E-01   -.135E-01 0.139E-01 -.435E-01
   0.103E+00 -.104E+00 -.133E+04   -.125E+00 0.108E+00 0.132E+04   0.113E-04 0.324E-02 0.680E+00   0.151E-01 -.406E-02 0.113E+00
   0.107E+00 -.155E+00 0.261E+04   -.747E-01 0.156E+00 -.261E+04   -.372E-01 0.591E-02 -.129E+01   0.134E-02 0.280E-02 -.117E+00
   -.327E+00 -.170E+00 0.857E+00   0.344E+00 0.166E+00 -.817E+00   0.131E-02 -.127E-02 -.247E-03   -.143E-01 0.110E-01 -.456E-01
   0.533E+00 -.410E-01 0.159E+00   -.561E+00 0.499E-01 -.119E+00   -.809E-02 -.701E-02 -.143E-02   0.202E-01 -.307E-02 -.457E-01
   0.151E+00 0.724E+00 0.601E+00   -.178E+00 -.715E+00 -.555E+00   -.154E-02 -.135E-01 -.159E-02   0.241E-01 -.101E-01 -.474E-01
   -.513E+00 -.511E+00 -.479E+00   0.528E+00 0.514E+00 0.525E+00   0.229E-01 -.819E-03 -.108E-01   -.191E-01 0.520E-02 -.429E-01
   -.411E+00 -.309E+00 0.121E+00   0.395E+00 0.313E+00 -.694E-01   0.806E-02 0.423E-02 -.450E-02   0.151E-01 -.122E-02 -.488E-01
   0.894E-03 0.308E+00 0.133E+04   0.244E-01 -.311E+00 -.132E+04   0.839E-04 -.403E-02 -.682E+00   -.233E-01 0.285E-02 -.201E+00
   0.249E+00 0.516E+00 0.132E+01   -.260E+00 -.509E+00 -.129E+01   -.121E-02 -.890E-02 0.104E-01   0.751E-02 -.907E-02 -.525E-01
   -.563E-01 0.618E-01 -.132E+04   0.493E-01 -.488E-01 0.132E+04   0.649E-03 -.110E-01 0.696E+00   0.603E-02 -.313E-02 0.112E+00
   -.234E+00 -.343E-01 -.133E+04   0.209E+00 0.413E-01 0.133E+04   0.134E-01 0.377E-02 0.688E+00   0.171E-01 -.507E-02 0.120E+00
   0.969E-01 -.293E+00 0.261E+04   -.838E-01 0.273E+00 -.261E+04   -.199E-01 0.239E-01 -.129E+01   -.572E-02 -.138E-03 -.116E+00
   0.108E+01 0.138E+00 0.261E+04   -.104E+01 -.134E+00 -.261E+04   -.598E-01 0.323E-03 -.130E+01   0.146E-01 -.428E-02 -.123E+00
   0.580E+00 0.660E+00 -.103E+01   -.562E+00 -.658E+00 0.108E+01   -.249E-02 -.209E-01 -.128E-01   -.244E-01 -.691E-03 -.441E-01
   0.438E+00 0.298E-01 -.979E-01   -.439E+00 -.414E-01 0.144E+00   -.131E-01 -.298E-02 -.178E-01   -.343E-02 0.127E-01 -.433E-01
   0.209E+00 0.205E+00 0.133E+04   -.193E+00 -.208E+00 -.133E+04   -.308E-02 -.967E-02 -.681E+00   -.153E-01 0.299E-02 -.200E+00
   -.611E+00 -.280E+00 0.132E+01   0.605E+00 0.291E+00 -.128E+01   0.857E-02 0.191E-02 0.127E-01   0.132E-01 -.949E-02 -.505E-01
   0.728E+00 0.526E-01 -.490E+00   -.733E+00 -.404E-01 0.545E+00   -.210E-01 -.509E-02 -.144E-01   0.369E-02 -.878E-02 -.502E-01
 -----------------------------------------------------------------------------------------------
   0.629E-02 -.529E-02 0.232E+01   -.365E-12 0.369E-12 -.782E-11   -.133E-01 -.413E-02 -.207E-02   -.172E-03 0.236E-03 -.234E+01
 
 
 POSITION                                       TOTAL-FORCE (eV/Angst)
 -----------------------------------------------------------------------------------
     13.60528      8.40227      7.21000        -0.009671     -0.002077      0.003608
      5.23539      8.40207      7.21049         0.006687      0.002859      0.011659
      3.83984      5.98684      7.21318         0.002249     -0.003997     -0.000273
     13.62812      8.38318      0.47920        -0.007494      0.004382      0.036759
      5.25596      8.39025      0.48264        -0.001604     -0.003279      0.029757
      3.86159      5.96923      0.48496         0.006243      0.001622      0.020261
      8.03915      1.94977      2.76124        -0.001227     -0.001131     -0.004732
      9.43429      9.19846      2.76167        -0.004327     -0.005532     -0.003033
      2.44971      3.57104      7.21276         0.000059      0.000065      0.005249
      2.46446      3.55281      0.48563        -0.004665      0.001526      0.025503
     10.82974      1.95139      2.75986         0.010484      0.001686      0.010513
     13.61094      5.17801      4.98796         0.008358      0.001413     -0.006323
      3.84343      1.15342      7.21241        -0.002937      0.002637      0.010413
      9.42060      5.98639      7.21150         0.000585     -0.009868      0.009930
      5.23901      3.57020      7.21481        -0.007762      0.000667     -0.003338
      3.86589      1.13666      0.48380        -0.008192      0.002284      0.029197
      9.43734      5.96985      0.48173         0.000277      0.003428      0.028996
      5.25527      3.55579      0.48514        -0.000528      0.003572      0.021199
     12.22217      9.19843      2.75978         0.013616     -0.002033      0.005244
     12.21302      7.59243      4.98516         0.027319      0.006364     -0.004377
     13.61659      6.78244      2.76146         0.009471      0.007924      0.009567
      9.43258      4.36731      2.76164         0.004812     -0.004974     -0.000657
      8.02616      8.40318      7.21236        -0.013684     -0.001058      0.000560
      8.04638      8.38561      0.48166        -0.002356      0.001931      0.033446
     10.82462      6.78316      2.75954         0.006791     -0.000194      0.001070
      2.45375      0.34615      4.98755        -0.005855     -0.016365     -0.005888
     14.99711      9.21057      9.48903         0.001280     -0.003306     -0.025896
      3.84058      4.38108      9.49537        -0.003829      0.001909     -0.034731
      6.62155      9.21140      9.49105         0.004687     -0.008236     -0.031453
     12.20976      4.37448      9.49155        -0.006454      0.010236     -0.032350
      9.41154      9.21222      9.49357         0.007198     -0.006393     -0.034046
     10.81262      1.96351      9.49100        -0.007039      0.000942     -0.025107
      2.44389      1.96398      9.49212         0.004410     -0.000910     -0.031229
     12.20693      9.21086      9.49040         0.001749      0.000848     -0.026679
     13.59703      6.79387      9.49223        -0.005194      0.008193     -0.035599
      5.23223      1.95953      9.49384        -0.001412     -0.004040     -0.038015
      8.02434      6.79577      9.49432         0.001985     -0.000061     -0.041436
      9.41623      4.37581      9.49227        -0.005694      0.009541     -0.040001
      5.23106      6.79300      9.49291         0.005654      0.003617     -0.031734
      8.02141      1.96238      9.48961         0.001363      0.004845     -0.028431
      8.02724      3.57057      7.21087         0.004380      0.006419      0.017255
      8.04869      3.54957      0.48189        -0.002202      0.008767      0.031189
      6.63319      1.15284      7.21069        -0.009014     -0.004405      0.002568
      6.65291      1.13757      0.48098        -0.007306      0.008860      0.035239
     12.22253      4.36773      2.76294        -0.003811     -0.012527     -0.002572
      3.85283      4.36688      2.76468         0.005851     -0.000570      0.007993
      1.05272      1.15423      7.21138        -0.003198     -0.003014      0.003758
      1.07392      1.13749      0.48183         0.003793      0.001977      0.027567
      6.64378      9.20014      2.76214         0.008492     -0.000758      0.006414
      6.62618      4.37937      9.49585         0.004984     -0.000066     -0.038598
      8.03051      5.17788      4.98790         0.008058      0.003128     -0.007863
     10.81119      6.79271      9.49215         0.003644      0.004835     -0.032204
      5.24989      1.95160      2.76386         0.007527     -0.002845      0.001178
      2.46066      1.95048      2.76316        -0.005887     -0.001705      0.001242
     15.00603      7.59388      4.98712        -0.018420     -0.006354     -0.006418
     12.20961      5.98530      7.21039         0.004116      0.003199      0.016532
      6.63102      5.98678      7.21336         0.007478      0.001775      0.015901
     12.22952      5.97081      0.48135        -0.001767      0.002253      0.033045
      6.64996      5.96918      0.48330         0.000035      0.002298      0.028467
      8.03515      6.78375      2.76245         0.012181     -0.001825      0.004977
      6.64402      4.36666      2.76342        -0.003255     -0.008440     -0.003601
      3.84878      2.76117      4.98987         0.013112      0.005744     -0.011706
     10.81733      3.56994      7.21062        -0.006899      0.002894      0.001921
     10.83737      3.55504      0.47994        -0.003237      0.009863      0.034202
     10.82254      0.34541      4.98589         0.004021      0.005920     -0.004777
      9.42579      7.59345      4.98673        -0.015379     -0.001135     -0.006325
     10.82085      5.17822      4.98618        -0.004145     -0.014958     -0.001970
      6.63510      7.59365      4.98807         0.018232      0.007300     -0.007877
      5.24189      0.34390      4.98708         0.006618      0.007920     -0.001746
      5.24677      6.78433      2.76317         0.002071     -0.003044     -0.004441
      8.03209      0.34443      4.98475        -0.004179     -0.010720     -0.003647
      9.42247      1.15420      7.20876        -0.000053     -0.000896      0.013516
     10.81510      8.40179      7.21190         0.005968      0.005931      0.013958
      9.44294      1.13685      0.47993        -0.012731      0.004102      0.034107
     10.83917      8.38666      0.47885        -0.009865      0.000598      0.028590
      5.24258      5.17872      4.98929        -0.009002     -0.018784     -0.008692
     12.21928      2.76155      4.98791        -0.016442     -0.002167     -0.014948
     15.01290      9.19969      2.76122        -0.003332     -0.010383     -0.001541
      9.42753      2.76059      4.98470         0.016234      0.003432      0.001751
      6.63950      2.76100      4.98830        -0.022025     -0.001662     -0.010041
 -----------------------------------------------------------------------------------
    total drift:                               -0.007176     -0.009189     -0.024348


--------------------------------------------------------------------------------------------------------



  FREE ENERGIE OF THE ION-ELECTRON SYSTEM (eV)
  ---------------------------------------------------
  free  energy   TOTEN  =      -513.51654270 eV

  energy  without entropy=     -513.20397926  energy(sigma->0) =     -513.41235489
 


--------------------------------------------------------------------------------------------------------


    POTLOK:  cpu time    0.2217: real time    0.2222


--------------------------------------------------------------------------------------------------------




--------------------------------------------------------------------------------------------------------


  
 reached required accuracy - stopping structural energy minimisation
     LOOP+:  cpu time  880.6653: real time  883.5396
    4ORBIT:  cpu time    0.0000: real time    0.0000

 total amount of memory used by VASP MPI-rank0   171836. kBytes
=======================================================================

   base      :      30000. kBytes
   nonlr-proj:      38197. kBytes
   fftplans  :      20284. kBytes
   grid      :      28516. kBytes
   one-center:        311. kBytes
   wavefun   :      54528. kBytes
 
  
  
 General timing and accounting informations for this job:
 ========================================================
  
                  Total CPU time used (sec):      892.559
                            User time (sec):      878.066
                          System time (sec):       14.493
                         Elapsed time (sec):      896.057
  
                   Maximum memory used (kb):      553696.
                   Average memory used (kb):           0.
  
                          Minor page faults:       406741
                          Major page faults:            0
                 Voluntary context switches:         4215
