 vasp.5.4.4.18Apr17-6-g9f103f2a35 (build Nov 30 2020 22:55:02) complex          
  
 executed on             LinuxIFC date 2023.09.07  20:03:28
 running on   40 total cores
 distrk:  each k-point on   40 cores,    1 groups
 distr:  one band on NCORES_PER_BAND=   4 cores,   10 groups


--------------------------------------------------------------------------------------------------------


 INCAR:
 POTCAR:    PAW_PBE Pt 04Feb2005                  
 POTCAR:    PAW_PBE H 15Jun2001                   
 POTCAR:    PAW_PBE Pt 04Feb2005                  
   VRHFIN =Pt: s1d9                                                             
   LEXCH  = PE                                                                  
   EATOM  =   729.1176 eV,   53.5886 Ry                                         
                                                                                
   TITEL  = PAW_PBE Pt 04Feb2005                                                
   LULTRA =        F    use ultrasoft PP ?                                      
   IUNSCR =        1    unscreen: 0-lin 1-nonlin 2-no                           
   RPACOR =    2.330    partial core radius                                     
   POMASS =  195.080; ZVAL   =   10.000    mass and valenz                      
   RCORE  =    2.600    outmost cutoff radius                                   
   RWIGS  =    2.750; RWIGS  =    1.455    wigner-seitz radius (au A)           
   ENMAX  =  230.283; ENMIN  =  172.712 eV                                      
   ICORE  =        3    local potential                                         
   LCOR   =        T    correct aug charges                                     
   LPAW   =        T    paw PP                                                  
   EAUG   =  358.966                                                            
   DEXC   =    0.000                                                            
   RMAX   =    2.658    core radius for proj-oper                               
   RAUG   =    1.300    factor for augmentation sphere                          
   RDEP   =    2.761    radius for radial grids                                 
   RDEPT  =    2.203    core radius for aug-charge                              
                                                                                
   Atomic configuration                                                         
   16 entries                                                                   
     n  l   j            E        occ.                                          
     1  0  0.50    -78401.1885   2.0000                                         
     2  0  0.50    -13770.7750   2.0000                                         
     2  1  1.50    -11931.0468   6.0000                                         
     3  0  0.50     -3234.7234   2.0000                                         
     3  1  1.50     -2699.2216   6.0000                                         
     3  2  2.50     -2119.5714  10.0000                                         
     4  0  0.50      -695.1528   2.0000                                         
     4  1  1.50      -519.6034   6.0000                                         
     4  2  2.50      -306.6786  10.0000                                         
     4  3  3.50       -70.1041  14.0000                                         
     5  0  0.50      -101.7747   2.0000                                         
     5  1  1.50       -55.9873   6.0000                                         
     5  2  2.50        -6.1423   9.0000                                         
     6  0  0.50        -5.6573   1.0000                                         
     6  1  1.50        -6.8029   0.0000                                         
     5  3  2.50        -1.3606   0.0000                                         
   Description                                                                  
     l       E           TYP  RCUT    TYP  RCUT                                 
     2     -6.1423404     23  2.500                                             
     2     -7.5029230     23  2.500                                             
     0     -5.6573207     23  2.500                                             
     0      0.7416693     23  2.500                                             
     1     -2.7211652     23  2.600                                             
     1     20.4087390     23  2.600                                             
     3     -1.3605826     23  2.500                                             
  local pseudopotential read in
  partial core-charges read in
  partial kinetic energy density read in
  atomic valenz-charges read in
  non local Contribution for L=           2  read in
    real space projection operators read in
  non local Contribution for L=           2  read in
    real space projection operators read in
  non local Contribution for L=           0  read in
    real space projection operators read in
  non local Contribution for L=           0  read in
    real space projection operators read in
  non local Contribution for L=           1  read in
    real space projection operators read in
  non local Contribution for L=           1  read in
    real space projection operators read in
    PAW grid and wavefunctions read in
 
   number of l-projection  operators is LMAX  =           6
   number of lm-projection operators is LMMAX =          18
 
 POTCAR:    PAW_PBE H 15Jun2001                   
   VRHFIN =H: ultrasoft test                                                    
   LEXCH  = PE                                                                  
   EATOM  =    12.4884 eV,    0.9179 Ry                                         
                                                                                
   TITEL  = PAW_PBE H 15Jun2001                                                 
   LULTRA =        F    use ultrasoft PP ?                                      
   IUNSCR =        0    unscreen: 0-lin 1-nonlin 2-no                           
   RPACOR =    0.000    partial core radius                                     
   POMASS =    1.000; ZVAL   =    1.000    mass and valenz                      
   RCORE  =    1.100    outmost cutoff radius                                   
   RWIGS  =    0.700; RWIGS  =    0.370    wigner-seitz radius (au A)           
   ENMAX  =  250.000; ENMIN  =  200.000 eV                                      
   RCLOC  =    0.701    cutoff for local pot                                    
   LCOR   =        T    correct aug charges                                     
   LPAW   =        T    paw PP                                                  
   EAUG   =  400.000                                                            
   RMAX   =    1.123    core radius for proj-oper                               
   RAUG   =    1.200    factor for augmentation sphere                          
   RDEP   =    1.112    radius for radial grids                                 
   RDEPT  =    0.926    core radius for aug-charge                              
                                                                                
   Atomic configuration                                                         
    2 entries                                                                   
     n  l   j            E        occ.                                          
     1  0  0.50        -6.4927   1.0000                                         
     2  1  0.50        -3.4015   0.0000                                         
   Description                                                                  
     l       E           TYP  RCUT    TYP  RCUT                                 
     0     -6.4927494     23  1.100                                             
     0      6.8029130     23  1.100                                             
     1     -4.0817478     23  1.100                                             
  local pseudopotential read in
  atomic valenz-charges read in
  non local Contribution for L=           0  read in
    real space projection operators read in
  non local Contribution for L=           0  read in
    real space projection operators read in
  non local Contribution for L=           1  read in
    real space projection operators read in
    PAW grid and wavefunctions read in
 
   number of l-projection  operators is LMAX  =           3
   number of lm-projection operators is LMMAX =           5
 
 Optimization of the real space projectors (new method)

 maximal supplied QI-value         = 14.36
 optimisation between [QCUT,QGAM] = [ 11.92, 23.98] = [ 39.79,161.09] Ry 
 Optimized for a Real-space Cutoff    1.49 Angstroem

   l    n(q)    QCUT    max X(q) W(low)/X(q) W(high)/X(q)  e(spline) 
   2     10    11.920    66.195    0.79E-04    0.18E-03    0.24E-06
   2     10    11.920    64.643    0.81E-04    0.19E-03    0.24E-06
   0     11    11.920    95.520    0.28E-04    0.54E-04    0.18E-06
   0     11    11.920    63.403    0.27E-04    0.52E-04    0.17E-06
   1     10    11.920    19.961    0.18E-04    0.11E-03    0.23E-06
   1     10    11.920    13.289    0.25E-04    0.87E-04    0.19E-06
 Optimization of the real space projectors (new method)

 maximal supplied QI-value         = 34.20
 optimisation between [QCUT,QGAM] = [ 11.97, 23.94] = [ 40.13,160.53] Ry 
 Optimized for a Real-space Cutoff    1.18 Angstroem

   l    n(q)    QCUT    max X(q) W(low)/X(q) W(high)/X(q)  e(spline) 
   0      8    11.971    19.460    0.15E-03    0.31E-03    0.25E-06
   0      8    11.971    12.209    0.13E-03    0.29E-03    0.25E-06
   1      8    11.971     4.655    0.22E-03    0.24E-03    0.21E-06
  PAW_PBE Pt 04Feb2005                  :
 energy of atom  1       EATOM= -729.1176
 kinetic energy error for atom=    0.0021 (will be added to EATOM!!)
  PAW_PBE H 15Jun2001                   :
 energy of atom  2       EATOM=  -12.4884
 kinetic energy error for atom=    0.0008 (will be added to EATOM!!)
 
 
 POSCAR: Pt111                                   
  positions in cartesian coordinates
  No initial velocities read in
 exchange correlation table for  LEXCH =        8
   RHO(1)=    0.500       N(1)  =     2000
   RHO(2)=  100.500       N(2)  =     4000
 


--------------------------------------------------------------------------------------------------------


 ion  position               nearest neighbor table
   1  0.785  0.869  0.331-   3 2.71   2 2.71  73 2.72  72 2.72  56 2.72  43 2.72  71 2.78  20 2.78
                            55 2.78  27 2.82  35 2.82  34 2.83
   2  0.035  0.869  0.331-  57 2.71   3 2.71  23 2.71   1 2.71  47 2.72  72 2.72  55 2.78  65 2.78
                            68 2.78  29 2.82  27 2.82  39 2.83
   3  0.034  0.619  0.331-   2 2.71   1 2.71  56 2.72   9 2.72  15 2.72  57 2.72  12 2.78  55 2.78
                            76 2.79  39 2.82  35 2.83  28 2.83
   4  0.787  0.867  0.015-  58 2.71   5 2.71  75 2.71   6 2.71  74 2.72  44 2.72  21 2.82  78 2.82
                            19 2.83
   5  0.037  0.868  0.015-  48 2.71  74 2.71   4 2.71  24 2.72   6 2.72  59 2.72  70 2.82  49 2.82
                            78 2.83
   6  0.037  0.618  0.015-  18 2.71  59 2.71   4 2.71  58 2.72   5 2.72  10 2.72  46 2.82  70 2.82
                            21 2.83
   7  0.619  0.202  0.122-  78 2.71  19 2.71  11 2.71  61 2.71  53 2.72  22 2.72  71 2.78  79 2.78
                            80 2.79  42 2.82  44 2.82  74 2.83
   8  0.369  0.952  0.122-  54 2.71  49 2.71  60 2.72  25 2.72  19 2.72  53 2.72  66 2.78  69 2.78
                            26 2.79  16 2.82  24 2.82  75 2.83
   9  0.034  0.369  0.331-  47 2.71  13 2.71  15 2.71   3 2.72  56 2.72  63 2.72  12 2.78  77 2.78
                            62 2.78  33 2.82  30 2.82  28 2.83
  10  0.037  0.367  0.016-  64 2.71  48 2.71  16 2.72  18 2.72  58 2.72   6 2.72  54 2.82  46 2.83
                            45 2.83
  11  0.869  0.202  0.122-  22 2.71   7 2.71  54 2.72  78 2.72  49 2.72  45 2.72  65 2.78  77 2.78
                            79 2.79  64 2.82  74 2.83  48 2.83
  12  0.952  0.536  0.227-  62 2.71  76 2.71  55 2.71  20 2.72  67 2.72  77 2.72  45 2.78  21 2.78
                             9 2.78   3 2.78  46 2.78  56 2.78
  13  0.284  0.119  0.331-  15 2.71   9 2.71  47 2.71  23 2.72  43 2.72  73 2.72  62 2.78  26 2.78
                            69 2.79  36 2.82  31 2.82  33 2.83
  14  0.534  0.620  0.331-  56 2.71  23 2.71  63 2.71  73 2.71  57 2.72  41 2.72  66 2.78  51 2.78
                            67 2.79  52 2.82  38 2.82  37 2.83
  15  0.284  0.369  0.331-  41 2.71  13 2.71  43 2.71   9 2.71   3 2.72  57 2.72  62 2.78  76 2.78
                            80 2.79  36 2.82  50 2.82  28 2.83
  16  0.287  0.118  0.016-  44 2.71  75 2.71  10 2.72  18 2.72  48 2.72  24 2.72   8 2.82  53 2.82
                            54 2.83
  17  0.537  0.618  0.015-  24 2.71  59 2.71  64 2.72  42 2.72  58 2.72  75 2.72  22 2.82  25 2.82
                            60 2.83
  18  0.287  0.368  0.016-   6 2.71  59 2.71  44 2.72  10 2.72  16 2.72  42 2.72  53 2.82  61 2.82
                            46 2.83
  19  0.619  0.952  0.122-  78 2.71  25 2.71  21 2.71   7 2.71   8 2.72  53 2.72  20 2.78  71 2.78
                            69 2.79  44 2.82  75 2.82   4 2.83
  20  0.702  0.786  0.227-  71 2.71  66 2.71  69 2.72  55 2.72  67 2.72  12 2.72  19 2.78  25 2.78
                            56 2.78   1 2.78  21 2.78  73 2.79
  21  0.869  0.702  0.122-  25 2.71  78 2.71  19 2.71  45 2.71  46 2.72  70 2.72  12 2.78  55 2.78
                            20 2.78   4 2.82  58 2.82   6 2.83
  22  0.620  0.452  0.122-  11 2.71  45 2.71  61 2.71  25 2.72  60 2.72   7 2.72  79 2.78  67 2.78
                            51 2.79  17 2.82  42 2.82  64 2.83
  23  0.285  0.869  0.331-  14 2.71  57 2.71  73 2.71   2 2.71  13 2.72  47 2.72  68 2.78  26 2.78
                            66 2.79  31 2.82  37 2.82  29 2.83
  24  0.287  0.867  0.015-  17 2.71  59 2.71  48 2.72   5 2.72  16 2.72  75 2.72  60 2.82   8 2.82
                            49 2.83
  25  0.619  0.702  0.122-  19 2.71  45 2.71  21 2.71   8 2.72  22 2.72  60 2.72  20 2.78  67 2.78
                            66 2.79  17 2.82  75 2.82  58 2.83
  26  0.202  0.036  0.227-  77 2.71  68 2.71  65 2.71  62 2.71  69 2.72  66 2.72  54 2.78  49 2.78
                            23 2.78  13 2.78  47 2.79   8 2.79
  27  0.868  0.953  0.438-  29 2.71  32 2.72  39 2.72  34 2.72  35 2.72  40 2.72   1 2.82  72 2.82
                             2 2.82
  28  0.117  0.453  0.438-  39 2.71  50 2.71  30 2.71  33 2.72  35 2.72  36 2.72   3 2.83   9 2.83
                            15 2.83
  29  0.117  0.953  0.438-  27 2.71  31 2.71  39 2.71  37 2.72  32 2.72  33 2.72   2 2.82  47 2.82
                            23 2.83
  30  0.868  0.453  0.438-  32 2.71  33 2.71  35 2.71  28 2.71  52 2.72  38 2.72   9 2.82  63 2.83
                            56 2.83
  31  0.367  0.953  0.438-  36 2.71  37 2.71  33 2.71  29 2.71  52 2.72  34 2.72  23 2.82  13 2.82
                            73 2.83
  32  0.867  0.203  0.438-  30 2.71  38 2.71  27 2.72  40 2.72  33 2.72  29 2.72  63 2.82  72 2.83
                            47 2.83
  33  0.117  0.203  0.438-  30 2.71  31 2.71  36 2.71  28 2.72  32 2.72  29 2.72   9 2.82  47 2.82
                            13 2.83
  34  0.618  0.953  0.438-  35 2.71  36 2.71  40 2.71  27 2.72  52 2.72  31 2.72  73 2.82  43 2.82
                             1 2.83
  35  0.867  0.703  0.438-  52 2.71  34 2.71  30 2.71  28 2.72  27 2.72  39 2.72  56 2.82   1 2.82
                             3 2.83
  36  0.367  0.203  0.438-  31 2.71  34 2.71  33 2.71  40 2.71  50 2.72  28 2.72  13 2.82  15 2.82
                            43 2.83
  37  0.368  0.703  0.438-  81 1.51  52 2.71  38 2.71  31 2.71  29 2.72  50 2.72  39 2.72  57 2.82
                            23 2.82  14 2.83
  38  0.617  0.453  0.438-  81 1.87  40 2.71  37 2.71  32 2.71  50 2.72  52 2.72  30 2.72  41 2.82
                            14 2.82  63 2.83
  39  0.117  0.703  0.438-  50 2.71  28 2.71  29 2.71  27 2.72  35 2.72  37 2.72   3 2.82  57 2.83
                             2 2.83
  40  0.617  0.203  0.438-  38 2.71  34 2.71  36 2.71  50 2.72  32 2.72  27 2.72  41 2.82  43 2.82
                            72 2.83
  41  0.534  0.370  0.331-  57 2.71  15 2.71  43 2.71  63 2.72  72 2.72  14 2.72  80 2.78  51 2.78
                            79 2.79  40 2.82  38 2.82  50 2.83
  42  0.538  0.367  0.015-  74 2.71  44 2.71  64 2.71  17 2.72  59 2.72  18 2.72   7 2.82  22 2.82
                            61 2.83
  43  0.534  0.120  0.331-  41 2.71  15 2.71  72 2.71  13 2.72  73 2.72   1 2.72  80 2.78  69 2.78
                            71 2.79  40 2.82  34 2.82  36 2.83
  44  0.537  0.118  0.015-  16 2.71  42 2.71  75 2.71  74 2.71  18 2.72   4 2.72  19 2.82   7 2.82
                            53 2.83
  45  0.869  0.452  0.122-  22 2.71  25 2.71  21 2.71  46 2.72  11 2.72  54 2.72  77 2.78  12 2.78
                            67 2.78  58 2.82  64 2.82  10 2.83
  46  0.119  0.452  0.122-  53 2.71  45 2.72  21 2.72  54 2.72  61 2.72  70 2.72  62 2.78  76 2.78
                            12 2.78   6 2.82  10 2.83  18 2.83
  47  0.034  0.119  0.331-   9 2.71  13 2.71  72 2.72  63 2.72  23 2.72   2 2.72  77 2.78  65 2.78
                            26 2.79  29 2.82  33 2.82  32 2.83
  48  0.037  0.118  0.015-   5 2.71  10 2.71  24 2.72  74 2.72  64 2.72  16 2.72  49 2.82  54 2.83
                            11 2.83
  49  0.119  0.952  0.122-  70 2.71  54 2.71   8 2.71  60 2.71  11 2.72  78 2.72  68 2.78  26 2.78
                            65 2.79  48 2.82   5 2.82  24 2.83
  50  0.367  0.453  0.438-  81 1.90  39 2.71  28 2.71  38 2.72  40 2.72  37 2.72  36 2.72  15 2.82
                            57 2.83  41 2.83
  51  0.452  0.536  0.227-  79 2.71  80 2.71  76 2.71  67 2.72  68 2.72  66 2.72  41 2.78  60 2.78
                            61 2.78  14 2.78  22 2.79  57 2.79
  52  0.617  0.703  0.438-  35 2.71  37 2.71  38 2.72  30 2.72  34 2.72  31 2.72  14 2.82  73 2.82
                            56 2.83
  53  0.369  0.202  0.122-  46 2.71  54 2.71   7 2.72   8 2.72  61 2.72  19 2.72  69 2.78  80 2.78
                            62 2.79  18 2.82  16 2.82  44 2.83
  54  0.119  0.202  0.122-  49 2.71   8 2.71  53 2.71  11 2.72  46 2.72  45 2.72  26 2.78  62 2.78
                            77 2.79  10 2.82  48 2.83  16 2.83
  55  0.952  0.786  0.227-  76 2.71  12 2.71  65 2.71  68 2.71  20 2.72  71 2.72   2 2.78  78 2.78
                             3 2.78  21 2.78   1 2.78  70 2.79
  56  0.784  0.619  0.331-  14 2.71  73 2.71   3 2.72  63 2.72   9 2.72   1 2.72  67 2.78  20 2.78
                            12 2.78  35 2.82  30 2.83  52 2.83
  57  0.284  0.619  0.331-   2 2.71  41 2.71  23 2.71  14 2.72   3 2.72  15 2.72  68 2.78  76 2.78
                            51 2.79  37 2.82  50 2.83  39 2.83
  58  0.787  0.618  0.015-   4 2.71  75 2.71  64 2.71   6 2.72  17 2.72  10 2.72  21 2.82  45 2.82
                            25 2.83
  59  0.287  0.618  0.015-  17 2.71  24 2.71  18 2.71   6 2.71  42 2.72   5 2.72  61 2.82  60 2.82
                            70 2.83
  60  0.369  0.702  0.122-  70 2.71  61 2.71  49 2.71   8 2.72  22 2.72  25 2.72  51 2.78  66 2.78
                            68 2.79  24 2.82  59 2.82  17 2.83
  61  0.370  0.452  0.122-  60 2.71  22 2.71   7 2.71  70 2.72  53 2.72  46 2.72  51 2.78  80 2.78
                            76 2.79  59 2.82  18 2.82  42 2.83
  62  0.202  0.286  0.227-  12 2.71  77 2.71  26 2.71  76 2.72  80 2.72  69 2.72  46 2.78  13 2.78
                            54 2.78  15 2.78   9 2.78  53 2.79
  63  0.784  0.369  0.331-  72 2.71  14 2.71  56 2.72  41 2.72  47 2.72   9 2.72  67 2.78  79 2.78
                            77 2.79  32 2.82  30 2.83  38 2.83
  64  0.787  0.368  0.015-  10 2.71  58 2.71  42 2.71  17 2.72  48 2.72  74 2.72  11 2.82  45 2.82
                            22 2.83
  65  0.952  0.036  0.227-  26 2.71  77 2.71  55 2.71  68 2.72  79 2.72  71 2.72   2 2.78  11 2.78
                            47 2.78  78 2.78  72 2.78  49 2.79
  66  0.452  0.786  0.227-  69 2.71  20 2.71  67 2.72  68 2.72  26 2.72  51 2.72   8 2.78  14 2.78
                            60 2.78  73 2.78  23 2.79  25 2.79
  67  0.702  0.536  0.227-  77 2.71  51 2.72  20 2.72  66 2.72  12 2.72  79 2.72  63 2.78  22 2.78
                            56 2.78  25 2.78  45 2.78  14 2.79
  68  0.202  0.786  0.227-  26 2.71  55 2.71  65 2.72  76 2.72  51 2.72  66 2.72  49 2.78  23 2.78
                            70 2.78  57 2.78   2 2.78  60 2.79
  69  0.452  0.036  0.227-  66 2.71  71 2.71  26 2.72  20 2.72  80 2.72  62 2.72  53 2.78  73 2.78
                            43 2.78   8 2.78  13 2.79  19 2.79
  70  0.120  0.702  0.122-  60 2.71  49 2.71  61 2.72  21 2.72  46 2.72  78 2.72  68 2.78  76 2.78
                            55 2.79   6 2.82   5 2.82  59 2.83
  71  0.702  0.036  0.227-  20 2.71  69 2.71  79 2.71  80 2.72  65 2.72  55 2.72   7 2.78   1 2.78
                            19 2.78  72 2.78  78 2.79  43 2.79
  72  0.784  0.120  0.331-  63 2.71  43 2.71  47 2.72   1 2.72  41 2.72   2 2.72  79 2.78  71 2.78
                            65 2.78  27 2.82  32 2.83  40 2.83
  73  0.535  0.869  0.331-  56 2.71  14 2.71  23 2.71  43 2.72   1 2.72  13 2.72  69 2.78  66 2.78
                            20 2.79  34 2.82  52 2.82  31 2.83
  74  0.787  0.118  0.015-  42 2.71   5 2.71  44 2.71   4 2.72  48 2.72  64 2.72  78 2.82  11 2.83
                             7 2.83
  75  0.537  0.868  0.015-  16 2.71  44 2.71  58 2.71   4 2.71  17 2.72  24 2.72  19 2.82  25 2.82
                             8 2.83
  76  0.202  0.536  0.227-  80 2.71  12 2.71  55 2.71  51 2.71  62 2.72  68 2.72  46 2.78  70 2.78
                            57 2.78  15 2.78   3 2.79  61 2.79
  77  0.952  0.286  0.227-  62 2.71  26 2.71  67 2.71  65 2.71  79 2.72  12 2.72  45 2.78  47 2.78
                             9 2.78  11 2.78  63 2.79  54 2.79
  78  0.869  0.952  0.122-   7 2.71  19 2.71  21 2.71  11 2.72  49 2.72  70 2.72  55 2.78  65 2.78
                            71 2.79  74 2.82   4 2.82   5 2.83
  79  0.702  0.286  0.227-  51 2.71  80 2.71  71 2.71  65 2.72  77 2.72  67 2.72  22 2.78  72 2.78
                             7 2.78  63 2.78  41 2.79  11 2.79
  80  0.452  0.286  0.227-  76 2.71  79 2.71  51 2.71  71 2.72  69 2.72  62 2.72  43 2.78  41 2.78
                            61 2.78  53 2.78  15 2.79   7 2.79
  81  0.438  0.565  0.473-  37 1.51  38 1.87  50 1.90
 
  LATTYP: Found a hexagonal cell.
 ALAT       =    10.8599870232
 C/A-ratio  =     2.0257851094
  
  Lattice vectors:
  
 A1 = (  -5.4299998282,  -9.4050210000,   0.0000000000)
 A2 = (  -5.4299998278,   9.4050210000,   0.0000000000)
 A3 = (   0.0000000000,   0.0000000000, -22.0000000000)


Analysis of symmetry for initial positions (statically):
=====================================================================
 Subroutine PRICEL returns:
 Original cell was already a primitive cell.
 

 Routine SETGRP: Setting up the symmetry group for a 
 hexagonal supercell.


 Subroutine GETGRP returns: Found  1 space group operations
 (whereof  1 operations were pure point group operations)
 out of a pool of 24 trial point group operations.


The static configuration has the point symmetry C_1 .


Analysis of symmetry for dynamics (positions and initial velocities):
=====================================================================
 Subroutine PRICEL returns:
 Original cell was already a primitive cell.
 

 Routine SETGRP: Setting up the symmetry group for a 
 hexagonal supercell.


 Subroutine GETGRP returns: Found  1 space group operations
 (whereof  1 operations were pure point group operations)
 out of a pool of 24 trial point group operations.


The dynamic configuration has the point symmetry C_1 .


Analysis of constrained symmetry for selective dynamics:
=====================================================================
 Subroutine PRICEL returns:
 Original cell was already a primitive cell.
 

 Routine SETGRP: Setting up the symmetry group for a 
 hexagonal supercell.


 Subroutine GETGRP returns: Found  1 space group operations
 (whereof  1 operations were pure point group operations)
 out of a pool of 24 trial point group operations.


The constrained configuration has the point symmetry C_1 .


Analysis of structural, dynamic, and magnetic symmetry:
=====================================================================
 Subroutine PRICEL returns:
 Original cell was already a primitive cell.
 

 Routine SETGRP: Setting up the symmetry group for a 
 hexagonal supercell.


 Subroutine GETGRP returns: Found  1 space group operations
 (whereof  1 operations were pure point group operations)
 out of a pool of 24 trial point group operations.


The magnetic configuration has the point symmetry C_1 .


 Subroutine INISYM returns: Found  1 space group operations
 (whereof  1 operations are pure point group operations),
 and found     1 'primitive' translations

 
 
 KPOINTS: mesh auto                               

Automatic generation of k-mesh.
Space group operators:
 irot       det(A)        alpha          n_x          n_y          n_z        tau_x        tau_y        tau_z
    1     1.000000     0.000001     1.000000     0.000000     0.000000     0.000000     0.000000     0.000000
 
 Subroutine IBZKPT returns following result:
 ===========================================
 
 Found      4 irreducible k-points:
 
 Following reciprocal coordinates:
            Coordinates               Weight
  0.000000  0.000000  0.000000      1.000000
  0.500000  0.000000  0.000000      1.000000
  0.000000  0.500000  0.000000      1.000000
  0.500000  0.500000  0.000000      1.000000
 
 Following cartesian coordinates:
            Coordinates               Weight
  0.000000  0.000000  0.000000      1.000000
  0.046041 -0.026582  0.000000      1.000000
  0.000000  0.053163  0.000000      1.000000
  0.046041  0.026582  0.000000      1.000000
 


--------------------------------------------------------------------------------------------------------




 Dimension of arrays:
   k-points           NKPTS =      4   k-points in BZ     NKDIM =      4   number of bands    NBANDS=    530
   number of dos      NEDOS =    301   number of ions     NIONS =     81
   non local maximal  LDIM  =      6   non local SUM 2l+1 LMDIM =     18
   total plane-waves  NPLWV = ******
   max r-space proj   IRMAX =   7380   max aug-charges    IRDMAX=  32148
   dimension x,y,z NGX =    84 NGY =   84 NGZ =  168
   dimension x,y,z NGXF=   168 NGYF=  168 NGZF=  336
   support grid    NGXF=   168 NGYF=  168 NGZF=  336
   ions per type =              80   1
   NGX,Y,Z   is equivalent  to a cutoff of  12.86, 12.86, 12.70 a.u.
   NGXF,Y,Z  is equivalent  to a cutoff of  25.72, 25.72, 25.39 a.u.

 SYSTEM =  Pt111                                   
 POSCAR =  Pt111                                   

 Startparameter for this run:
   NWRITE =      2    write-flag & timer
   PREC   = accura    normal or accurate (medium, high low for compatibility)
   ISTART =      0    job   : 0-new  1-cont  2-samecut
   ICHARG =      2    charge: 1-file 2-atom 10-const
   ISPIN  =      2    spin polarized calculation?
   LNONCOLLINEAR =      F non collinear calculations
   LSORBIT =      F    spin-orbit coupling
   INIWAV =      1    electr: 0-lowe 1-rand  2-diag
   LASPH  =      F    aspherical Exc in radial PAW
   METAGGA=      F    non-selfconsistent MetaGGA calc.

 Electronic Relaxation 1
   ENCUT  =  550.0 eV  40.42 Ry    6.36 a.u.  20.77 20.77 42.07*2*pi/ulx,y,z
   ENINI  =  550.0     initial cutoff
   ENAUG  =  400.0 eV  augmentation charge cutoff
   NELM   =    200;   NELMIN=  2; NELMDL= -5     # of ELM steps 
   EDIFF  = 0.1E-04   stopping-criterion for ELM
   LREAL  =      T    real-space projection
   NLSPLINE    = F    spline interpolate recip. space projectors
   LCOMPAT=      F    compatible to vasp.4.4
   GGA_COMPAT  = T    GGA compatible to vasp.4.4-vasp.4.6
   LMAXPAW     = -100 max onsite density
   LMAXMIX     =    2 max onsite mixed and CHGCAR
   VOSKOWN=      0    Vosko Wilk Nusair interpolation
   ROPT   =   -0.00025  -0.00025
 Ionic relaxation
   EDIFFG = -.5E-01   stopping-criterion for IOM
   NSW    =    300    number of steps for IOM
   NBLOCK =      1;   KBLOCK =    300    inner block; outer block 
   IBRION =      2    ionic relax: 0-MD 1-quasi-New 2-CG
   NFREE  =      1    steps in history (QN), initial steepest desc. (CG)
   ISIF   =      2    stress and relaxation
   IWAVPR =     11    prediction:  0-non 1-charg 2-wave 3-comb
   ISYM   =      2    0-nonsym 1-usesym 2-fastsym
   LCORR  =      T    Harris-Foulkes like correction to forces

   POTIM  = 0.5000    time-step for ionic-motion
   TEIN   =    0.0    initial temperature
   TEBEG  =    0.0;   TEEND  =   0.0 temperature during run
   SMASS  =  -3.00    Nose mass-parameter (am)
   estimated Nose-frequenzy (Omega)   =  0.10E-29 period in steps =****** mass=  -0.270E-26a.u.
   SCALEE = 1.0000    scale energy and forces
   NPACO  =    256;   APACO  = 16.0  distance and # of slots for P.C.
   PSTRESS=    0.0 pullay stress

  Mass of Ions in am
   POMASS = 195.08  1.00
  Ionic Valenz
   ZVAL   =  10.00  1.00
  Atomic Wigner-Seitz radii
   RWIGS  =  -1.00 -1.00
  virtual crystal weights 
   VCA    =   1.00  1.00
   NELECT =     801.0000    total number of electrons
   NUPDOWN=      -1.0000    fix difference up-down

 DOS related values:
   EMIN   =  10.00;   EMAX   =-10.00  energy-range for DOS
   EFERMI =   0.00
   ISMEAR =     1;   SIGMA  =   0.10  broadening in eV -4-tet -1-fermi 0-gaus

 Electronic relaxation 2 (details)
   IALGO  =     68    algorithm
   LDIAG  =      T    sub-space diagonalisation (order eigenvalues)
   LSUBROT=      F    optimize rotation matrix (better conditioning)
   TURBO    =      0    0=normal 1=particle mesh
   IRESTART =      0    0=no restart 2=restart with 2 vectors
   NREBOOT  =      0    no. of reboots
   NMIN     =      0    reboot dimension
   EREF     =   0.00    reference energy to select bands
   IMIX   =      4    mixing-type and parameters
     AMIX     =   0.40;   BMIX     =  1.00
     AMIX_MAG =   1.60;   BMIX_MAG =  1.00
     AMIN     =   0.10
     WC   =   100.;   INIMIX=   1;  MIXPRE=   1;  MAXMIX= -45

 Intra band minimization:
   WEIMIN = 0.0010     energy-eigenvalue tresh-hold
   EBREAK =  0.47E-08  absolut break condition
   DEPER  =   0.30     relativ break condition  

   TIME   =   0.40     timestep for ELM

  volume/ion in A,a.u.               =      27.74       187.21
  Fermi-wavevector in a.u.,A,eV,Ry     =   1.160776  2.193548 18.332488  1.347400
  Thomas-Fermi vector in A             =   2.297355
 
 Write flags
   LWAVE        =      F    write WAVECAR
   LDOWNSAMPLE  =      F    k-point downsampling of WAVECAR
   LCHARG       =      F    write CHGCAR
   LVTOT        =      F    write LOCPOT, total local potential
   LVHAR        =      F    write LOCPOT, Hartree potential only
   LELF         =      F    write electronic localiz. function (ELF)
   LORBIT       =      0    0 simple, 1 ext, 2 COOP (PROOUT), +10 PAW based schemes


 Dipole corrections
   LMONO  =      F    monopole corrections only (constant potential shift)
   LDIPOL =      F    correct potential (dipole corrections)
   IDIPOL =      0    1-x, 2-y, 3-z, 4-all directions 
   EPSILON=  1.0000000 bulk dielectric constant

 Exchange correlation treatment:
   GGA     =    --    GGA type
   LEXCH   =     8    internal setting for exchange type
   VOSKOWN=      0    Vosko Wilk Nusair interpolation
   LHFCALC =     F    Hartree Fock is set to
   LHFONE  =     F    Hartree Fock one center treatment
   AEXX    =    0.0000 exact exchange contribution

 Linear response parameters
   LEPSILON=     F    determine dielectric tensor
   LRPA    =     F    only Hartree local field effects (RPA)
   LNABLA  =     F    use nabla operator in PAW spheres
   LVEL    =     F    velocity operator in full k-point grid
   LINTERFAST=   F  fast interpolation
   KINTER  =     0    interpolate to denser k-point grid
   CSHIFT  =0.1000    complex shift for real part using Kramers Kronig
   OMEGAMAX=  -1.0    maximum frequency
   DEG_THRESHOLD= 0.2000000E-02 threshold for treating states as degnerate
   RTIME   =   -0.100 relaxation time in fs
  (WPLASMAI=    0.000 imaginary part of plasma frequency in eV, 0.658/RTIME)
   DFIELD  = 0.0000000 0.0000000 0.0000000 field for delta impulse in time
 
 Orbital magnetization related:
   ORBITALMAG=     F  switch on orbital magnetization
   LCHIMAG   =     F  perturbation theory with respect to B field
   DQ        =  0.001000  dq finite difference perturbation B field
   LLRAUG    =     F  two centre corrections for induced B field



--------------------------------------------------------------------------------------------------------


 conjugate gradient relaxation of ions
   using selective dynamics as specified on POSCAR
   WARNING: If single coordinates had been selected the selection of coordinates
            is made according to the corresponding   d i r e c t   coordinates!
            Don't support selection of single cartesian coordinates -- sorry ...
  !
 charge density and potential will be updated during run
 spin polarized calculation
 RMM-DIIS sequential band-by-band and
  variant of blocked Davidson during initial phase
 perform sub-space diagonalisation
    before iterative eigenvector-optimisation
 modified Broyden-mixing scheme, WC =      100.0
 initial mixing is a Kerker type mixing with AMIX =  0.4000 and BMIX =      1.0000
 Hartree-type preconditioning will be used
 using additional bands          129
 real space projection scheme for non local part
 use partial core corrections
 calculate Harris-corrections to forces 
   (improved forces if not selfconsistent)
 use gradient corrections 
 use of overlap-Matrix (Vanderbilt PP)
 Methfessel and Paxton  Order N= 1 SIGMA  =   0.10


--------------------------------------------------------------------------------------------------------


  energy-cutoff  :      550.00
  volume of cell :     2247.05
      direct lattice vectors                 reciprocal lattice vectors
    10.859999656  0.000000000  0.000000000     0.092081034 -0.053163092  0.000000000
     5.429999828  9.405021000  0.000000000     0.000000000  0.106326185  0.000000000
     0.000000000  0.000000000 22.000000000     0.000000000  0.000000000  0.045454545

  length of vectors
    10.859999656 10.859987023 22.000000000     0.106326061  0.106326185  0.045454545


 
 k-points in units of 2pi/SCALE and weight: mesh auto                               
   0.00000000  0.00000000  0.00000000       0.250
   0.04604052 -0.02658155  0.00000000       0.250
   0.00000000  0.05316309  0.00000000       0.250
   0.04604052  0.02658155  0.00000000       0.250
 
 k-points in reciprocal lattice and weights: mesh auto                               
   0.00000000  0.00000000  0.00000000       0.250
   0.50000000  0.00000000  0.00000000       0.250
   0.00000000  0.50000000  0.00000000       0.250
   0.50000000  0.50000000  0.00000000       0.250
 
 position of ions in fractional coordinates (direct lattice) 
   0.78460202  0.86942437  0.33104184
   0.03471948  0.86917484  0.33108799
   0.03439059  0.61948091  0.33121490
   0.78733492  0.86749523  0.01523082
   0.03673208  0.86815209  0.01535276
   0.03739891  0.61764094  0.01549949
   0.61941900  0.20169904  0.12217373
   0.36938093  0.95174631  0.12221038
   0.03444223  0.36941535  0.33118907
   0.03702010  0.36745839  0.01555774
   0.86934911  0.20181162  0.12209130
   0.95194317  0.53567909  0.22670486
   0.28443060  0.11948387  0.33117809
   0.53449229  0.61952214  0.33111408
   0.28443401  0.36937314  0.33130768
   0.28737660  0.11753303  0.01550924
   0.53702832  0.61771822  0.01545760
   0.28693064  0.36792243  0.01556465
   0.61943497  0.95173808  0.12211587
   0.70189911  0.78570574  0.22657695
   0.86940703  0.70182631  0.12219375
   0.61953607  0.45176385  0.12219931
   0.28459524  0.86939772  0.33114715
   0.28717383  0.86744177  0.01548949
   0.61948838  0.70181040  0.12212616
   0.20178829  0.03574092  0.22667984
   0.86767668  0.95299131  0.43777763
   0.11736206  0.45313614  0.43827748
   0.11723202  0.95275797  0.43791956
   0.86757311  0.45276928  0.43795304
   0.36693159  0.95312888  0.43801396
   0.86718872  0.20324097  0.43796057
   0.11735535  0.20308942  0.43802247
   0.61754911  0.95307824  0.43784474
   0.86687908  0.70304668  0.43793629
   0.36744480  0.20259011  0.43807574
   0.36768544  0.70299363  0.43803073
   0.61712526  0.45292902  0.43793947
   0.11743416  0.70267144  0.43804613
   0.61715128  0.20317097  0.43781026
   0.53421501  0.36954015  0.33109870
   0.53764747  0.36735834  0.01540351
   0.53441732  0.11957078  0.33106874
   0.53692745  0.11791937  0.01532902
   0.86937812  0.45188028  0.12227324
   0.11945845  0.45174610  0.12236839
   0.03446423  0.11946648  0.33115538
   0.03719573  0.11752701  0.01532315
   0.11937961  0.95178010  0.12226301
   0.36700341  0.45310033  0.43822921
   0.45191114  0.53564090  0.22669547
   0.61739361  0.70295653  0.43792788
   0.36931205  0.20184145  0.12230993
   0.11943486  0.20165645  0.12227422
   0.95194788  0.78565151  0.22667928
   0.78438758  0.61946645  0.33107937
   0.28448596  0.61947638  0.33125801
   0.78708788  0.61795672  0.01535737
   0.28732088  0.61755253  0.01548736
   0.36933846  0.70176128  0.12228077
   0.36953671  0.45180494  0.12225763
   0.20168847  0.28577337  0.22678364
   0.78430361  0.36947623  0.33108987
   0.78727762  0.36795144  0.01528027
   0.95185159  0.03567865  0.22665351
   0.45193983  0.78576622  0.22664798
   0.70190929  0.53567046  0.22663250
   0.20190143  0.78572194  0.22671908
   0.45183620  0.03565355  0.22671015
   0.11950185  0.70185892  0.12225235
   0.70180079  0.03566071  0.22659523
   0.78440120  0.11958257  0.33101055
   0.53454362  0.86947422  0.33114800
   0.78695369  0.11773815  0.01518417
   0.53723470  0.86788574  0.01524724
   0.20188755  0.53568865  0.22674779
   0.95183615  0.28565814  0.22669890
   0.86917361  0.95187802  0.12216451
   0.70178288  0.28565615  0.22659797
   0.45178423  0.28574503  0.22674386
   0.43800000  0.56500000  0.47300000
 
 position of ions in cartesian coordinates  (Angst):
  13.24175181  8.17695443  7.28292057
   5.09667279  8.17460764  7.28393585
   3.73726306  5.82623093  7.28672790
  13.26095590  8.15881083  0.33507807
   5.11297611  8.16498862  0.33776072
   3.75994234  5.80892606  0.34098870
   7.82211584  1.89698371  2.68782199
   9.17945909  8.95119401  2.68862835
   2.37996793  3.47435910  7.28615957
   2.39733730  3.45595385  0.34227027
  10.53696807  1.89804252  2.68600860
  13.24683992  5.03807311  4.98750688
   3.73771357  1.12374833  7.28591805
   9.16859121  5.82661874  7.28450976
   5.09464929  3.47396214  7.28876892
   3.75911407  1.10540064  0.34120328
   9.18633719  5.80965284  0.34006724
   5.11388541  3.46031814  0.34242222
  11.89500118  8.95111664  2.68654907
  11.88900611  7.38957897  4.98469300
  13.25267678  6.60069121  2.68826241
   9.18123914  4.24884848  2.68838491
   7.81153375  8.17670385  7.28523724
   7.82891632  8.15830809  0.34076870
  10.53847399  6.60054159  2.68677561
   2.38549393  0.33614409  4.98695642
  14.59771113  8.96290325  9.63110792
   3.73508114  4.26175492  9.64210463
   6.44661533  8.96070876  9.63423030
  11.88038077  4.25830458  9.63496697
   9.16036653  8.96419710  9.63630720
  10.52126767  1.91148560  9.63513246
   2.37725453  1.91006022  9.63649440
  11.88179786  8.96372088  9.63258428
  13.23184987  6.61216875  9.63459831
   5.09051466  1.90536427  9.63766629
   7.81031902  6.61166988  9.63667613
   9.16138455  4.25980690  9.63466838
   5.09084072  6.60863965  9.63701483
   7.80548095  1.91082719  9.63182582
   7.80817780  3.47553292  7.28417139
   7.83360705  3.45501291  0.33887725
   6.45304117  1.12456566  7.28351236
   6.47133404  1.10903416  0.33723846
  11.89515588  4.24994352  2.69001121
   3.75030003  4.24868158  2.69210459
   1.02298444  1.12358471  7.28541834
   1.04211725  1.10534403  0.33710926
   6.46462835  8.95151184  2.68978619
   6.44599168  4.26141814  9.64104264
   7.81628483  5.03771389  4.98730032
  10.52194820  6.61132088  9.63441329
   5.10672776  1.89832305  2.69081852
   2.39205696  1.89658310  2.69003282
  14.60424121  7.38906892  4.98694409
  11.88215154  5.82609499  7.28374611
   6.45327406  5.82618837  7.28767631
  11.90327900  5.81189588  0.33786219
   6.47361485  5.80809453  0.34072184
   7.82157922  6.60007959  2.69017696
   6.46646926  4.24923491  2.68966790
   3.74208601  2.68770452  4.98924002
  10.52379285  3.47493174  7.28397716
  10.54781091  3.46059099  0.33616588
  10.53084302  0.33555845  4.98637729
   9.17477681  7.39014776  4.98625546
  10.53142512  5.03799195  4.98591494
   6.45911949  7.38973130  4.98781975
   5.10053980  0.33532240  4.98762324
   5.10888391  6.60099788  2.68955175
   7.81519403  0.33538974  4.98509504
   9.16793009  1.12467659  7.28223219
  10.52638836  8.17742329  7.28525606
   9.18563496  1.10732978  0.33405177
  10.54698811  8.16248359  0.33543937
   5.10128798  5.03816298  4.98845147
  11.88806395  2.68662085  4.98737589
  14.60792265  8.95243280  2.68761932
   9.17247466  2.68660211  4.98515524
   6.45797200  2.68743802  4.98836492
   7.82462975  5.31383687 10.40600000
 


--------------------------------------------------------------------------------------------------------


 k-point  1 :   0.0000 0.0000 0.0000  plane waves:   65767
 k-point  2 :   0.5000 0.0000 0.0000  plane waves:   65808
 k-point  3 :   0.0000 0.5000 0.0000  plane waves:   65808
 k-point  4 :   0.5000 0.5000 0.0000  plane waves:   65808

 maximum and minimum number of plane-waves per node :     16481    16415

 maximum number of plane-waves:     65808
 maximum index in each direction: 
   IXMAX=   20   IYMAX=   20   IZMAX=   42
   IXMIN=  -21   IYMIN=  -21   IZMIN=  -42


 real space projection operators:
  total allocation   :      79959.66 KBytes
  max/ min on nodes  :      19992.12      19987.52


 parallel 3D FFT for wavefunctions:
    minimum data exchange during FFTs selected (reduces bandwidth)
 parallel 3D FFT for charge:
    minimum data exchange during FFTs selected (reduces bandwidth)


 total amount of memory used by VASP MPI-rank0   243996. kBytes
=======================================================================

   base      :      30000. kBytes
   nonlr-proj:      34744. kBytes
   fftplans  :      17974. kBytes
   grid      :      46451. kBytes
   one-center:        653. kBytes
   wavefun   :     114174. kBytes
 
     INWAV:  cpu time    0.0000: real time    0.0000
 Broyden mixing: mesh for mixing (old mesh)
   NGX = 41   NGY = 41   NGZ = 85
  (NGX  =168   NGY  =168   NGZ  =336)
  gives a total of 142885 points

 initial charge density was supplied:
 charge density of overlapping atoms calculated
 number of electron     801.0000000 magnetization      81.0000000
 keeping initial charge density in first step


--------------------------------------------------------------------------------------------------------


 Maximum index for non-local projection operator         1794
 Maximum index for augmentation-charges         2011 (set IRDMAX)


--------------------------------------------------------------------------------------------------------


 First call to EWALD:  gamma=   0.135
 Maximum number of real-space cells 4x 4x 2
 Maximum number of reciprocal cells 2x 2x 4

    FEWALD:  cpu time    0.0041: real time    0.0041


--------------------------------------- Iteration      1(   1)  ---------------------------------------


    POTLOK:  cpu time    0.4168: real time    0.4195
    SETDIJ:  cpu time    0.0358: real time    0.0361
     EDDAV:  cpu time   61.1902: real time   61.3661
       DOS:  cpu time    0.0023: real time    0.0023
    --------------------------------------------
      LOOP:  cpu time   61.6451: real time   61.8240

 eigenvalue-minimisations  :  8480
 total energy-change (2. order) : 0.5587728E+04  (-0.3936139E+05)
 number of electron     801.0000000 magnetization      81.0000000
 augmentation part      801.0000000 magnetization      81.0000000

 Free energy of the ion-electron system (eV)
  ---------------------------------------------------
  alpha Z        PSCENC =      2711.68499749
  Ewald energy   TEWEN  =    175210.29922994
  -Hartree energ DENC   =   -239807.52969141
  -exchange      EXHF   =         0.00000000
  -V(xc)+E(xc)   XCENC  =       301.46265514
  PAW double counting   =     55685.49641431   -53423.17961727
  entropy T*S    EENTRO =         0.00289669
  eigenvalues    EBANDS =      6567.76005479
  atomic energy  EATOM  =     58341.73154849
  Solvation  Ediel_sol  =         0.00000000
  ---------------------------------------------------
  free energy    TOTEN  =      5587.72848818 eV

  energy without entropy =     5587.72559148  energy(sigma->0) =     5587.72752261


--------------------------------------------------------------------------------------------------------




--------------------------------------- Iteration      1(   2)  ---------------------------------------


     EDDAV:  cpu time   66.2604: real time   66.4279
       DOS:  cpu time    0.0021: real time    0.0021
    --------------------------------------------
      LOOP:  cpu time   66.2625: real time   66.4300

 eigenvalue-minimisations  :  9450
 total energy-change (2. order) :-0.5780800E+04  (-0.5313113E+04)
 number of electron     801.0000000 magnetization      81.0000000
 augmentation part      801.0000000 magnetization      81.0000000

 Free energy of the ion-electron system (eV)
  ---------------------------------------------------
  alpha Z        PSCENC =      2711.68499749
  Ewald energy   TEWEN  =    175210.29922994
  -Hartree energ DENC   =   -239807.52969141
  -exchange      EXHF   =         0.00000000
  -V(xc)+E(xc)   XCENC  =       301.46265514
  PAW double counting   =     55685.49641431   -53423.17961727
  entropy T*S    EENTRO =         0.00424311
  eigenvalues    EBANDS =       786.95909048
  atomic energy  EATOM  =     58341.73154849
  Solvation  Ediel_sol  =         0.00000000
  ---------------------------------------------------
  free energy    TOTEN  =      -193.07112970 eV

  energy without entropy =     -193.07537282  energy(sigma->0) =     -193.07254407


--------------------------------------------------------------------------------------------------------




--------------------------------------- Iteration      1(   3)  ---------------------------------------


     EDDAV:  cpu time   66.8594: real time   67.0179
       DOS:  cpu time    0.0021: real time    0.0021
    --------------------------------------------
      LOOP:  cpu time   66.8615: real time   67.0200

 eigenvalue-minimisations  :  9550
 total energy-change (2. order) :-0.2934191E+03  (-0.2715410E+03)
 number of electron     801.0000000 magnetization      81.0000000
 augmentation part      801.0000000 magnetization      81.0000000

 Free energy of the ion-electron system (eV)
  ---------------------------------------------------
  alpha Z        PSCENC =      2711.68499749
  Ewald energy   TEWEN  =    175210.29922994
  -Hartree energ DENC   =   -239807.52969141
  -exchange      EXHF   =         0.00000000
  -V(xc)+E(xc)   XCENC  =       301.46265514
  PAW double counting   =     55685.49641431   -53423.17961727
  entropy T*S    EENTRO =        -0.03889673
  eigenvalues    EBANDS =       493.58312902
  atomic energy  EATOM  =     58341.73154849
  Solvation  Ediel_sol  =         0.00000000
  ---------------------------------------------------
  free energy    TOTEN  =      -486.49023100 eV

  energy without entropy =     -486.45133428  energy(sigma->0) =     -486.47726543


--------------------------------------------------------------------------------------------------------




--------------------------------------- Iteration      1(   4)  ---------------------------------------


     EDDAV:  cpu time   68.8552: real time   69.0185
       DOS:  cpu time    0.0021: real time    0.0021
    --------------------------------------------
      LOOP:  cpu time   68.8573: real time   69.0206

 eigenvalue-minimisations  :  9900
 total energy-change (2. order) :-0.7671913E+01  (-0.7591439E+01)
 number of electron     801.0000000 magnetization      81.0000000
 augmentation part      801.0000000 magnetization      81.0000000

 Free energy of the ion-electron system (eV)
  ---------------------------------------------------
  alpha Z        PSCENC =      2711.68499749
  Ewald energy   TEWEN  =    175210.29922994
  -Hartree energ DENC   =   -239807.52969141
  -exchange      EXHF   =         0.00000000
  -V(xc)+E(xc)   XCENC  =       301.46265514
  PAW double counting   =     55685.49641431   -53423.17961727
  entropy T*S    EENTRO =        -0.04733592
  eigenvalues    EBANDS =       485.91965554
  atomic energy  EATOM  =     58341.73154849
  Solvation  Ediel_sol  =         0.00000000
  ---------------------------------------------------
  free energy    TOTEN  =      -494.16214368 eV

  energy without entropy =     -494.11480776  energy(sigma->0) =     -494.14636504


--------------------------------------------------------------------------------------------------------




--------------------------------------- Iteration      1(   5)  ---------------------------------------


     EDDAV:  cpu time   68.0938: real time   68.2555
       DOS:  cpu time    0.0021: real time    0.0021
    CHARGE:  cpu time    4.2491: real time    4.2595
    MIXING:  cpu time    0.0093: real time    0.0100
    --------------------------------------------
      LOOP:  cpu time   72.3544: real time   72.5271

 eigenvalue-minimisations  :  9790
 total energy-change (2. order) :-0.2795016E+00  (-0.2789607E+00)
 number of electron     801.0000033 magnetization      76.0093073
 augmentation part      232.6030674 magnetization      53.9991783

 Broyden mixing:
  rms(total) = 0.11350E+02    rms(broyden)= 0.11350E+02
  rms(prec ) = 0.11472E+02
  weight for this iteration     100.00

 Free energy of the ion-electron system (eV)
  ---------------------------------------------------
  alpha Z        PSCENC =      2711.68499749
  Ewald energy   TEWEN  =    175210.29922994
  -Hartree energ DENC   =   -239807.52969141
  -exchange      EXHF   =         0.00000000
  -V(xc)+E(xc)   XCENC  =       301.46265514
  PAW double counting   =     55685.49641431   -53423.17961727
  entropy T*S    EENTRO =        -0.04685876
  eigenvalues    EBANDS =       485.63967682
  atomic energy  EATOM  =     58341.73154849
  Solvation  Ediel_sol  =         0.00000000
  ---------------------------------------------------
  free energy    TOTEN  =      -494.44164524 eV

  energy without entropy =     -494.39478648  energy(sigma->0) =     -494.42602565


--------------------------------------------------------------------------------------------------------




--------------------------------------- Iteration      1(   6)  ---------------------------------------


    POTLOK:  cpu time    0.3976: real time    0.3985
    SETDIJ:  cpu time    0.0353: real time    0.0354
    EDDIAG:  cpu time   10.6469: real time   10.6770
  RMM-DIIS:  cpu time   37.2228: real time   37.3220
    ORTHCH:  cpu time    1.1071: real time    1.1101
       DOS:  cpu time    0.0022: real time    0.0022
    CHARGE:  cpu time    4.2155: real time    4.2268
    MIXING:  cpu time    0.0102: real time    0.0105
    --------------------------------------------
      LOOP:  cpu time   53.6376: real time   53.7825

 eigenvalue-minimisations  :  8525
 total energy-change (2. order) : 0.1136326E+02  (-0.7655306E+01)
 number of electron     801.0000034 magnetization      71.8038223
 augmentation part      244.9067528 magnetization      53.4946135

 Broyden mixing:
  rms(total) = 0.88249E+01    rms(broyden)= 0.88249E+01
  rms(prec ) = 0.96848E+01
  weight for this iteration     100.00

 eigenvalues of (default mixing * dielectric matrix)
  average eigenvalue GAMMA=   0.8014
  0.8014

 Free energy of the ion-electron system (eV)
  ---------------------------------------------------
  alpha Z        PSCENC =      2711.68499749
  Ewald energy   TEWEN  =    175210.29922994
  -Hartree energ DENC   =   -238802.99650431
  -exchange      EXHF   =         0.00000000
  -V(xc)+E(xc)   XCENC  =       284.23082568
  PAW double counting   =     63020.51833060   -60886.94699968
  entropy T*S    EENTRO =        -0.05069306
  eigenvalues    EBANDS =      -361.54912047
  atomic energy  EATOM  =     58341.73154849
  Solvation  Ediel_sol  =         0.00000000
  ---------------------------------------------------
  free energy    TOTEN  =      -483.07838532 eV

  energy without entropy =     -483.02769226  energy(sigma->0) =     -483.06148763


--------------------------------------------------------------------------------------------------------




--------------------------------------- Iteration      1(   7)  ---------------------------------------


    POTLOK:  cpu time    0.4010: real time    0.4020
    SETDIJ:  cpu time    0.0354: real time    0.0355
    EDDIAG:  cpu time   10.5465: real time   10.5756
  RMM-DIIS:  cpu time   36.8127: real time   36.9129
    ORTHCH:  cpu time    1.1034: real time    1.1063
       DOS:  cpu time    0.0020: real time    0.0020
    CHARGE:  cpu time    4.2625: real time    4.2740
    MIXING:  cpu time    0.0108: real time    0.0108
    --------------------------------------------
      LOOP:  cpu time   53.1743: real time   53.3192

 eigenvalue-minimisations  :  8499
 total energy-change (2. order) :-0.1267861E+03  (-0.1465016E+02)
 number of electron     801.0000032 magnetization      63.7064699
 augmentation part      238.8366065 magnetization      52.7306920

 Broyden mixing:
  rms(total) = 0.10857E+02    rms(broyden)= 0.10857E+02
  rms(prec ) = 0.13802E+02
  weight for this iteration     100.00

 eigenvalues of (default mixing * dielectric matrix)
  average eigenvalue GAMMA=   0.8002
  1.3086  0.2917

 Free energy of the ion-electron system (eV)
  ---------------------------------------------------
  alpha Z        PSCENC =      2711.68499749
  Ewald energy   TEWEN  =    175210.29922994
  -Hartree energ DENC   =   -239865.37204101
  -exchange      EXHF   =         0.00000000
  -V(xc)+E(xc)   XCENC  =       278.02694941
  PAW double counting   =     66841.74991758   -64749.58856876
  entropy T*S    EENTRO =         0.01840673
  eigenvalues    EBANDS =       621.58511102
  atomic energy  EATOM  =     58341.73154849
  Solvation  Ediel_sol  =         0.00000000
  ---------------------------------------------------
  free energy    TOTEN  =      -609.86444911 eV

  energy without entropy =     -609.88285584  energy(sigma->0) =     -609.87058469


--------------------------------------------------------------------------------------------------------




--------------------------------------- Iteration      1(   8)  ---------------------------------------


    POTLOK:  cpu time    0.3808: real time    0.3820
    SETDIJ:  cpu time    0.0354: real time    0.0355
    EDDIAG:  cpu time   10.5513: real time   10.5800
  RMM-DIIS:  cpu time   37.0779: real time   37.1790
    ORTHCH:  cpu time    1.1101: real time    1.1134
       DOS:  cpu time    0.0021: real time    0.0021
    CHARGE:  cpu time    4.2721: real time    4.2871
    MIXING:  cpu time    0.0099: real time    0.0099
    --------------------------------------------
      LOOP:  cpu time   53.4395: real time   53.5890

 eigenvalue-minimisations  :  8521
 total energy-change (2. order) : 0.1339816E+03  (-0.6958516E+01)
 number of electron     801.0000036 magnetization      60.4014517
 augmentation part      248.9629186 magnetization      45.1340686

 Broyden mixing:
  rms(total) = 0.54133E+01    rms(broyden)= 0.54133E+01
  rms(prec ) = 0.66941E+01
  weight for this iteration     100.00

 eigenvalues of (default mixing * dielectric matrix)
  average eigenvalue GAMMA=   0.9293
  2.0021  0.5337  0.2521

 Free energy of the ion-electron system (eV)
  ---------------------------------------------------
  alpha Z        PSCENC =      2711.68499749
  Ewald energy   TEWEN  =    175210.29922994
  -Hartree energ DENC   =   -238953.65662884
  -exchange      EXHF   =         0.00000000
  -V(xc)+E(xc)   XCENC  =       278.88508219
  PAW double counting   =     72590.28362538   -70572.68794995
  entropy T*S    EENTRO =        -0.05678323
  eigenvalues    EBANDS =       -82.36601949
  atomic energy  EATOM  =     58341.73154849
  Solvation  Ediel_sol  =         0.00000000
  ---------------------------------------------------
  free energy    TOTEN  =      -475.88289802 eV

  energy without entropy =     -475.82611479  energy(sigma->0) =     -475.86397028


--------------------------------------------------------------------------------------------------------




--------------------------------------- Iteration      1(   9)  ---------------------------------------


    POTLOK:  cpu time    0.3992: real time    0.4001
    SETDIJ:  cpu time    0.0353: real time    0.0354
    EDDIAG:  cpu time   10.6260: real time   10.6513
  RMM-DIIS:  cpu time   36.9155: real time   37.0029
    ORTHCH:  cpu time    1.1089: real time    1.1115
       DOS:  cpu time    0.0020: real time    0.0020
    CHARGE:  cpu time    4.2317: real time    4.2417
    MIXING:  cpu time    0.0111: real time    0.0111
    --------------------------------------------
      LOOP:  cpu time   53.3298: real time   53.4561

 eigenvalue-minimisations  :  8509
 total energy-change (2. order) :-0.5449245E+02  (-0.7060731E+01)
 number of electron     801.0000034 magnetization      57.9901658
 augmentation part      246.6898668 magnetization      44.8728046

 Broyden mixing:
  rms(total) = 0.74193E+01    rms(broyden)= 0.74192E+01
  rms(prec ) = 0.11731E+02
  weight for this iteration     100.00

 eigenvalues of (default mixing * dielectric matrix)
  average eigenvalue GAMMA=   0.8036
  2.2182  0.5737  0.2520  0.1703

 Free energy of the ion-electron system (eV)
  ---------------------------------------------------
  alpha Z        PSCENC =      2711.68499749
  Ewald energy   TEWEN  =    175210.29922994
  -Hartree energ DENC   =   -238858.39663926
  -exchange      EXHF   =         0.00000000
  -V(xc)+E(xc)   XCENC  =       280.13112102
  PAW double counting   =     73853.03823271   -71844.54508412
  entropy T*S    EENTRO =         0.02463492
  eigenvalues    EBANDS =      -224.34338624
  atomic energy  EATOM  =     58341.73154849
  Solvation  Ediel_sol  =         0.00000000
  ---------------------------------------------------
  free energy    TOTEN  =      -530.37534506 eV

  energy without entropy =     -530.39997997  energy(sigma->0) =     -530.38355669


--------------------------------------------------------------------------------------------------------




--------------------------------------- Iteration      1(  10)  ---------------------------------------


    POTLOK:  cpu time    0.3989: real time    0.3999
    SETDIJ:  cpu time    0.0355: real time    0.0356
    EDDIAG:  cpu time   10.6876: real time   10.7129
  RMM-DIIS:  cpu time   37.1302: real time   37.2179
    ORTHCH:  cpu time    1.1079: real time    1.1105
       DOS:  cpu time    0.0022: real time    0.0022
    CHARGE:  cpu time    4.2210: real time    4.2310
    MIXING:  cpu time    0.0106: real time    0.0106
    --------------------------------------------
      LOOP:  cpu time   53.5941: real time   53.7206

 eigenvalue-minimisations  :  8529
 total energy-change (2. order) : 0.5243878E+02  (-0.2187217E+01)
 number of electron     801.0000033 magnetization      54.9373111
 augmentation part      248.6837292 magnetization      42.1396896

 Broyden mixing:
  rms(total) = 0.54944E+01    rms(broyden)= 0.54944E+01
  rms(prec ) = 0.73038E+01
  weight for this iteration     100.00

 eigenvalues of (default mixing * dielectric matrix)
  average eigenvalue GAMMA=   0.7200
  2.3373  0.5869  0.3285  0.2224  0.1249

 Free energy of the ion-electron system (eV)
  ---------------------------------------------------
  alpha Z        PSCENC =      2711.68499749
  Ewald energy   TEWEN  =    175210.29922994
  -Hartree energ DENC   =   -238909.80592597
  -exchange      EXHF   =         0.00000000
  -V(xc)+E(xc)   XCENC  =       280.38903202
  PAW double counting   =     74600.90095606   -72598.90614198
  entropy T*S    EENTRO =         0.00801808
  eigenvalues    EBANDS =      -114.23827688
  atomic energy  EATOM  =     58341.73154849
  Solvation  Ediel_sol  =         0.00000000
  ---------------------------------------------------
  free energy    TOTEN  =      -477.93656276 eV

  energy without entropy =     -477.94458083  energy(sigma->0) =     -477.93923545


--------------------------------------------------------------------------------------------------------




--------------------------------------- Iteration      1(  11)  ---------------------------------------


    POTLOK:  cpu time    0.3987: real time    0.3996
    SETDIJ:  cpu time    0.0351: real time    0.0352
    EDDIAG:  cpu time   10.6059: real time   10.6352
  RMM-DIIS:  cpu time   37.0032: real time   37.1039
    ORTHCH:  cpu time    1.1043: real time    1.1073
       DOS:  cpu time    0.0022: real time    0.0022
    CHARGE:  cpu time    4.1916: real time    4.2033
    MIXING:  cpu time    0.0119: real time    0.0119
    --------------------------------------------
      LOOP:  cpu time   53.3530: real time   53.4987

 eigenvalue-minimisations  :  8525
 total energy-change (2. order) : 0.2106704E+02  (-0.1038864E+01)
 number of electron     801.0000035 magnetization      54.1354944
 augmentation part      248.2403198 magnetization      38.0226125

 Broyden mixing:
  rms(total) = 0.33502E+01    rms(broyden)= 0.33502E+01
  rms(prec ) = 0.47238E+01
  weight for this iteration     100.00

 eigenvalues of (default mixing * dielectric matrix)
  average eigenvalue GAMMA=   0.6730
  2.1718  0.5976  0.5976  0.2828  0.2828  0.1054

 Free energy of the ion-electron system (eV)
  ---------------------------------------------------
  alpha Z        PSCENC =      2711.68499749
  Ewald energy   TEWEN  =    175210.29922994
  -Hartree energ DENC   =   -238977.97036546
  -exchange      EXHF   =         0.00000000
  -V(xc)+E(xc)   XCENC  =       279.34181214
  PAW double counting   =     75207.06971869   -73208.78884885
  entropy T*S    EENTRO =        -0.01506403
  eigenvalues    EBANDS =       -20.22255406
  atomic energy  EATOM  =     58341.73154849
  Solvation  Ediel_sol  =         0.00000000
  ---------------------------------------------------
  free energy    TOTEN  =      -456.86952565 eV

  energy without entropy =     -456.85446162  energy(sigma->0) =     -456.86450430


--------------------------------------------------------------------------------------------------------




--------------------------------------- Iteration      1(  12)  ---------------------------------------


    POTLOK:  cpu time    0.4024: real time    0.4033
    SETDIJ:  cpu time    0.0354: real time    0.0355
    EDDIAG:  cpu time   10.5445: real time   10.5737
  RMM-DIIS:  cpu time   37.0231: real time   37.1241
    ORTHCH:  cpu time    1.2252: real time    1.2285
       DOS:  cpu time    0.0021: real time    0.0021
    CHARGE:  cpu time    4.1893: real time    4.2007
    MIXING:  cpu time    0.0122: real time    0.0122
    --------------------------------------------
      LOOP:  cpu time   53.4343: real time   53.5801

 eigenvalue-minimisations  :  8537
 total energy-change (2. order) : 0.2293022E+01  (-0.6026098E+00)
 number of electron     801.0000035 magnetization      52.5177237
 augmentation part      247.7860136 magnetization      34.5784576

 Broyden mixing:
  rms(total) = 0.17445E+01    rms(broyden)= 0.17445E+01
  rms(prec ) = 0.19811E+01
  weight for this iteration     100.00

 eigenvalues of (default mixing * dielectric matrix)
  average eigenvalue GAMMA=   0.6717
  2.0295  0.8252  0.8252  0.3545  0.2806  0.2806  0.1063

 Free energy of the ion-electron system (eV)
  ---------------------------------------------------
  alpha Z        PSCENC =      2711.68499749
  Ewald energy   TEWEN  =    175210.29922994
  -Hartree energ DENC   =   -238976.42863555
  -exchange      EXHF   =         0.00000000
  -V(xc)+E(xc)   XCENC  =       278.68965237
  PAW double counting   =     74530.62374906   -72521.80022619
  entropy T*S    EENTRO =         0.05892791
  eigenvalues    EBANDS =       -29.43574727
  atomic energy  EATOM  =     58341.73154849
  Solvation  Ediel_sol  =         0.00000000
  ---------------------------------------------------
  free energy    TOTEN  =      -454.57650375 eV

  energy without entropy =     -454.63543166  energy(sigma->0) =     -454.59614639


--------------------------------------------------------------------------------------------------------




--------------------------------------- Iteration      1(  13)  ---------------------------------------


    POTLOK:  cpu time    0.3971: real time    0.3984
    SETDIJ:  cpu time    0.0349: real time    0.0349
    EDDIAG:  cpu time   10.5707: real time   10.5995
  RMM-DIIS:  cpu time   37.0573: real time   37.1584
    ORTHCH:  cpu time    1.1104: real time    1.1134
       DOS:  cpu time    0.0021: real time    0.0021
    CHARGE:  cpu time    4.1991: real time    4.2107
    MIXING:  cpu time    0.0130: real time    0.0131
    --------------------------------------------
      LOOP:  cpu time   53.3846: real time   53.5305

 eigenvalue-minimisations  :  8533
 total energy-change (2. order) :-0.3583906E+01  (-0.3661612E+00)
 number of electron     801.0000036 magnetization      50.4424782
 augmentation part      247.5150419 magnetization      33.1905389

 Broyden mixing:
  rms(total) = 0.21341E+01    rms(broyden)= 0.21341E+01
  rms(prec ) = 0.26735E+01
  weight for this iteration     100.00

 eigenvalues of (default mixing * dielectric matrix)
  average eigenvalue GAMMA=   0.6450
  2.0115  0.9042  0.9042  0.1064  0.3474  0.3474  0.3063  0.2328

 Free energy of the ion-electron system (eV)
  ---------------------------------------------------
  alpha Z        PSCENC =      2711.68499749
  Ewald energy   TEWEN  =    175210.29922994
  -Hartree energ DENC   =   -238998.46775941
  -exchange      EXHF   =         0.00000000
  -V(xc)+E(xc)   XCENC  =       277.90017231
  PAW double counting   =     74226.31933380   -72213.73307817
  entropy T*S    EENTRO =         0.09521184
  eigenvalues    EBANDS =       -13.99006618
  atomic energy  EATOM  =     58341.73154849
  Solvation  Ediel_sol  =         0.00000000
  ---------------------------------------------------
  free energy    TOTEN  =      -458.16040989 eV

  energy without entropy =     -458.25562173  energy(sigma->0) =     -458.19214717


--------------------------------------------------------------------------------------------------------




--------------------------------------- Iteration      1(  14)  ---------------------------------------


    POTLOK:  cpu time    0.4301: real time    0.4312
    SETDIJ:  cpu time    0.0419: real time    0.0420
    EDDIAG:  cpu time   10.6205: real time   10.6497
  RMM-DIIS:  cpu time   37.2207: real time   37.3190
    ORTHCH:  cpu time    1.1126: real time    1.1152
       DOS:  cpu time    0.0021: real time    0.0021
    CHARGE:  cpu time    4.2424: real time    4.2524
    MIXING:  cpu time    0.0126: real time    0.0126
    --------------------------------------------
      LOOP:  cpu time   53.6828: real time   53.8243

 eigenvalue-minimisations  :  8532
 total energy-change (2. order) : 0.4360259E+00  (-0.8097438E-01)
 number of electron     801.0000035 magnetization      47.9432831
 augmentation part      247.4728163 magnetization      29.3827394

 Broyden mixing:
  rms(total) = 0.11606E+01    rms(broyden)= 0.11606E+01
  rms(prec ) = 0.14644E+01
  weight for this iteration     100.00

 eigenvalues of (default mixing * dielectric matrix)
  average eigenvalue GAMMA=   0.6735
  1.9876  1.0770  1.0770  0.4976  0.4976  0.2838  0.2673  0.2673  0.1063

 Free energy of the ion-electron system (eV)
  ---------------------------------------------------
  alpha Z        PSCENC =      2711.68499749
  Ewald energy   TEWEN  =    175210.29922994
  -Hartree energ DENC   =   -239023.45400573
  -exchange      EXHF   =         0.00000000
  -V(xc)+E(xc)   XCENC  =       276.69368399
  PAW double counting   =     74416.75223872   -72407.02263982
  entropy T*S    EENTRO =         0.09363813
  eigenvalues    EBANDS =        15.49692477
  atomic energy  EATOM  =     58341.73154849
  Solvation  Ediel_sol  =         0.00000000
  ---------------------------------------------------
  free energy    TOTEN  =      -457.72438402 eV

  energy without entropy =     -457.81802215  energy(sigma->0) =     -457.75559673


--------------------------------------------------------------------------------------------------------




--------------------------------------- Iteration      1(  15)  ---------------------------------------


    POTLOK:  cpu time    0.3988: real time    0.3998
    SETDIJ:  cpu time    0.0353: real time    0.0354
    EDDIAG:  cpu time   10.6600: real time   10.6884
  RMM-DIIS:  cpu time   37.0729: real time   37.1740
    ORTHCH:  cpu time    1.1041: real time    1.1070
       DOS:  cpu time    0.0022: real time    0.0022
    CHARGE:  cpu time    4.2513: real time    4.2628
    MIXING:  cpu time    0.0129: real time    0.0129
    --------------------------------------------
      LOOP:  cpu time   53.5375: real time   53.6825

 eigenvalue-minimisations  :  8522
 total energy-change (2. order) :-0.4337602E+01  (-0.2296814E+00)
 number of electron     801.0000035 magnetization      45.7320908
 augmentation part      247.2970505 magnetization      27.8335195

 Broyden mixing:
  rms(total) = 0.99717E+00    rms(broyden)= 0.99717E+00
  rms(prec ) = 0.11655E+01
  weight for this iteration     100.00

 eigenvalues of (default mixing * dielectric matrix)
  average eigenvalue GAMMA=   0.6925
  1.5754  1.4378  1.4378  0.5643  0.5643  0.4451  0.1063  0.2763  0.2763  0.2415

 Free energy of the ion-electron system (eV)
  ---------------------------------------------------
  alpha Z        PSCENC =      2711.68499749
  Ewald energy   TEWEN  =    175210.29922994
  -Hartree energ DENC   =   -239044.14692700
  -exchange      EXHF   =         0.00000000
  -V(xc)+E(xc)   XCENC  =       274.36579690
  PAW double counting   =     74369.22572582   -72359.39875473
  entropy T*S    EENTRO =         0.05866193
  eigenvalues    EBANDS =        34.11773489
  atomic energy  EATOM  =     58341.73154849
  Solvation  Ediel_sol  =         0.00000000
  ---------------------------------------------------
  free energy    TOTEN  =      -462.06198626 eV

  energy without entropy =     -462.12064819  energy(sigma->0) =     -462.08154024


--------------------------------------------------------------------------------------------------------




--------------------------------------- Iteration      1(  16)  ---------------------------------------


    POTLOK:  cpu time    0.3851: real time    0.3863
    SETDIJ:  cpu time    0.0357: real time    0.0357
    EDDIAG:  cpu time   10.5338: real time   10.5626
  RMM-DIIS:  cpu time   37.0734: real time   37.1747
    ORTHCH:  cpu time    1.0997: real time    1.1026
       DOS:  cpu time    0.0022: real time    0.0022
    CHARGE:  cpu time    4.2579: real time    4.2696
    MIXING:  cpu time    0.0130: real time    0.0131
    --------------------------------------------
      LOOP:  cpu time   53.4007: real time   53.5469

 eigenvalue-minimisations  :  8522
 total energy-change (2. order) :-0.2471768E+01  (-0.1828189E+00)
 number of electron     801.0000035 magnetization      43.5279449
 augmentation part      247.1185801 magnetization      26.3170381

 Broyden mixing:
  rms(total) = 0.69826E+00    rms(broyden)= 0.69826E+00
  rms(prec ) = 0.74567E+00
  weight for this iteration     100.00

 eigenvalues of (default mixing * dielectric matrix)
  average eigenvalue GAMMA=   0.7267
  2.0308  2.0308  0.8274  0.8274  0.5702  0.5702  0.1063  0.2771  0.2771  0.2380
  0.2380

 Free energy of the ion-electron system (eV)
  ---------------------------------------------------
  alpha Z        PSCENC =      2711.68499749
  Ewald energy   TEWEN  =    175210.29922994
  -Hartree energ DENC   =   -239045.86808994
  -exchange      EXHF   =         0.00000000
  -V(xc)+E(xc)   XCENC  =       273.04653819
  PAW double counting   =     74218.55493638   -72206.86610664
  entropy T*S    EENTRO =         0.09927692
  eigenvalues    EBANDS =        32.78391517
  atomic energy  EATOM  =     58341.73154849
  Solvation  Ediel_sol  =         0.00000000
  ---------------------------------------------------
  free energy    TOTEN  =      -464.53375401 eV

  energy without entropy =     -464.63303093  energy(sigma->0) =     -464.56684631


--------------------------------------------------------------------------------------------------------




--------------------------------------- Iteration      1(  17)  ---------------------------------------


    POTLOK:  cpu time    0.3877: real time    0.3886
    SETDIJ:  cpu time    0.0357: real time    0.0358
    EDDIAG:  cpu time   10.5533: real time   10.5826
  RMM-DIIS:  cpu time   37.1068: real time   37.2010
    ORTHCH:  cpu time    1.2845: real time    1.2876
       DOS:  cpu time    0.0027: real time    0.0027
    CHARGE:  cpu time    4.2392: real time    4.2492
    MIXING:  cpu time    0.0140: real time    0.0140
    --------------------------------------------
      LOOP:  cpu time   53.6239: real time   53.7614

 eigenvalue-minimisations  :  8519
 total energy-change (2. order) :-0.1535533E+01  (-0.7312486E-01)
 number of electron     801.0000035 magnetization      42.1769225
 augmentation part      247.1181978 magnetization      25.6576743

 Broyden mixing:
  rms(total) = 0.61416E+00    rms(broyden)= 0.61416E+00
  rms(prec ) = 0.65300E+00
  weight for this iteration     100.00

 eigenvalues of (default mixing * dielectric matrix)
  average eigenvalue GAMMA=   0.7203
  2.0886  2.0886  0.8678  0.8678  0.5848  0.5848  0.3558  0.3558  0.1063  0.2619
  0.2619  0.2196

 Free energy of the ion-electron system (eV)
  ---------------------------------------------------
  alpha Z        PSCENC =      2711.68499749
  Ewald energy   TEWEN  =    175210.29922994
  -Hartree energ DENC   =   -239040.58254278
  -exchange      EXHF   =         0.00000000
  -V(xc)+E(xc)   XCENC  =       272.07448063
  PAW double counting   =     74205.91062938   -72193.89780448
  entropy T*S    EENTRO =         0.12400365
  eigenvalues    EBANDS =        26.58617022
  atomic energy  EATOM  =     58341.73154849
  Solvation  Ediel_sol  =         0.00000000
  ---------------------------------------------------
  free energy    TOTEN  =      -466.06928746 eV

  energy without entropy =     -466.19329111  energy(sigma->0) =     -466.11062201


--------------------------------------------------------------------------------------------------------




--------------------------------------- Iteration      1(  18)  ---------------------------------------


    POTLOK:  cpu time    0.3854: real time    0.3863
    SETDIJ:  cpu time    0.0356: real time    0.0357
    EDDIAG:  cpu time   10.5261: real time   10.5510
  RMM-DIIS:  cpu time   37.1410: real time   37.2300
    ORTHCH:  cpu time    1.1432: real time    1.1459
       DOS:  cpu time    0.0021: real time    0.0021
    CHARGE:  cpu time    4.2142: real time    4.2242
    MIXING:  cpu time    0.0138: real time    0.0139
    --------------------------------------------
      LOOP:  cpu time   53.4613: real time   53.5889

 eigenvalue-minimisations  :  8525
 total energy-change (2. order) :-0.5568799E+00  (-0.1818174E-01)
 number of electron     801.0000035 magnetization      39.8572755
 augmentation part      247.1328444 magnetization      23.5137468

 Broyden mixing:
  rms(total) = 0.52578E+00    rms(broyden)= 0.52578E+00
  rms(prec ) = 0.56285E+00
  weight for this iteration     100.00

 eigenvalues of (default mixing * dielectric matrix)
  average eigenvalue GAMMA=   0.7394
  2.1669  2.1669  1.0191  1.0191  0.6218  0.6218  0.4335  0.4335  0.1063  0.2733
  0.2733  0.2536  0.2229

 Free energy of the ion-electron system (eV)
  ---------------------------------------------------
  alpha Z        PSCENC =      2711.68499749
  Ewald energy   TEWEN  =    175210.29922994
  -Hartree energ DENC   =   -239039.39322066
  -exchange      EXHF   =         0.00000000
  -V(xc)+E(xc)   XCENC  =       271.55517699
  PAW double counting   =     74255.20507714   -72243.58949118
  entropy T*S    EENTRO =         0.11672226
  eigenvalues    EBANDS =        25.76379214
  atomic energy  EATOM  =     58341.73154849
  Solvation  Ediel_sol  =         0.00000000
  ---------------------------------------------------
  free energy    TOTEN  =      -466.62616738 eV

  energy without entropy =     -466.74288965  energy(sigma->0) =     -466.66507481


--------------------------------------------------------------------------------------------------------




--------------------------------------- Iteration      1(  19)  ---------------------------------------


    POTLOK:  cpu time    0.3858: real time    0.3867
    SETDIJ:  cpu time    0.0353: real time    0.0354
    EDDIAG:  cpu time   10.6526: real time   10.6778
  RMM-DIIS:  cpu time   37.0580: real time   37.1455
    ORTHCH:  cpu time    1.1082: real time    1.1108
       DOS:  cpu time    0.0020: real time    0.0020
    CHARGE:  cpu time    4.2007: real time    4.2107
    MIXING:  cpu time    0.0145: real time    0.0146
    --------------------------------------------
      LOOP:  cpu time   53.4572: real time   53.5835

 eigenvalue-minimisations  :  8505
 total energy-change (2. order) :-0.8046691E+00  (-0.2457836E-01)
 number of electron     801.0000035 magnetization      36.8468969
 augmentation part      247.1671583 magnetization      20.7180746

 Broyden mixing:
  rms(total) = 0.39187E+00    rms(broyden)= 0.39187E+00
  rms(prec ) = 0.42206E+00
  weight for this iteration     100.00

 eigenvalues of (default mixing * dielectric matrix)
  average eigenvalue GAMMA=   0.7955
  2.9242  2.0483  1.2267  1.2267  0.6053  0.6053  0.5483  0.5483  0.1063  0.2764
  0.2764  0.2624  0.2624  0.2193

 Free energy of the ion-electron system (eV)
  ---------------------------------------------------
  alpha Z        PSCENC =      2711.68499749
  Ewald energy   TEWEN  =    175210.29922994
  -Hartree energ DENC   =   -239037.56986318
  -exchange      EXHF   =         0.00000000
  -V(xc)+E(xc)   XCENC  =       270.72972073
  PAW double counting   =     74341.07511734   -72330.06009078
  entropy T*S    EENTRO =         0.08725594
  eigenvalues    EBANDS =        24.59124754
  atomic energy  EATOM  =     58341.73154849
  Solvation  Ediel_sol  =         0.00000000
  ---------------------------------------------------
  free energy    TOTEN  =      -467.43083648 eV

  energy without entropy =     -467.51809241  energy(sigma->0) =     -467.45992179


--------------------------------------------------------------------------------------------------------




--------------------------------------- Iteration      1(  20)  ---------------------------------------


    POTLOK:  cpu time    0.3847: real time    0.3857
    SETDIJ:  cpu time    0.0355: real time    0.0355
    EDDIAG:  cpu time   10.6559: real time   10.6850
  RMM-DIIS:  cpu time   37.0814: real time   37.1832
    ORTHCH:  cpu time    1.1290: real time    1.1316
       DOS:  cpu time    0.0021: real time    0.0021
[...]
   0.126E+00 -.309E+00 0.267E+04   -.101E+00 0.265E+00 -.267E+04   -.311E-01 0.621E-01 -.758E+00   0.205E-03 0.131E-02 -.434E-03
   -.836E+00 0.182E+01 0.267E+04   0.830E+00 -.176E+01 -.267E+04   0.224E-01 -.844E-01 -.748E+00   -.840E-04 0.470E-03 -.311E-03
   0.193E+00 0.608E+00 0.267E+04   -.167E+00 -.635E+00 -.267E+04   -.364E-01 0.281E-01 -.757E+00   0.873E-03 0.109E-02 -.758E-03
   0.162E+00 -.708E+00 0.135E+04   -.161E+00 0.706E+00 -.135E+04   -.602E-02 0.302E-01 -.585E+00   0.126E-02 0.542E-04 -.377E-02
   -.867E+00 0.396E+00 0.135E+04   0.876E+00 -.383E+00 -.135E+04   -.530E-02 -.241E-01 -.545E+00   0.146E-03 -.207E-02 -.191E-02
   -.109E-02 -.333E+00 -.135E+04   -.678E-02 0.331E+00 0.135E+04   0.847E-02 0.267E-01 0.539E+00   -.106E-02 -.171E-02 0.189E-02
   -.143E+01 -.726E+00 0.267E+04   0.141E+01 0.660E+00 -.266E+04   0.422E-01 0.973E-01 -.705E+00   -.108E-02 0.262E-03 -.135E-02
   0.534E+00 -.125E+00 0.136E+04   -.509E+00 0.114E+00 -.136E+04   -.175E-01 0.217E-01 -.529E+00   -.161E-02 -.330E-03 -.285E-02
   -.380E-01 0.420E+00 0.300E+01   0.379E-01 -.418E+00 -.295E+01   0.450E-03 -.465E-02 -.359E-01   -.876E-03 0.113E-02 -.219E-02
   -.142E+00 0.105E+00 -.134E+04   0.126E+00 -.866E-01 0.134E+04   0.231E-01 -.359E-01 0.556E+00   -.331E-03 0.628E-04 0.177E-02
   0.171E+01 0.190E+01 -.135E+04   -.178E+01 -.194E+01 0.135E+04   0.791E-01 0.192E-01 0.587E+00   -.843E-05 0.334E-03 0.124E-02
   0.762E-01 -.375E+00 -.135E+04   0.102E+00 0.478E+00 0.135E+04   -.185E+00 -.847E-01 0.362E+00   0.686E-03 -.135E-02 0.306E-02
   0.835E+00 -.914E+00 0.267E+04   -.816E+00 0.894E+00 -.267E+04   -.216E-01 0.225E-01 -.707E+00   0.718E-03 -.992E-03 -.139E-02
   -.423E-01 -.113E+00 0.267E+04   0.601E-01 0.115E+00 -.267E+04   0.268E-02 0.731E-02 -.753E+00   -.840E-03 -.121E-02 -.279E-03
   0.168E+00 0.175E+00 0.267E+04   -.195E+00 -.173E+00 -.266E+04   0.311E-01 -.131E-01 -.693E+00   0.258E-02 0.378E-03 -.146E-02
   0.365E+00 -.403E+00 0.136E+04   -.368E+00 0.401E+00 -.136E+04   -.148E-01 0.121E-01 -.542E+00   0.636E-03 -.676E-03 -.238E-02
   -.173E-01 0.150E+00 0.436E+01   0.147E-01 -.151E+00 -.435E+01   0.134E-01 0.657E-02 -.104E-01   -.755E-03 0.394E-04 -.260E-02
   -.518E+00 0.475E+00 0.135E+04   0.530E+00 -.484E+00 -.135E+04   0.157E-02 -.693E-02 -.539E+00   -.419E-03 0.130E-02 -.185E-02
   0.728E+00 -.684E-01 0.135E+04   -.721E+00 0.601E-01 -.135E+04   -.340E-01 0.137E-01 -.515E+00   -.433E-03 0.510E-03 -.376E-02
   -.159E+00 -.285E+00 -.135E+04   0.153E+00 0.943E-01 0.135E+04   0.842E-02 0.199E+00 0.378E+00   -.342E-03 -.310E-03 0.796E-03
   -.819E-01 -.400E+00 0.267E+04   0.852E-01 0.399E+00 -.267E+04   -.161E-02 0.213E-01 -.680E+00   -.203E-03 -.168E-02 -.389E-03
   0.453E+00 0.230E+00 0.136E+04   -.450E+00 -.231E+00 -.135E+04   -.322E-01 -.698E-02 -.587E+00   -.869E-03 -.228E-03 -.213E-02
   -.766E-01 0.123E+01 0.419E+01   0.720E-01 -.122E+01 -.421E+01   0.497E-02 -.157E-01 0.582E-01   -.882E-03 -.988E-03 -.119E-02
   0.431E-02 0.500E+00 -.266E+04   -.138E-01 -.488E+00 0.266E+04   0.224E-01 -.682E-02 0.631E+00   0.412E-03 0.246E-02 0.180E-02
   0.425E+01 0.867E+00 -.266E+04   -.420E+01 -.876E+00 0.266E+04   -.555E-01 0.136E-01 0.645E+00   0.112E-02 -.116E-02 0.264E-02
   0.156E+01 -.424E+01 -.266E+04   -.151E+01 0.422E+01 0.266E+04   -.710E-01 0.253E-01 0.675E+00   -.748E-03 0.610E-03 0.201E-02
   -.405E+01 0.109E+01 -.266E+04   0.399E+01 -.109E+01 0.266E+04   0.744E-01 -.179E-02 0.651E+00   -.212E-02 -.158E-02 0.227E-02
   -.121E+01 -.408E+01 -.266E+04   0.117E+01 0.406E+01 0.266E+04   0.609E-01 0.322E-01 0.676E+00   0.318E-04 -.351E-04 0.224E-02
   -.450E+01 0.452E+01 -.266E+04   0.442E+01 -.443E+01 0.266E+04   0.120E+00 -.117E+00 0.655E+00   -.169E-02 0.756E-03 0.160E-02
   -.197E-01 0.101E+01 -.266E+04   0.589E-02 -.100E+01 0.266E+04   0.178E-01 -.131E-01 0.670E+00   -.906E-03 -.114E-03 0.164E-02
   -.563E+00 0.902E+00 -.266E+04   0.536E+00 -.881E+00 0.266E+04   0.286E-01 -.175E-01 0.628E+00   0.334E-03 0.190E-02 0.207E-02
   0.393E+00 -.185E+01 -.266E+04   -.386E+00 0.183E+01 0.266E+04   -.132E-01 0.498E-01 0.637E+00   -.127E-03 0.508E-03 0.208E-02
   0.456E+01 0.495E+01 -.266E+04   -.449E+01 -.484E+01 0.266E+04   -.106E+00 -.142E+00 0.657E+00   0.181E-02 0.620E-03 0.222E-02
   -.539E+00 -.125E+02 -.265E+04   0.511E+00 0.133E+02 0.265E+04   0.356E-01 -.742E+00 0.200E+00   0.156E-03 -.854E-03 0.273E-02
   -.948E+01 0.570E+01 -.265E+04   0.101E+02 -.605E+01 0.265E+04   -.674E+00 0.330E+00 0.163E+00   -.468E-03 -.222E-02 0.274E-02
   -.277E+01 0.140E+01 -.265E+04   0.242E+01 -.118E+01 0.265E+04   0.350E+00 -.261E+00 0.807E+00   0.106E-02 0.289E-03 0.240E-02
   -.147E+00 -.304E+01 -.265E+04   0.143E+00 0.265E+01 0.265E+04   0.113E-02 0.395E+00 0.804E+00   0.819E-03 0.126E-02 0.193E-02
   -.910E-01 -.222E+01 -.136E+04   0.893E-01 0.230E+01 0.136E+04   0.591E-03 -.711E-01 0.552E+00   0.106E-02 -.187E-02 0.339E-02
   0.134E+01 -.152E+01 0.267E+04   -.129E+01 0.143E+01 -.267E+04   -.730E-01 0.973E-01 -.752E+00   0.107E-02 0.212E-03 -.762E-03
   -.183E+00 0.149E+00 -.134E+04   0.181E+00 -.121E+00 0.134E+04   0.148E-02 -.320E-01 0.568E+00   0.115E-02 0.821E-03 0.286E-02
   0.432E+00 -.402E+00 0.267E+04   -.440E+00 0.398E+00 -.267E+04   0.121E-01 0.328E-02 -.745E+00   0.198E-02 0.481E-03 -.105E-02
   0.675E-02 -.149E+00 0.135E+04   0.997E-02 0.128E+00 -.135E+04   -.262E-01 0.576E-03 -.549E+00   -.202E-02 0.947E-03 -.235E-02
   -.163E+00 -.580E+00 0.135E+04   0.151E+00 0.560E+00 -.135E+04   0.226E-01 0.175E-01 -.548E+00   0.399E-03 0.142E-02 -.233E-02
   0.727E-01 -.875E-02 -.134E+04   -.693E-01 0.280E-01 0.134E+04   -.912E-02 -.355E-01 0.558E+00   -.114E-02 0.441E-03 0.168E-02
   -.695E+00 -.394E+00 0.267E+04   0.729E+00 0.376E+00 -.267E+04   -.415E-01 0.168E-01 -.699E+00   -.201E-02 -.490E-03 -.972E-03
   0.886E+00 0.106E+00 0.135E+04   -.887E+00 -.840E-01 -.135E+04   0.874E-03 -.226E-01 -.554E+00   -.986E-03 -.106E-02 -.188E-02
   0.887E+01 0.539E+01 -.265E+04   -.960E+01 -.577E+01 0.265E+04   0.735E+00 0.358E+00 0.224E+00   0.146E-02 -.186E-02 0.312E-02
   -.603E-01 0.675E+00 -.124E+01   0.568E-01 -.689E+00 0.134E+01   0.224E-02 0.106E-01 -.808E-01   0.843E-03 0.106E-02 -.256E-02
   0.283E+01 0.142E+01 -.265E+04   -.249E+01 -.119E+01 0.265E+04   -.340E+00 -.249E+00 0.813E+00   -.109E-02 -.703E-03 0.226E-02
   -.869E+00 -.193E+00 0.135E+04   0.853E+00 0.186E+00 -.135E+04   0.270E-01 0.166E-01 -.538E+00   0.160E-02 -.755E-03 -.288E-02
   0.651E-01 -.801E+00 0.135E+04   -.654E-01 0.794E+00 -.135E+04   -.141E-02 0.244E-01 -.536E+00   -.126E-02 -.974E-03 -.181E-02
   0.137E-01 0.154E+00 0.390E+01   -.132E-01 -.157E+00 -.388E+01   -.126E-01 0.755E-02 -.122E-01   0.707E-03 0.108E-02 -.256E-02
   -.115E+00 0.493E+00 -.134E+04   0.914E-01 -.511E+00 0.134E+04   0.324E-01 0.149E-01 0.573E+00   -.991E-03 0.350E-03 0.934E-03
   -.183E+01 0.193E+01 -.136E+04   0.189E+01 -.196E+01 0.135E+04   -.622E-01 0.154E-01 0.577E+00   0.745E-03 0.109E-02 0.135E-02
   -.227E+00 0.927E+00 0.267E+04   0.249E+00 -.927E+00 -.267E+04   -.277E-01 -.168E-01 -.752E+00   -.175E-02 0.357E-03 -.484E-03
   0.572E+00 -.689E-01 0.267E+04   -.575E+00 0.610E-01 -.267E+04   -.165E-01 0.272E-01 -.762E+00   0.172E-02 -.483E-03 -.546E-03
   -.465E+00 0.112E+01 0.135E+04   0.466E+00 -.114E+01 -.135E+04   0.185E-01 -.181E-01 -.520E+00   0.421E-03 -.609E-03 -.273E-02
   -.342E+00 0.258E+00 0.135E+04   0.353E+00 -.266E+00 -.135E+04   0.858E-03 0.158E-02 -.512E+00   0.205E-02 0.997E-03 -.374E-02
   -.136E+01 -.119E+01 0.187E+01   0.136E+01 0.119E+01 -.186E+01   0.631E-03 0.886E-02 0.123E-01   -.658E-03 -.802E-03 -.788E-03
   -.787E-01 -.312E+00 -.135E+04   -.115E+00 0.419E+00 0.135E+04   0.199E+00 -.883E-01 0.363E+00   -.687E-03 -.182E-02 0.284E-02
   0.342E+00 -.990E-02 0.267E+04   -.281E+00 0.193E-02 -.267E+04   -.751E-01 -.183E-02 -.682E+00   -.258E-02 0.128E-03 -.774E-03
   0.588E-01 -.529E+00 0.419E+01   -.743E-01 0.528E+00 -.415E+01   0.182E-01 0.773E-02 -.362E-01   -.234E-03 -.471E-03 -.159E-02
   0.152E-01 0.895E+00 0.389E+01   -.533E-01 -.861E+00 -.393E+01   0.387E-01 -.281E-01 0.505E-01   0.189E-03 -.575E-03 -.214E-02
   0.691E+00 0.264E+00 0.227E+01   -.682E+00 -.326E+00 -.229E+01   -.286E-02 0.549E-01 0.293E-01   -.663E-03 0.100E-02 -.259E-02
   -.140E+00 0.824E+00 0.248E+01   0.169E+00 -.793E+00 -.251E+01   -.263E-01 -.252E-01 0.415E-01   -.119E-03 0.423E-03 -.206E-02
   -.991E-01 -.465E+00 0.367E+01   0.109E+00 0.464E+00 -.362E+01   -.136E-01 0.879E-02 -.394E-01   0.204E-03 -.154E-02 -.157E-02
   0.633E+00 0.386E+00 0.135E+04   -.630E+00 -.388E+00 -.135E+04   -.121E-01 -.131E-01 -.597E+00   0.872E-03 0.117E-02 -.209E-02
   0.569E-02 -.460E+00 0.403E+01   -.801E-02 0.466E+00 -.402E+01   0.779E-03 -.163E-01 0.981E-02   0.911E-03 -.199E-03 -.213E-02
   0.711E-01 0.407E-01 -.134E+04   -.811E-01 -.158E-01 0.134E+04   0.983E-02 -.272E-01 0.569E+00   0.331E-03 0.124E-02 0.270E-02
   -.386E+00 -.576E+00 -.134E+04   0.362E+00 0.565E+00 0.134E+04   0.365E-01 0.250E-01 0.565E+00   -.368E-03 -.330E-03 0.738E-03
   -.367E+00 -.400E+00 0.267E+04   0.377E+00 0.380E+00 -.267E+04   0.497E-03 0.292E-01 -.744E+00   -.683E-03 0.980E-03 -.613E-03
   0.118E+01 0.341E+00 0.267E+04   -.114E+01 -.319E+00 -.267E+04   -.563E-01 -.307E-01 -.756E+00   0.810E-04 -.799E-03 -.450E-03
   -.658E+00 0.339E+00 0.118E+01   0.643E+00 -.398E+00 -.119E+01   0.868E-02 0.533E-01 0.170E-01   0.703E-03 0.194E-02 -.240E-02
   0.137E+01 -.115E+01 0.352E+01   -.138E+01 0.115E+01 -.352E+01   0.765E-02 0.118E-01 0.231E-01   -.110E-02 -.855E-03 -.909E-03
   -.563E+00 0.125E+00 0.136E+04   0.564E+00 -.126E+00 -.135E+04   0.245E-01 -.104E-01 -.550E+00   0.202E-03 0.318E-03 -.235E-02
   0.486E+00 -.763E+00 0.203E+01   -.443E+00 0.776E+00 -.205E+01   -.356E-01 -.940E-02 0.361E-01   0.187E-03 -.575E-03 -.160E-02
   -.516E+00 -.802E+00 0.993E+00   0.470E+00 0.815E+00 -.101E+01   0.347E-01 -.102E-01 0.322E-01   0.155E-02 -.501E-03 -.152E-02
   0.175E+00 -.111E+00 -.316E+03   -.206E+00 0.109E+00 0.318E+03   0.235E-01 -.164E-02 -.154E+01   0.496E-04 -.149E-03 0.946E-04
 -----------------------------------------------------------------------------------------------
   -.477E-01 0.118E-01 0.399E+01   -.231E-12 -.968E-13 0.358E-11   0.280E-01 -.112E-01 -.390E+01   0.180E-03 0.130E-04 -.194E-01
 
 
 POSITION                                       TOTAL-FORCE (eV/Angst)
 -----------------------------------------------------------------------------------
     13.23985      8.17798      7.28946         0.004591      0.019317      0.008778
      5.09666      8.18134      7.28104        -0.009440      0.009754      0.000742
      3.73933      5.82616      7.28284        -0.009103     -0.002777      0.008041
     13.26096      8.15881      0.33508        -0.005283      0.019270     -0.006613
      5.11298      8.16499      0.33776         0.015236     -0.023476     -0.022379
      3.75994      5.80893      0.34099        -0.008449      0.003094     -0.028067
      7.82212      1.89698      2.68782        -0.002844      0.027754     -0.018717
      9.17946      8.95119      2.68863         0.003909     -0.012737     -0.006379
      2.38055      3.47551      7.28635        -0.000067      0.021513      0.005372
      2.39734      3.45595      0.34227         0.017878      0.031003     -0.023177
     10.53697      1.89804      2.68601         0.006047      0.010070      0.010017
     13.24613      5.03851      4.98874         0.000053     -0.002168      0.009226
      3.73650      1.13043      7.28314         0.007696     -0.016969      0.016153
      9.16341      5.82850      7.29514         0.003757     -0.022088      0.037367
      5.10374      3.48058      7.29765        -0.004598      0.017155      0.001317
      3.75911      1.10540      0.34120        -0.002130      0.001533     -0.030001
      9.18634      5.80965      0.34007         0.019275      0.008159     -0.021915
      5.11389      3.46032      0.34242         0.006173     -0.010224     -0.022339
     11.89500      8.95112      2.68655        -0.015833      0.009548      0.007237
     11.88822      7.38920      4.98546         0.009301      0.005939     -0.002120
     13.25268      6.60069      2.68826         0.013387     -0.015554      0.011309
      9.18124      4.24885      2.68838        -0.026043      0.005446      0.021867
      7.81031      8.17532      7.28881         0.002177      0.006329      0.005852
      7.82892      8.15831      0.34077         0.001217      0.018776     -0.022356
     10.53847      6.60054      2.68678        -0.029929     -0.007892     -0.018524
      2.38570      0.33743      4.98190        -0.000738     -0.000842      0.028043
     14.59471      8.97267      9.64823         0.014615      0.008077     -0.029489
      3.73151      4.26975      9.64109        -0.003851      0.004442     -0.011054
      6.44903      8.97892      9.62880        -0.024413      0.000939      0.018015
     11.88429      4.27026      9.63935         0.012356     -0.002234     -0.006994
      9.16748      8.97818      9.62891         0.017794      0.007852      0.018782
     10.51913      1.91669      9.63672         0.034622     -0.020600     -0.002565
      2.37721      1.91961      9.64132         0.003186     -0.001445     -0.023445
     11.87763      8.97319      9.64828         0.001063      0.005922     -0.030019
     13.23827      6.61474      9.64592        -0.006113      0.027756     -0.014732
      5.09642      1.91853      9.63958        -0.034134     -0.028842     -0.002512
      7.80632      6.65735      9.67799         0.007568      0.031998      0.035904
      9.19811      4.25662      9.68543         0.001522     -0.027888      0.028088
      5.07057      6.63814      9.62219        -0.000410     -0.029550      0.027947
      7.80801      1.89390      9.62669        -0.001341      0.001957      0.015989
      7.81130      3.48266      7.30217         0.000445      0.010859      0.018245
      7.83361      3.45501      0.33888        -0.019971      0.013769     -0.018063
      6.45209      1.12647      7.28360         0.001945     -0.001395      0.004067
      6.47133      1.10903      0.33724         0.005110      0.000456     -0.021857
     11.89516      4.24994      2.69001        -0.011246     -0.019900      0.000359
      3.75030      4.24868      2.69210         0.010063     -0.001451      0.001083
      1.02432      1.13047      7.28143        -0.007392     -0.015867      0.017630
      1.04212      1.10534      0.33711        -0.009138     -0.001717     -0.019905
      6.46463      8.95151      2.68979        -0.001602     -0.000995     -0.015197
      6.41896      4.25706      9.68509        -0.002331     -0.025896      0.030502
      7.81603      5.03747      4.99398        -0.000015     -0.002736      0.015116
     10.54475      6.63709      9.61906        -0.000063     -0.023909      0.031287
      5.10673      1.89832      2.69082         0.012811      0.009692      0.004956
      2.39206      1.89658      2.69003        -0.002990      0.015390     -0.090254
     14.60339      7.38909      4.98639        -0.009938      0.005468     -0.001081
     11.88268      5.82624      7.28136         0.006044     -0.003087      0.006688
      6.45777      5.82860      7.29710        -0.000085     -0.023602      0.035397
     11.90328      5.81190      0.33786        -0.007032     -0.015376     -0.026867
      6.47361      5.80809      0.34072        -0.017988      0.018792     -0.023913
      7.82158      6.60008      2.69018         0.019654     -0.029638      0.009819
      6.46647      4.24923      2.68967         0.014206     -0.006032      0.028446
      3.74375      2.68724      4.98730         0.000615      0.005445      0.011165
     10.51807      3.48098      7.29526         0.004026      0.017533      0.004982
     10.54781      3.46059      0.33617        -0.016597     -0.009165     -0.011905
     10.52970      0.33571      4.98682         0.002758      0.006885      0.004020
      9.17209      7.38851      4.98392         0.000837      0.006326      0.013654
     10.52866      5.03769      4.98685         0.005824     -0.006856      0.010295
      6.45907      7.38849      4.98624         0.002998      0.006627      0.013501
      5.10146      0.33549      4.98773        -0.003079      0.006661      0.005126
      5.10888      6.60100      2.68955        -0.008003     -0.013040     -0.025009
      7.81537      0.33511      4.98501         0.000047     -0.007430      0.015234
      9.16858      1.12615      7.28224        -0.000410      0.001081      0.004696
     10.52356      8.18092      7.27950         0.011014      0.012274      0.002171
      9.18563      1.10733      0.33405         0.009519      0.009388     -0.018897
     10.54699      8.16248      0.33544        -0.019300     -0.008565     -0.022226
      5.10346      5.03734      4.98922        -0.005668     -0.004878      0.009157
     11.88766      2.68735      4.98436        -0.001009      0.004603      0.012909
     14.60792      8.95243      2.68762         0.025115     -0.009702      0.000893
      9.17237      2.68809      4.98719         0.008574      0.003461      0.011511
      6.45998      2.68822      4.98904        -0.009687      0.002619      0.010640
      7.81731      5.05804     10.62935        -0.006766     -0.004409     -0.011025
 -----------------------------------------------------------------------------------
    total drift:                               -0.019457      0.000595      0.063823


--------------------------------------------------------------------------------------------------------



  FREE ENERGIE OF THE ION-ELECTRON SYSTEM (eV)
  ---------------------------------------------------
  free  energy   TOTEN  =      -519.54862643 eV

  energy  without entropy=     -519.47697213  energy(sigma->0) =     -519.52474166
 
 d Force = 0.3096447E-02[ 0.158E-02, 0.461E-02]  d Energy = 0.4257083E-02-0.116E-02
 d Force = 0.2074830E+02[ 0.207E+02, 0.208E+02]  d Ewald  = 0.2074828E+02 0.179E-04


--------------------------------------------------------------------------------------------------------


    POTLOK:  cpu time    0.4408: real time    0.4421


--------------------------------------------------------------------------------------------------------


 Conjugate gradient step on ions:
 trial-energy change:   -0.004257  1 .order   -0.003096   -0.004609   -0.001584
  (g-gl).g = 0.391E-03      g.g   = 0.466E-02  gl.gl    = 0.134E-01
 g(Force)  = 0.466E-02   g(Stress)= 0.000E+00 ortho     = 0.340E-03
 gamma     =   0.02918
 trial     =   0.98719
 opt step  =   1.12944  (harmonic =   1.50413) maximal distance =0.00423192
 next E    =  -519.548744   (d E  =  -0.00437)


--------------------------------------------------------------------------------------------------------


  
 reached required accuracy - stopping structural energy minimisation
     LOOP+:  cpu time  962.1387: real time  964.6072
    4ORBIT:  cpu time    0.0000: real time    0.0000

 total amount of memory used by VASP MPI-rank0   243996. kBytes
=======================================================================

   base      :      30000. kBytes
   nonlr-proj:      34744. kBytes
   fftplans  :      17974. kBytes
   grid      :      46451. kBytes
   one-center:        653. kBytes
   wavefun   :     114174. kBytes
 
  
  
 General timing and accounting informations for this job:
 ========================================================
  
                  Total CPU time used (sec):    13108.423
                            User time (sec):    13098.743
                          System time (sec):        9.680
                         Elapsed time (sec):    13145.362
  
                   Maximum memory used (kb):      909012.
                   Average memory used (kb):           0.
  
                          Minor page faults:      2798119
                          Major page faults:            0
                 Voluntary context switches:         6871
