 vasp.5.4.4.18Apr17-6-g9f103f2a35 (build Nov 30 2020 22:55:02) complex          
  
 executed on             LinuxIFC date 2023.07.29  23:16:57
 running on   40 total cores
 distrk:  each k-point on   40 cores,    1 groups
 distr:  one band on NCORES_PER_BAND=   4 cores,   10 groups


--------------------------------------------------------------------------------------------------------


 INCAR:
 POTCAR:    PAW_PBE Pt 04Feb2005                  
 POTCAR:    PAW_PBE Cu 22Jun2005                  
 POTCAR:    PAW_PBE Ni 02Aug2007                  
 POTCAR:    PAW_PBE Fe 06Sep2000                  
 POTCAR:    PAW_PBE Co 02Aug2007                  
 POTCAR:    PAW_PBE H 15Jun2001                   
 POTCAR:    PAW_PBE Pt 04Feb2005                  
   VRHFIN =Pt: s1d9                                                             
   LEXCH  = PE                                                                  
   EATOM  =   729.1176 eV,   53.5886 Ry                                         
                                                                                
   TITEL  = PAW_PBE Pt 04Feb2005                                                
   LULTRA =        F    use ultrasoft PP ?                                      
   IUNSCR =        1    unscreen: 0-lin 1-nonlin 2-no                           
   RPACOR =    2.330    partial core radius                                     
   POMASS =  195.080; ZVAL   =   10.000    mass and valenz                      
   RCORE  =    2.600    outmost cutoff radius                                   
   RWIGS  =    2.750; RWIGS  =    1.455    wigner-seitz radius (au A)           
   ENMAX  =  230.283; ENMIN  =  172.712 eV                                      
   ICORE  =        3    local potential                                         
   LCOR   =        T    correct aug charges                                     
   LPAW   =        T    paw PP                                                  
   EAUG   =  358.966                                                            
   DEXC   =    0.000                                                            
   RMAX   =    2.658    core radius for proj-oper                               
   RAUG   =    1.300    factor for augmentation sphere                          
   RDEP   =    2.761    radius for radial grids                                 
   RDEPT  =    2.203    core radius for aug-charge                              
                                                                                
   Atomic configuration                                                         
   16 entries                                                                   
     n  l   j            E        occ.                                          
     1  0  0.50    -78401.1885   2.0000                                         
     2  0  0.50    -13770.7750   2.0000                                         
     2  1  1.50    -11931.0468   6.0000                                         
     3  0  0.50     -3234.7234   2.0000                                         
     3  1  1.50     -2699.2216   6.0000                                         
     3  2  2.50     -2119.5714  10.0000                                         
     4  0  0.50      -695.1528   2.0000                                         
     4  1  1.50      -519.6034   6.0000                                         
     4  2  2.50      -306.6786  10.0000                                         
     4  3  3.50       -70.1041  14.0000                                         
     5  0  0.50      -101.7747   2.0000                                         
     5  1  1.50       -55.9873   6.0000                                         
     5  2  2.50        -6.1423   9.0000                                         
     6  0  0.50        -5.6573   1.0000                                         
     6  1  1.50        -6.8029   0.0000                                         
     5  3  2.50        -1.3606   0.0000                                         
   Description                                                                  
     l       E           TYP  RCUT    TYP  RCUT                                 
     2     -6.1423404     23  2.500                                             
     2     -7.5029230     23  2.500                                             
     0     -5.6573207     23  2.500                                             
     0      0.7416693     23  2.500                                             
     1     -2.7211652     23  2.600                                             
     1     20.4087390     23  2.600                                             
     3     -1.3605826     23  2.500                                             
  local pseudopotential read in
  partial core-charges read in
  partial kinetic energy density read in
  atomic valenz-charges read in
  non local Contribution for L=           2  read in
    real space projection operators read in
  non local Contribution for L=           2  read in
    real space projection operators read in
  non local Contribution for L=           0  read in
    real space projection operators read in
  non local Contribution for L=           0  read in
    real space projection operators read in
  non local Contribution for L=           1  read in
    real space projection operators read in
  non local Contribution for L=           1  read in
    real space projection operators read in
    PAW grid and wavefunctions read in
 
   number of l-projection  operators is LMAX  =           6
   number of lm-projection operators is LMMAX =          18
 
 POTCAR:    PAW_PBE Cu 22Jun2005                  
   VRHFIN =Cu: d10 p1                                                           
   LEXCH  = PE                                                                  
   EATOM  =  1390.9808 eV,  102.2342 Ry                                         
                                                                                
   TITEL  = PAW_PBE Cu 22Jun2005                                                
   LULTRA =        F    use ultrasoft PP ?                                      
   IUNSCR =        1    unscreen: 0-lin 1-nonlin 2-no                           
   RPACOR =    2.000    partial core radius                                     
   POMASS =   63.546; ZVAL   =   11.000    mass and valenz                      
   RCORE  =    2.300    outmost cutoff radius                                   
   RWIGS  =    2.200; RWIGS  =    1.164    wigner-seitz radius (au A)           
   ENMAX  =  295.446; ENMIN  =  221.585 eV                                      
   ICORE  =        3    local potential                                         
   LCOR   =        T    correct aug charges                                     
   LPAW   =        T    paw PP                                                  
   EAUG   =  586.980                                                            
   DEXC   =    0.000                                                            
   RMAX   =    2.344    core radius for proj-oper                               
   RAUG   =    1.300    factor for augmentation sphere                          
   RDEP   =    2.302    radius for radial grids                                 
   RDEPT  =    1.771    core radius for aug-charge                              
                                                                                
   Atomic configuration                                                         
    9 entries                                                                   
     n  l   j            E        occ.                                          
     1  0  0.50     -8850.2468   2.0000                                         
     2  0  0.50     -1062.3498   2.0000                                         
     2  1  1.50      -916.8226   6.0000                                         
     3  0  0.50      -114.6929   2.0000                                         
     3  1  1.50       -72.1325   6.0000                                         
     3  2  2.50        -5.0394  10.0000                                         
     4  0  0.50        -4.6097   1.0000                                         
     4  1  0.50        -4.0817   0.0000                                         
     4  3  2.50        -1.3606   0.0000                                         
   Description                                                                  
     l       E           TYP  RCUT    TYP  RCUT                                 
     2     -5.0393973     23  2.200                                             
     2     10.8846608     23  2.200                                             
     0     -4.6097109     23  2.200                                             
     0      8.2520465     23  2.200                                             
     1     -2.7211652     23  2.200                                             
     1     21.7055443     23  2.200                                             
     3      2.7211652     23  2.300                                             
  local pseudopotential read in
  partial core-charges read in
  partial kinetic energy density read in
  atomic valenz-charges read in
  non local Contribution for L=           2  read in
    real space projection operators read in
  non local Contribution for L=           2  read in
    real space projection operators read in
  non local Contribution for L=           0  read in
    real space projection operators read in
  non local Contribution for L=           0  read in
    real space projection operators read in
  non local Contribution for L=           1  read in
    real space projection operators read in
  non local Contribution for L=           1  read in
    real space projection operators read in
    PAW grid and wavefunctions read in
 
   number of l-projection  operators is LMAX  =           6
   number of lm-projection operators is LMMAX =          18
 
 POTCAR:    PAW_PBE Ni 02Aug2007                  
   VRHFIN =Ni:                                                                  
   LEXCH  = PE                                                                  
   EATOM  =  1077.6739 eV,   79.2068 Ry                                         
                                                                                
   TITEL  = PAW_PBE Ni 02Aug2007                                                
   LULTRA =        F    use ultrasoft PP ?                                      
   IUNSCR =        1    unscreen: 0-lin 1-nonlin 2-no                           
   RPACOR =    2.000    partial core radius                                     
   POMASS =   58.690; ZVAL   =   10.000    mass and valenz                      
   RCORE  =    2.300    outmost cutoff radius                                   
   RWIGS  =    2.430; RWIGS  =    1.286    wigner-seitz radius (au A)           
   ENMAX  =  269.532; ENMIN  =  202.149 eV                                      
   RCLOC  =    1.201    cutoff for local pot                                    
   LCOR   =        T    correct aug charges                                     
   LPAW   =        T    paw PP                                                  
   EAUG   =  544.565                                                            
   DEXC   =    0.000                                                            
   RMAX   =    2.357    core radius for proj-oper                               
   RAUG   =    1.300    factor for augmentation sphere                          
   RDEP   =    2.390    radius for radial grids                                 
   RDEPT  =    1.838    core radius for aug-charge                              
                                                                                
   Atomic configuration                                                         
    9 entries                                                                   
     n  l   j            E        occ.                                          
     1  0  0.50     -8206.4253   2.0000                                         
     2  0  0.50      -976.1748   2.0000                                         
     2  1  1.50      -839.0571   6.0000                                         
     3  0  0.50      -105.9991   2.0000                                         
     3  1  1.50       -66.4603   6.0000                                         
     3  2  2.50        -4.6458   9.0000                                         
     4  0  0.50        -4.4926   1.0000                                         
     4  1  1.50        -4.0817   0.0000                                         
     4  3  2.50        -1.3606   0.0000                                         
   Description                                                                  
     l       E           TYP  RCUT    TYP  RCUT                                 
     2     -4.6457903     23  2.300                                             
     2     -6.0063729     23  2.300                                             
     0     -4.4925590     23  2.300                                             
     0      5.0102601     23  2.300                                             
     1     -2.7211652     23  2.300                                             
     1     16.5183231     23  2.300                                             
  local pseudopotential read in
  partial core-charges read in
  partial kinetic energy density read in
  atomic valenz-charges read in
  non local Contribution for L=           2  read in
    real space projection operators read in
  non local Contribution for L=           2  read in
    real space projection operators read in
  non local Contribution for L=           0  read in
    real space projection operators read in
  non local Contribution for L=           0  read in
    real space projection operators read in
  non local Contribution for L=           1  read in
    real space projection operators read in
  non local Contribution for L=           1  read in
    real space projection operators read in
    PAW grid and wavefunctions read in
 
   number of l-projection  operators is LMAX  =           6
   number of lm-projection operators is LMMAX =          18
 
 POTCAR:    PAW_PBE Fe 06Sep2000                  
   VRHFIN =Fe:  d7 s1                                                           
   LEXCH  = PE                                                                  
   EATOM  =   594.3153 eV,   43.6809 Ry                                         
                                                                                
   TITEL  = PAW_PBE Fe 06Sep2000                                                
   LULTRA =        F    use ultrasoft PP ?                                      
   IUNSCR =        1    unscreen: 0-lin 1-nonlin 2-no                           
   RPACOR =    2.000    partial core radius                                     
   POMASS =   55.847; ZVAL   =    8.000    mass and valenz                      
   RCORE  =    2.300    outmost cutoff radius                                   
   RWIGS  =    2.460; RWIGS  =    1.302    wigner-seitz radius (au A)           
   ENMAX  =  267.882; ENMIN  =  200.911 eV                                      
   RCLOC  =    1.701    cutoff for local pot                                    
   LCOR   =        T    correct aug charges                                     
   LPAW   =        T    paw PP                                                  
   EAUG   =  511.368                                                            
   DEXC   =    0.000                                                            
   RMAX   =    2.356    core radius for proj-oper                               
   RAUG   =    1.300    factor for augmentation sphere                          
   RDEP   =    2.442    radius for radial grids                                 
   RDEPT  =    1.890    core radius for aug-charge                              
                                                                                
   Atomic configuration                                                         
    9 entries                                                                   
     n  l   j            E        occ.                                          
     1  0  0.50     -6993.8440   2.0000                                         
     2  0  0.50      -814.6047   2.0000                                         
     2  1  1.50      -693.3689   6.0000                                         
     3  0  0.50       -89.4732   2.0000                                         
     3  1  1.50       -55.6373   6.0000                                         
     3  2  2.50        -3.8151   7.0000                                         
     4  0  0.50        -4.2551   1.0000                                         
     4  1  1.50        -3.4015   0.0000                                         
     4  3  2.50        -1.3606   0.0000                                         
   Description                                                                  
     l       E           TYP  RCUT    TYP  RCUT                                 
     2     -3.8151135     23  2.300                                             
     2     -5.1756961     23  2.300                                             
     0     -4.2550963     23  2.300                                             
     0      7.2035603     23  2.300                                             
     1     -2.7211652     23  2.300                                             
     1     18.4316424     23  2.300                                             
  local pseudopotential read in
  partial core-charges read in
  partial kinetic energy density read in
  atomic valenz-charges read in
  non local Contribution for L=           2  read in
    real space projection operators read in
  non local Contribution for L=           2  read in
    real space projection operators read in
  non local Contribution for L=           0  read in
    real space projection operators read in
  non local Contribution for L=           0  read in
    real space projection operators read in
  non local Contribution for L=           1  read in
    real space projection operators read in
  non local Contribution for L=           1  read in
    real space projection operators read in
    PAW grid and wavefunctions read in
 
   number of l-projection  operators is LMAX  =           6
   number of lm-projection operators is LMMAX =          18
 
 POTCAR:    PAW_PBE Co 02Aug2007                  
   VRHFIN =Co: d8 s1                                                            
   LEXCH  = PE                                                                  
   EATOM  =   813.3670 eV,   59.7808 Ry                                         
                                                                                
   TITEL  = PAW_PBE Co 02Aug2007                                                
   LULTRA =        F    use ultrasoft PP ?                                      
   IUNSCR =        1    unscreen: 0-lin 1-nonlin 2-no                           
   RPACOR =    2.000    partial core radius                                     
   POMASS =   58.933; ZVAL   =    9.000    mass and valenz                      
   RCORE  =    2.300    outmost cutoff radius                                   
   RWIGS  =    2.460; RWIGS  =    1.302    wigner-seitz radius (au A)           
   ENMAX  =  267.968; ENMIN  =  200.976 eV                                      
   RCLOC  =    1.203    cutoff for local pot                                    
   LCOR   =        T    correct aug charges                                     
   LPAW   =        T    paw PP                                                  
   EAUG   =  477.818                                                            
   DEXC   =    0.000                                                            
   RMAX   =    2.360    core radius for proj-oper                               
   RAUG   =    1.300    factor for augmentation sphere                          
   RDEP   =    2.393    radius for radial grids                                 
   RDEPT  =    1.864    core radius for aug-charge                              
                                                                                
   Atomic configuration                                                         
    9 entries                                                                   
     n  l   j            E        occ.                                          
     1  0  0.50     -7587.6674   2.0000                                         
     2  0  0.50      -893.6084   2.0000                                         
     2  1  1.50      -764.5805   6.0000                                         
     3  0  0.50       -97.5973   2.0000                                         
     3  1  1.50       -60.9648   6.0000                                         
     3  2  2.50        -4.2382   8.0000                                         
     4  0  0.50        -4.3746   1.0000                                         
     4  1  1.50        -4.0817   0.0000                                         
     4  3  2.50        -1.3606   0.0000                                         
   Description                                                                  
     l       E           TYP  RCUT    TYP  RCUT                                 
     2     -4.2382362     23  2.300                                             
     2     -5.5988188     23  2.300                                             
     0     -4.3745797     23  2.300                                             
     0      5.7660125     23  2.300                                             
     1     -2.7211652     23  2.300                                             
     1     16.9860234     23  2.300                                             
  local pseudopotential read in
  partial core-charges read in
  partial kinetic energy density read in
  atomic valenz-charges read in
  non local Contribution for L=           2  read in
    real space projection operators read in
  non local Contribution for L=           2  read in
    real space projection operators read in
  non local Contribution for L=           0  read in
    real space projection operators read in
  non local Contribution for L=           0  read in
    real space projection operators read in
  non local Contribution for L=           1  read in
    real space projection operators read in
  non local Contribution for L=           1  read in
    real space projection operators read in
    PAW grid and wavefunctions read in
 
   number of l-projection  operators is LMAX  =           6
   number of lm-projection operators is LMMAX =          18
 
 POTCAR:    PAW_PBE H 15Jun2001                   
   VRHFIN =H: ultrasoft test                                                    
   LEXCH  = PE                                                                  
   EATOM  =    12.4884 eV,    0.9179 Ry                                         
                                                                                
   TITEL  = PAW_PBE H 15Jun2001                                                 
   LULTRA =        F    use ultrasoft PP ?                                      
   IUNSCR =        0    unscreen: 0-lin 1-nonlin 2-no                           
   RPACOR =    0.000    partial core radius                                     
   POMASS =    1.000; ZVAL   =    1.000    mass and valenz                      
   RCORE  =    1.100    outmost cutoff radius                                   
   RWIGS  =    0.700; RWIGS  =    0.370    wigner-seitz radius (au A)           
   ENMAX  =  250.000; ENMIN  =  200.000 eV                                      
   RCLOC  =    0.701    cutoff for local pot                                    
   LCOR   =        T    correct aug charges                                     
   LPAW   =        T    paw PP                                                  
   EAUG   =  400.000                                                            
   RMAX   =    1.123    core radius for proj-oper                               
   RAUG   =    1.200    factor for augmentation sphere                          
   RDEP   =    1.112    radius for radial grids                                 
   RDEPT  =    0.926    core radius for aug-charge                              
                                                                                
   Atomic configuration                                                         
    2 entries                                                                   
     n  l   j            E        occ.                                          
     1  0  0.50        -6.4927   1.0000                                         
     2  1  0.50        -3.4015   0.0000                                         
   Description                                                                  
     l       E           TYP  RCUT    TYP  RCUT                                 
     0     -6.4927494     23  1.100                                             
     0      6.8029130     23  1.100                                             
     1     -4.0817478     23  1.100                                             
  local pseudopotential read in
  atomic valenz-charges read in
  non local Contribution for L=           0  read in
    real space projection operators read in
  non local Contribution for L=           0  read in
    real space projection operators read in
  non local Contribution for L=           1  read in
    real space projection operators read in
    PAW grid and wavefunctions read in
 
   number of l-projection  operators is LMAX  =           3
   number of lm-projection operators is LMMAX =           5
 
 Optimization of the real space projectors (new method)

 maximal supplied QI-value         = 14.36
 optimisation between [QCUT,QGAM] = [ 11.92, 23.98] = [ 39.79,161.09] Ry 
 Optimized for a Real-space Cutoff    1.49 Angstroem

   l    n(q)    QCUT    max X(q) W(low)/X(q) W(high)/X(q)  e(spline) 
   2     10    11.920    66.195    0.79E-04    0.18E-03    0.24E-06
   2     10    11.920    64.643    0.81E-04    0.19E-03    0.24E-06
   0     11    11.920    95.520    0.28E-04    0.54E-04    0.18E-06
   0     11    11.920    63.403    0.27E-04    0.52E-04    0.17E-06
   1     10    11.920    19.961    0.18E-04    0.11E-03    0.23E-06
   1     10    11.920    13.289    0.25E-04    0.87E-04    0.19E-06
 Optimization of the real space projectors (new method)

 maximal supplied QI-value         = 16.25
 optimisation between [QCUT,QGAM] = [ 11.86, 23.89] = [ 39.41,159.82] Ry 
 Optimized for a Real-space Cutoff    1.49 Angstroem

   l    n(q)    QCUT    max X(q) W(low)/X(q) W(high)/X(q)  e(spline) 
   2     10    11.864     4.610    0.10E-03    0.20E-03    0.29E-06
   2     10    11.864     8.522    0.17E-03    0.33E-03    0.50E-06
   0     11    11.864    51.609    0.52E-04    0.55E-04    0.33E-06
   0     11    11.864    27.747    0.46E-04    0.52E-04    0.31E-06
   1     10    11.864    20.408    0.54E-04    0.25E-04    0.21E-06
   1     10    11.864    13.425    0.48E-04    0.22E-04    0.18E-06
 Optimization of the real space projectors (new method)

 maximal supplied QI-value         = 16.25
 optimisation between [QCUT,QGAM] = [ 11.86, 23.89] = [ 39.41,159.82] Ry 
 Optimized for a Real-space Cutoff    1.33 Angstroem

   l    n(q)    QCUT    max X(q) W(low)/X(q) W(high)/X(q)  e(spline) 
   2      9    11.864    60.317    0.21E-03    0.51E-03    0.25E-06
   2      9    11.864    55.921    0.21E-03    0.51E-03    0.26E-06
   0      9    11.864    51.690    0.22E-03    0.30E-04    0.17E-06
   0      9    11.864    30.015    0.20E-03    0.28E-04    0.15E-06
   1      9    11.864    18.849    0.76E-04    0.33E-03    0.17E-06
   1      9    11.864    14.624    0.60E-04    0.28E-03    0.15E-06
 Optimization of the real space projectors (new method)

 maximal supplied QI-value         = 16.25
 optimisation between [QCUT,QGAM] = [ 11.86, 23.89] = [ 39.41,159.82] Ry 
 Optimized for a Real-space Cutoff    1.49 Angstroem

   l    n(q)    QCUT    max X(q) W(low)/X(q) W(high)/X(q)  e(spline) 
   2     10    11.864    80.901    0.13E-03    0.23E-03    0.37E-06
   2     10    11.864    75.754    0.13E-03    0.23E-03    0.38E-06
   0     11    11.864    58.752    0.44E-04    0.11E-04    0.20E-06
   0     11    11.864    30.679    0.36E-04    0.10E-04    0.18E-06
   1     10    11.864    17.977    0.31E-04    0.45E-04    0.10E-06
   1     10    11.864    13.559    0.25E-04    0.37E-04    0.89E-07
 Optimization of the real space projectors (new method)

 maximal supplied QI-value         = 16.25
 optimisation between [QCUT,QGAM] = [ 11.86, 23.89] = [ 39.41,159.82] Ry 
 Optimized for a Real-space Cutoff    1.33 Angstroem

   l    n(q)    QCUT    max X(q) W(low)/X(q) W(high)/X(q)  e(spline) 
   2      9    11.864    65.824    0.22E-03    0.53E-03    0.26E-06
   2      9    11.864    61.429    0.22E-03    0.53E-03    0.26E-06
   0      9    11.864    56.174    0.21E-03    0.32E-04    0.15E-06
   0      9    11.864    31.263    0.19E-03    0.30E-04    0.14E-06
   1      9    11.864    19.828    0.63E-04    0.30E-03    0.16E-06
   1      9    11.864    15.139    0.49E-04    0.25E-03    0.13E-06
 Optimization of the real space projectors (new method)

 maximal supplied QI-value         = 34.20
 optimisation between [QCUT,QGAM] = [ 11.97, 23.94] = [ 40.13,160.53] Ry 
 Optimized for a Real-space Cutoff    1.18 Angstroem

   l    n(q)    QCUT    max X(q) W(low)/X(q) W(high)/X(q)  e(spline) 
   0      8    11.971    19.460    0.15E-03    0.31E-03    0.25E-06
   0      8    11.971    12.209    0.13E-03    0.29E-03    0.25E-06
   1      8    11.971     4.655    0.22E-03    0.24E-03    0.21E-06
  PAW_PBE Pt 04Feb2005                  :
 energy of atom  1       EATOM= -729.1176
 kinetic energy error for atom=    0.0021 (will be added to EATOM!!)
  PAW_PBE Cu 22Jun2005                  :
 energy of atom  2       EATOM=-1390.9808
 kinetic energy error for atom=    0.0036 (will be added to EATOM!!)
  PAW_PBE Ni 02Aug2007                  :
 energy of atom  3       EATOM=-1077.6739
 kinetic energy error for atom=    0.0027 (will be added to EATOM!!)
  PAW_PBE Fe 06Sep2000                  :
 energy of atom  4       EATOM= -594.3153
 kinetic energy error for atom=    0.0024 (will be added to EATOM!!)
  PAW_PBE Co 02Aug2007                  :
 energy of atom  5       EATOM= -813.3670
 kinetic energy error for atom=    0.0026 (will be added to EATOM!!)
  PAW_PBE H 15Jun2001                   :
 energy of atom  6       EATOM=  -12.4884
 kinetic energy error for atom=    0.0008 (will be added to EATOM!!)
 
 
 POSCAR: 10.56                                   
  positions in direct lattice
  velocities in cartesian coordinates
 exchange correlation table for  LEXCH =        8
   RHO(1)=    0.500       N(1)  =     2000
   RHO(2)=  100.500       N(2)  =     4000
 


--------------------------------------------------------------------------------------------------------


 ion  position               nearest neighbor table
   1  0.790  0.877  0.316-  49 2.55  59 2.56  19 2.63  33 2.66  61 2.67  60 2.67  29 2.68  28 2.69
                             2 2.71   4 2.81  11 2.84  12 2.86
   2  0.044  0.882  0.316-  79 2.55  77 2.56  60 2.62  30 2.64  22 2.65  28 2.66  52 2.68   1 2.71
                            33 2.74   6 2.78   4 2.86  16 2.90
   3  0.287  0.379  0.320-  64 2.57  39 2.60  33 2.60  68 2.64  31 2.65  19 2.68  43 2.69  30 2.71
                            18 2.78   5 2.79  25 2.82  13 2.82
   4  0.869  0.962  0.424-  17 2.61  11 2.62  12 2.66  60 2.68   9 2.68  16 2.72   6 2.76   1 2.81
                             2 2.86
   5  0.124  0.459  0.427-  81 1.73  10 2.60  16 2.61   7 2.62  12 2.63  13 2.63  25 2.67  39 2.78
                            33 2.79   3 2.79
   6  0.129  0.964  0.421-   8 2.59  10 2.60  14 2.66   9 2.68  16 2.75   4 2.76   2 2.78  52 2.80
                            22 2.85
   7  0.875  0.460  0.423-  81 1.75   9 2.61  12 2.61   5 2.62  10 2.63  15 2.63  27 2.67  39 2.70
                            29 2.74  75 2.77
   8  0.377  0.960  0.419-   6 2.59  11 2.60  27 2.61  14 2.64  43 2.64  13 2.64  10 2.66  61 2.67
                            52 2.70
   9  0.873  0.214  0.422-   7 2.61  15 2.61  17 2.64  60 2.65  10 2.65   6 2.68  75 2.68   4 2.68
                            22 2.83
  10  0.125  0.212  0.423-   6 2.60   5 2.60  13 2.62   7 2.63   9 2.65   8 2.66  39 2.73  43 2.74
                            22 2.84
  11  0.622  0.961  0.424-   8 2.60   4 2.62  27 2.62  13 2.63  17 2.66  12 2.66  61 2.81  19 2.83
                             1 2.84
  12  0.874  0.708  0.425-  81 1.71   7 2.61   5 2.63  27 2.63  16 2.66   4 2.66  11 2.66  33 2.75
                            29 2.81   1 2.86
  13  0.374  0.210  0.428-  10 2.62  11 2.63   5 2.63   8 2.64  17 2.65  25 2.65   3 2.82  43 2.84
                            19 2.90
  14  0.378  0.710  0.426-  27 2.60  15 2.62   8 2.64  25 2.64   6 2.66  16 2.67  44 2.74  30 2.79
                            52 2.86
  15  0.625  0.461  0.424-   9 2.61  14 2.62   7 2.63  27 2.64  25 2.64  17 2.65  44 2.74  18 2.77
                            75 2.80
  16  0.127  0.705  0.425-  25 2.60   5 2.61  12 2.66  14 2.67   4 2.72   6 2.75  33 2.75  30 2.79
                             2 2.90
  17  0.624  0.211  0.425-   4 2.61  25 2.63   9 2.64  15 2.65  13 2.65  11 2.66  60 2.73  18 2.77
                            19 2.90
  18  0.554  0.371  0.318-  67 2.54  75 2.55  60 2.56  68 2.60  26 2.67  44 2.68  19 2.72  30 2.75
                            15 2.77  17 2.77   3 2.78  25 2.90
  19  0.537  0.122  0.315-  59 2.54  68 2.54  80 2.54  43 2.60  61 2.61   1 2.63   3 2.68  18 2.72
                            60 2.75  11 2.83  13 2.90  17 2.90
  20  0.547  0.122  0.038-  57 2.54  37 2.59  48 2.60  62 2.60  47 2.60  34 2.65  45 2.68  63 2.71
                            56 2.75
  21  0.124  0.462  0.127-  36 2.55  47 2.57  40 2.58  58 2.61  42 2.61  64 2.63  31 2.66  69 2.66
                            50 2.67  74 2.69  70 2.69  57 2.69
  22  0.040  0.135  0.313-  65 2.46  75 2.54  55 2.54  77 2.58  39 2.59  43 2.59  60 2.65   2 2.65
                            52 2.74   9 2.83  10 2.84   6 2.85
  23  0.032  0.135  0.034-  70 2.57  62 2.59  40 2.59  41 2.60  76 2.63  45 2.70  24 2.70  35 2.71
                            53 2.86
  24  0.127  0.955  0.132-  79 2.52  55 2.55  53 2.61  35 2.62  77 2.62  58 2.62  73 2.64  70 2.65
                            38 2.67  66 2.68  23 2.70  41 2.74
  25  0.376  0.461  0.427-  16 2.60  17 2.63  15 2.64  14 2.64  13 2.65   5 2.67   3 2.82  30 2.84
                            18 2.90
  26  0.458  0.546  0.220-  73 2.50  74 2.51  51 2.53  79 2.60  64 2.61  30 2.65  68 2.66  18 2.67
                            32 2.69  44 2.71  78 2.71  67 2.74
  27  0.623  0.712  0.424-  14 2.60   8 2.61  11 2.62  12 2.63  15 2.64   7 2.67  44 2.71  61 2.76
                            29 2.77
  28  0.964  0.793  0.218-  66 2.54  50 2.56  58 2.58  77 2.63  42 2.64  64 2.65   2 2.66  79 2.68
                             1 2.69  59 2.70  33 2.74  49 2.75
  29  0.789  0.624  0.319-  44 2.59  42 2.59  32 2.61  39 2.61  75 2.64  61 2.65  49 2.65  33 2.66
                             1 2.68   7 2.74  27 2.77  12 2.81
  30  0.293  0.632  0.319-  79 2.56  44 2.60  64 2.61  52 2.62   2 2.64  26 2.65  33 2.71   3 2.71
                            18 2.75  14 2.79  16 2.79  25 2.84
  31  0.211  0.284  0.223-  57 2.55  70 2.55  65 2.59  55 2.61  43 2.61  80 2.64   3 2.65  21 2.66
                            68 2.67  39 2.67  42 2.71  64 2.72
  32  0.717  0.537  0.221-  69 2.51  54 2.56  51 2.57  65 2.60  29 2.61  42 2.61  75 2.64  67 2.64
                            49 2.68  26 2.69  44 2.75  78 2.78
  33  0.040  0.625  0.321-  42 2.58  39 2.59   3 2.60  64 2.65   1 2.66  29 2.66  30 2.71   2 2.74
                            28 2.74  12 2.75  16 2.75   5 2.79
  34  0.797  0.870  0.037-  50 2.48  66 2.50  36 2.54  48 2.61  35 2.62  63 2.64  71 2.65  20 2.65
                            62 2.72
  35  0.044  0.872  0.035-  58 2.56  36 2.57  66 2.61  24 2.62  34 2.62  72 2.70  23 2.71  62 2.72
                            53 2.74
  36  0.039  0.631  0.035-  58 2.54  34 2.54  21 2.55  35 2.57  50 2.59  40 2.68  71 2.72  72 2.76
                            47 2.78
  37  0.626  0.214  0.133-  68 2.52  59 2.52  67 2.52  41 2.56  51 2.57  56 2.58  66 2.59  20 2.59
                            74 2.60  62 2.60  57 2.64  48 2.76
  38  0.376  0.961  0.131-  80 2.47  53 2.51  55 2.53  78 2.53  63 2.53  45 2.55  54 2.58  48 2.61
                            57 2.62  24 2.67  70 2.69  73 2.69
  39  0.040  0.380  0.321-  22 2.59  33 2.59   3 2.60  42 2.60  29 2.61  75 2.63  65 2.67  31 2.67
                            43 2.70   7 2.70  10 2.73   5 2.78
  40  0.040  0.377  0.033-  69 2.55  21 2.58  23 2.59  76 2.61  70 2.61  45 2.66  71 2.67  36 2.68
                            47 2.81
  41  0.868  0.215  0.131-  67 2.47  65 2.53  76 2.53  77 2.53  37 2.56  51 2.56  62 2.57  69 2.59
                            23 2.60  70 2.61  66 2.63  24 2.74
  42  0.960  0.545  0.225-  33 2.58  29 2.59  39 2.60  50 2.61  32 2.61  21 2.61  28 2.64  64 2.65
                            69 2.68  65 2.69  49 2.70  31 2.71
  43  0.292  0.121  0.320-  52 2.54  55 2.58  22 2.59  19 2.60  61 2.60  31 2.61   8 2.64  80 2.66
                             3 2.69  39 2.70  10 2.74  13 2.84
  44  0.540  0.632  0.321-  61 2.56  52 2.56  29 2.59  30 2.60  78 2.63  18 2.68  26 2.71  27 2.71
                            75 2.73  14 2.74  15 2.74  32 2.75
  45  0.292  0.126  0.037-  38 2.55  57 2.57  70 2.59  40 2.66  53 2.66  20 2.68  23 2.70  47 2.70
                            63 2.74
  46  0.545  0.626  0.042-  73 2.43  51 2.44  54 2.47  71 2.53  53 2.54  76 2.54  63 2.55  72 2.56
                            56 2.56
  47  0.307  0.374  0.039-  74 2.45  57 2.52  56 2.54  21 2.57  20 2.60  72 2.62  45 2.70  36 2.78
                            40 2.81
  48  0.628  0.952  0.133-  49 2.43  80 2.48  59 2.50  63 2.52  50 2.54  54 2.54  20 2.60  34 2.61
                            66 2.61  38 2.61  57 2.66  37 2.76
  49  0.701  0.798  0.223-  48 2.43  54 2.51  80 2.51   1 2.55  78 2.56  50 2.57  61 2.58  59 2.60
                            29 2.65  32 2.68  42 2.70  28 2.75
  50  0.866  0.710  0.128-  71 2.42  34 2.48  48 2.54  28 2.56  49 2.57  54 2.58  36 2.59  42 2.61
                            69 2.64  21 2.67  66 2.71  58 2.84
  51  0.625  0.458  0.128-  56 2.42  76 2.43  46 2.44  26 2.53  41 2.56  37 2.57  32 2.57  74 2.58
                            73 2.62  69 2.63  67 2.64  54 2.70
  52  0.301  0.876  0.316-  78 2.46  55 2.49  61 2.50  79 2.52  43 2.54  44 2.56  30 2.62   2 2.68
                             8 2.70  22 2.74   6 2.80  14 2.86
  53  0.306  0.867  0.039-  73 2.44  38 2.51  46 2.54  63 2.56  72 2.59  24 2.61  45 2.66  35 2.74
                            23 2.86
  54  0.619  0.716  0.132-  63 2.41  71 2.47  46 2.47  49 2.51  78 2.53  48 2.54  32 2.56  38 2.58
                            50 2.58  73 2.61  51 2.70  69 2.72
  55  0.216  0.035  0.224-  52 2.49  78 2.50  79 2.52  38 2.53  22 2.54  24 2.55  43 2.58  80 2.59
                            31 2.61  70 2.62  65 2.68  77 2.79
  56  0.541  0.385  0.039-  51 2.42  74 2.47  72 2.50  47 2.54  46 2.56  37 2.58  76 2.61  62 2.65
                            20 2.75
  57  0.379  0.208  0.130-  47 2.52  20 2.54  31 2.55  68 2.55  80 2.56  45 2.57  38 2.62  37 2.64
                            74 2.66  48 2.66  21 2.69  70 2.75
  58  0.140  0.700  0.126-  72 2.40  74 2.53  36 2.54  73 2.54  35 2.56  28 2.58  21 2.61  64 2.62
                            24 2.62  79 2.68  50 2.84  66 2.84
  59  0.703  0.043  0.222-  48 2.50  37 2.52  19 2.54   1 2.56  66 2.57  77 2.58  49 2.60  80 2.61
                            68 2.61  67 2.65  28 2.70  60 2.73
  60  0.794  0.127  0.323-  18 2.56  75 2.58  77 2.58  67 2.61   2 2.62  22 2.65   9 2.65   1 2.67
                             4 2.68  17 2.73  59 2.73  19 2.75
  61  0.538  0.874  0.318-  78 2.48  52 2.50  44 2.56  49 2.58  80 2.58  43 2.60  19 2.61  29 2.65
                             1 2.67   8 2.67  27 2.76  11 2.81
  62  0.789  0.132  0.036-  66 2.52  41 2.57  23 2.59  20 2.60  37 2.60  56 2.65  76 2.70  35 2.72
                            34 2.72
  63  0.550  0.865  0.041-  54 2.41  71 2.50  48 2.52  38 2.53  46 2.55  53 2.56  34 2.64  20 2.71
                            45 2.74
  64  0.213  0.540  0.225-   3 2.57  74 2.59  68 2.60  30 2.61  26 2.61  58 2.62  21 2.63  33 2.65
                            42 2.65  28 2.65  79 2.71  31 2.72
  65  0.963  0.290  0.222-  70 2.46  22 2.46  41 2.53  69 2.59  31 2.59  32 2.60  67 2.61  75 2.62
                            77 2.63  39 2.67  55 2.68  42 2.69
  66  0.867  0.966  0.127-  34 2.50  62 2.52  28 2.54  59 2.57  77 2.58  37 2.59  35 2.61  48 2.61
                            41 2.63  24 2.68  50 2.71  58 2.84
  67  0.718  0.287  0.225-  77 2.44  41 2.47  37 2.52  18 2.54  75 2.54  65 2.61  60 2.61  51 2.64
                            32 2.64  59 2.65  68 2.70  26 2.74
  68  0.459  0.293  0.224-  37 2.52  19 2.54  57 2.55  74 2.58  18 2.60  64 2.60  59 2.61   3 2.64
                            26 2.66  31 2.67  67 2.70  80 2.73
  69  0.874  0.457  0.127-  76 2.36  71 2.40  32 2.51  40 2.55  65 2.59  70 2.59  41 2.59  51 2.63
                            50 2.64  21 2.66  42 2.68  54 2.72
  70  0.117  0.210  0.130-  65 2.46  31 2.55  23 2.57  69 2.59  45 2.59  41 2.61  40 2.61  55 2.62
                            24 2.65  38 2.69  21 2.69  57 2.75
  71  0.785  0.626  0.043-  69 2.40  50 2.42  54 2.47  76 2.50  63 2.50  46 2.53  34 2.65  40 2.67
                            36 2.72
  72  0.304  0.623  0.041-  73 2.38  58 2.40  74 2.44  56 2.50  46 2.56  53 2.59  47 2.62  35 2.70
                            36 2.76
  73  0.377  0.706  0.128-  72 2.38  46 2.43  53 2.44  26 2.50  58 2.54  74 2.59  79 2.60  54 2.61
                            51 2.62  24 2.64  78 2.68  38 2.69
  74  0.379  0.460  0.129-  72 2.44  47 2.45  56 2.47  26 2.51  58 2.53  51 2.58  68 2.58  73 2.59
                            64 2.59  37 2.60  57 2.66  21 2.69
  75  0.796  0.370  0.318-  22 2.54  67 2.54  18 2.55  60 2.58  65 2.62  39 2.63  32 2.64  29 2.64
                             9 2.68  44 2.73   7 2.77  15 2.80
  76  0.788  0.388  0.041-  69 2.36  51 2.43  71 2.50  41 2.53  46 2.54  40 2.61  56 2.61  23 2.63
                            62 2.70
  77  0.944  0.051  0.223-  67 2.44  41 2.53   2 2.56  22 2.58  66 2.58  60 2.58  59 2.58  24 2.62
                            65 2.63  28 2.63  55 2.79  79 2.79
  78  0.457  0.803  0.225-  52 2.46  80 2.47  61 2.48  55 2.50  38 2.53  54 2.53  49 2.56  79 2.58
                            44 2.63  73 2.68  26 2.71  32 2.78
  79  0.216  0.795  0.225-  52 2.52  24 2.52  55 2.52   2 2.55  30 2.56  78 2.58  73 2.60  26 2.60
                            58 2.68  28 2.68  64 2.71  77 2.79
  80  0.461  0.034  0.222-  78 2.47  38 2.47  48 2.48  49 2.51  19 2.54  57 2.56  61 2.58  55 2.59
                            59 2.61  31 2.64  43 2.66  68 2.73
  81  0.955  0.545  0.463-  12 1.71   5 1.73   7 1.75
 
  LATTYP: Found a hexagonal cell.
 ALAT       =    10.5600004196
 C/A-ratio  =     2.0833332505
  
  Lattice vectors:
  
 A1 = (   5.2800002098,  -9.1452286274,   0.0000000000)
 A2 = ( -10.5600004196,   0.0000000000,   0.0000000000)
 A3 = (   0.0000000000,   0.0000000000, -22.0000000000)


Analysis of symmetry for initial positions (statically):
=====================================================================
 Subroutine PRICEL returns:
 Original cell was already a primitive cell.
 

 Routine SETGRP: Setting up the symmetry group for a 
 hexagonal supercell.


 Subroutine GETGRP returns: Found  1 space group operations
 (whereof  1 operations were pure point group operations)
 out of a pool of 24 trial point group operations.


The static configuration has the point symmetry C_1 .


Analysis of symmetry for dynamics (positions and initial velocities):
=====================================================================
 Subroutine PRICEL returns:
 Original cell was already a primitive cell.
 

 Routine SETGRP: Setting up the symmetry group for a 
 hexagonal supercell.


 Subroutine GETGRP returns: Found  1 space group operations
 (whereof  1 operations were pure point group operations)
 out of a pool of 24 trial point group operations.


The dynamic configuration has the point symmetry C_1 .


Analysis of constrained symmetry for selective dynamics:
=====================================================================
 Subroutine PRICEL returns:
 Original cell was already a primitive cell.
 

 Routine SETGRP: Setting up the symmetry group for a 
 hexagonal supercell.


 Subroutine GETGRP returns: Found  1 space group operations
 (whereof  1 operations were pure point group operations)
 out of a pool of 24 trial point group operations.


The constrained configuration has the point symmetry C_1 .


Analysis of structural, dynamic, and magnetic symmetry:
=====================================================================
 Subroutine PRICEL returns:
 Original cell was already a primitive cell.
 

 Routine SETGRP: Setting up the symmetry group for a 
 hexagonal supercell.


 Subroutine GETGRP returns: Found  1 space group operations
 (whereof  1 operations were pure point group operations)
 out of a pool of 24 trial point group operations.


The magnetic configuration has the point symmetry C_1 .


 Subroutine INISYM returns: Found  1 space group operations
 (whereof  1 operations are pure point group operations),
 and found     1 'primitive' translations

 
 
 KPOINTS: mesh auto                               

Automatic generation of k-mesh.
Space group operators:
 irot       det(A)        alpha          n_x          n_y          n_z        tau_x        tau_y        tau_z
    1     1.000000     0.000001     1.000000     0.000000     0.000000     0.000000     0.000000     0.000000
 
 Subroutine IBZKPT returns following result:
 ===========================================
 
 Found      4 irreducible k-points:
 
 Following reciprocal coordinates:
            Coordinates               Weight
  0.000000  0.000000  0.000000      1.000000
  0.500000  0.000000  0.000000      1.000000
  0.000000  0.500000  0.000000      1.000000
  0.500000  0.500000  0.000000      1.000000
 
 Following cartesian coordinates:
            Coordinates               Weight
  0.000000  0.000000  0.000000      1.000000
  0.047348 -0.027337  0.000000      1.000000
  0.000000  0.054673  0.000000      1.000000
  0.047348  0.027337  0.000000      1.000000
 


--------------------------------------------------------------------------------------------------------




 Dimension of arrays:
   k-points           NKPTS =      4   k-points in BZ     NKDIM =      4   number of bands    NBANDS=    590
   number of dos      NEDOS =    301   number of ions     NIONS =     81
   non local maximal  LDIM  =      6   non local SUM 2l+1 LMDIM =     18
   total plane-waves  NPLWV = ******
   max r-space proj   IRMAX =   7802   max aug-charges    IRDMAX=  33988
   dimension x,y,z NGX =    84 NGY =   84 NGZ =  168
   dimension x,y,z NGXF=   168 NGYF=  168 NGZF=  336
   support grid    NGXF=   168 NGYF=  168 NGZF=  336
   ions per type =              32  13  10  13  12   1
   NGX,Y,Z   is equivalent  to a cutoff of  13.22, 13.22, 12.70 a.u.
   NGXF,Y,Z  is equivalent  to a cutoff of  26.45, 26.45, 25.39 a.u.

 SYSTEM =  Pt111                                   
 POSCAR =  10.56                                   

 Startparameter for this run:
   NWRITE =      2    write-flag & timer
   PREC   = accura    normal or accurate (medium, high low for compatibility)
   ISTART =      0    job   : 0-new  1-cont  2-samecut
   ICHARG =      2    charge: 1-file 2-atom 10-const
   ISPIN  =      2    spin polarized calculation?
   LNONCOLLINEAR =      F non collinear calculations
   LSORBIT =      F    spin-orbit coupling
   INIWAV =      1    electr: 0-lowe 1-rand  2-diag
   LASPH  =      F    aspherical Exc in radial PAW
   METAGGA=      F    non-selfconsistent MetaGGA calc.

 Electronic Relaxation 1
   ENCUT  =  550.0 eV  40.42 Ry    6.36 a.u.  20.19 20.19 42.07*2*pi/ulx,y,z
   ENINI  =  550.0     initial cutoff
   ENAUG  =  587.0 eV  augmentation charge cutoff
   NELM   =    200;   NELMIN=  2; NELMDL= -5     # of ELM steps 
   EDIFF  = 0.1E-04   stopping-criterion for ELM
   LREAL  =      T    real-space projection
   NLSPLINE    = F    spline interpolate recip. space projectors
   LCOMPAT=      F    compatible to vasp.4.4
   GGA_COMPAT  = T    GGA compatible to vasp.4.4-vasp.4.6
   LMAXPAW     = -100 max onsite density
   LMAXMIX     =    2 max onsite mixed and CHGCAR
   VOSKOWN=      0    Vosko Wilk Nusair interpolation
   ROPT   =   -0.00025  -0.00025  -0.00025  -0.00025
   ROPT   =   -0.00025  -0.00025
 Ionic relaxation
   EDIFFG = -.5E-01   stopping-criterion for IOM
   NSW    =    300    number of steps for IOM
   NBLOCK =      1;   KBLOCK =    300    inner block; outer block 
   IBRION =      2    ionic relax: 0-MD 1-quasi-New 2-CG
   NFREE  =      1    steps in history (QN), initial steepest desc. (CG)
   ISIF   =      2    stress and relaxation
   IWAVPR =     11    prediction:  0-non 1-charg 2-wave 3-comb
   ISYM   =      2    0-nonsym 1-usesym 2-fastsym
   LCORR  =      T    Harris-Foulkes like correction to forces

   POTIM  = 0.5000    time-step for ionic-motion
   TEIN   =    0.0    initial temperature
   TEBEG  =    0.0;   TEEND  =   0.0 temperature during run
   SMASS  =  -3.00    Nose mass-parameter (am)
   estimated Nose-frequenzy (Omega)   =  0.10E-29 period in steps =****** mass=  -0.255E-26a.u.
   SCALEE = 1.0000    scale energy and forces
   NPACO  =    256;   APACO  = 16.0  distance and # of slots for P.C.
   PSTRESS=    0.0 pullay stress

  Mass of Ions in am
   POMASS = 195.08 63.55 58.69 55.85 58.93  1.00
  Ionic Valenz
   ZVAL   =  10.00 11.00 10.00  8.00  9.00  1.00
  Atomic Wigner-Seitz radii
   RWIGS  =  -1.00 -1.00 -1.00 -1.00 -1.00 -1.00
  virtual crystal weights 
   VCA    =   1.00  1.00  1.00  1.00  1.00  1.00
   NELECT =     776.0000    total number of electrons
   NUPDOWN=      -1.0000    fix difference up-down

 DOS related values:
   EMIN   =  10.00;   EMAX   =-10.00  energy-range for DOS
   EFERMI =   0.00
   ISMEAR =     1;   SIGMA  =   0.10  broadening in eV -4-tet -1-fermi 0-gaus

 Electronic relaxation 2 (details)
   IALGO  =     68    algorithm
   LDIAG  =      T    sub-space diagonalisation (order eigenvalues)
   LSUBROT=      F    optimize rotation matrix (better conditioning)
   TURBO    =      0    0=normal 1=particle mesh
   IRESTART =      0    0=no restart 2=restart with 2 vectors
   NREBOOT  =      0    no. of reboots
   NMIN     =      0    reboot dimension
   EREF     =   0.00    reference energy to select bands
   IMIX   =      4    mixing-type and parameters
     AMIX     =   0.40;   BMIX     =  1.00
     AMIX_MAG =   1.60;   BMIX_MAG =  1.00
     AMIN     =   0.10
     WC   =   100.;   INIMIX=   1;  MIXPRE=   1;  MAXMIX= -45

 Intra band minimization:
   WEIMIN = 0.0010     energy-eigenvalue tresh-hold
   EBREAK =  0.42E-08  absolut break condition
   DEPER  =   0.30     relativ break condition  

   TIME   =   0.40     timestep for ELM

  volume/ion in A,a.u.               =      26.23       177.01
  Fermi-wavevector in a.u.,A,eV,Ry     =   1.170222  2.211399 18.632091  1.369420
  Thomas-Fermi vector in A             =   2.306684
 
 Write flags
   LWAVE        =      F    write WAVECAR
   LDOWNSAMPLE  =      F    k-point downsampling of WAVECAR
   LCHARG       =      F    write CHGCAR
   LVTOT        =      F    write LOCPOT, total local potential
   LVHAR        =      F    write LOCPOT, Hartree potential only
   LELF         =      F    write electronic localiz. function (ELF)
   LORBIT       =      0    0 simple, 1 ext, 2 COOP (PROOUT), +10 PAW based schemes


 Dipole corrections
   LMONO  =      F    monopole corrections only (constant potential shift)
   LDIPOL =      F    correct potential (dipole corrections)
   IDIPOL =      0    1-x, 2-y, 3-z, 4-all directions 
   EPSILON=  1.0000000 bulk dielectric constant

 Exchange correlation treatment:
   GGA     =    --    GGA type
   LEXCH   =     8    internal setting for exchange type
   VOSKOWN=      0    Vosko Wilk Nusair interpolation
   LHFCALC =     F    Hartree Fock is set to
   LHFONE  =     F    Hartree Fock one center treatment
   AEXX    =    0.0000 exact exchange contribution

 Linear response parameters
   LEPSILON=     F    determine dielectric tensor
   LRPA    =     F    only Hartree local field effects (RPA)
   LNABLA  =     F    use nabla operator in PAW spheres
   LVEL    =     F    velocity operator in full k-point grid
   LINTERFAST=   F  fast interpolation
   KINTER  =     0    interpolate to denser k-point grid
   CSHIFT  =0.1000    complex shift for real part using Kramers Kronig
   OMEGAMAX=  -1.0    maximum frequency
   DEG_THRESHOLD= 0.2000000E-02 threshold for treating states as degnerate
   RTIME   =   -0.100 relaxation time in fs
  (WPLASMAI=    0.000 imaginary part of plasma frequency in eV, 0.658/RTIME)
   DFIELD  = 0.0000000 0.0000000 0.0000000 field for delta impulse in time
 
 Orbital magnetization related:
   ORBITALMAG=     F  switch on orbital magnetization
   LCHIMAG   =     F  perturbation theory with respect to B field
   DQ        =  0.001000  dq finite difference perturbation B field
   LLRAUG    =     F  two centre corrections for induced B field



--------------------------------------------------------------------------------------------------------


 conjugate gradient relaxation of ions
   using selective dynamics as specified on POSCAR
 charge density and potential will be updated during run
 spin polarized calculation
 RMM-DIIS sequential band-by-band and
  variant of blocked Davidson during initial phase
 perform sub-space diagonalisation
    before iterative eigenvector-optimisation
 modified Broyden-mixing scheme, WC =      100.0
 initial mixing is a Kerker type mixing with AMIX =  0.4000 and BMIX =      1.0000
 Hartree-type preconditioning will be used
 using additional bands          202
 real space projection scheme for non local part
 use partial core corrections
 calculate Harris-corrections to forces 
   (improved forces if not selfconsistent)
 use gradient corrections 
 use of overlap-Matrix (Vanderbilt PP)
 Methfessel and Paxton  Order N= 1 SIGMA  =   0.10


--------------------------------------------------------------------------------------------------------


  energy-cutoff  :      550.00
  volume of cell :     2124.62
      direct lattice vectors                 reciprocal lattice vectors
    10.560000420  0.000000000  0.000000000     0.094696966 -0.054673319  0.000000000
     5.280000210  9.145228627  0.000000000     0.000000000  0.109346638  0.000000000
     0.000000000  0.000000000 22.000000000     0.000000000  0.000000000  0.045454545

  length of vectors
    10.560000420 10.560000420 22.000000000     0.109346638  0.109346638  0.045454545


 
 k-points in units of 2pi/SCALE and weight: mesh auto                               
   0.00000000  0.00000000  0.00000000       0.250
   0.04734848 -0.02733666  0.00000000       0.250
   0.00000000  0.05467332  0.00000000       0.250
   0.04734848  0.02733666  0.00000000       0.250
 
 k-points in reciprocal lattice and weights: mesh auto                               
   0.00000000  0.00000000  0.00000000       0.250
   0.50000000  0.00000000  0.00000000       0.250
   0.00000000  0.50000000  0.00000000       0.250
   0.50000000  0.50000000  0.00000000       0.250
 
 position of ions in fractional coordinates (direct lattice) 
   0.78966075  0.87699132  0.31582816
   0.04393882  0.88214341  0.31605232
   0.28653974  0.37856517  0.32012636
   0.86906542  0.96217151  0.42361237
   0.12373211  0.45939747  0.42724070
   0.12936993  0.96419994  0.42147888
   0.87527689  0.45998313  0.42285094
   0.37659405  0.95980243  0.41936449
   0.87274996  0.21436955  0.42155033
   0.12505156  0.21220861  0.42344352
   0.62198977  0.96051358  0.42437942
   0.87403166  0.70807509  0.42521544
   0.37360580  0.21045533  0.42766717
   0.37760335  0.71005808  0.42622146
   0.62529841  0.46139891  0.42402079
   0.12691430  0.70523647  0.42527692
   0.62393134  0.21127627  0.42457877
   0.55381975  0.37118585  0.31757095
   0.53698848  0.12225337  0.31494777
   0.54745577  0.12241455  0.03835403
   0.12360644  0.46198687  0.12740666
   0.03999045  0.13512898  0.31338525
   0.03235129  0.13482511  0.03441534
   0.12671306  0.95484959  0.13162708
   0.37558044  0.46078793  0.42666899
   0.45779299  0.54562474  0.22008560
   0.62259046  0.71227498  0.42425852
   0.96413863  0.79272622  0.21761397
   0.78890433  0.62385503  0.31886247
   0.29315792  0.63210494  0.31907285
   0.21123592  0.28374023  0.22269626
   0.71709822  0.53685317  0.22058810
   0.04024294  0.62513796  0.32101864
   0.79720004  0.86975892  0.03740235
   0.04406258  0.87221915  0.03450723
   0.03926108  0.63118460  0.03512204
   0.62574752  0.21423502  0.13267817
   0.37608349  0.96104394  0.13055742
   0.03988096  0.37987827  0.32078985
   0.03961706  0.37680314  0.03348892
   0.86761936  0.21521963  0.13097207
   0.95962679  0.54542694  0.22473188
   0.29180541  0.12086216  0.31997602
   0.53973416  0.63166777  0.32130311
   0.29178315  0.12606023  0.03725420
   0.54545151  0.62597825  0.04206242
   0.30678791  0.37356804  0.03912988
   0.62788283  0.95185769  0.13263039
   0.70142059  0.79820208  0.22280830
   0.86633517  0.71047377  0.12834734
   0.62467538  0.45773867  0.12814478
   0.30056912  0.87625620  0.31618976
   0.30615091  0.86696452  0.03949459
   0.61892989  0.71603521  0.13157826
   0.21580132  0.03462027  0.22396955
   0.54130035  0.38549347  0.03924212
   0.37935969  0.20774149  0.13048593
   0.13970060  0.70042731  0.12601187
   0.70329280  0.04306983  0.22237866
   0.79417487  0.12723489  0.32288839
   0.53830947  0.87424721  0.31820141
   0.78866377  0.13163117  0.03568706
   0.55002307  0.86477454  0.04096764
   0.21334288  0.54014670  0.22460931
   0.96280137  0.28964998  0.22158834
   0.86740749  0.96641026  0.12740667
   0.71753219  0.28687300  0.22453182
   0.45915719  0.29304584  0.22376919
   0.87387308  0.45689803  0.12677291
   0.11726506  0.21049175  0.13008946
   0.78478084  0.62565658  0.04309165
   0.30446760  0.62284293  0.04138738
   0.37746416  0.70582480  0.12774454
   0.37902910  0.46003850  0.12899471
   0.79579489  0.37045697  0.31848945
   0.78782398  0.38752064  0.04111567
   0.94385566  0.05104212  0.22344851
   0.45702340  0.80263442  0.22502694
   0.21629647  0.79533135  0.22474012
   0.46108857  0.03393525  0.22161390
   0.95484198  0.54513081  0.46313028
 
 position of ions in cartesian coordinates  (Angst):
  12.96933215  8.02028612  6.94821946
   5.12171136  8.06740315  6.95315098
   5.02468400  3.46206507  7.04277984
  14.25759700  8.79927844  9.31947204
   3.73222993  4.20129493  9.39929530
   6.45712244  8.81782888  9.27253537
  11.67163531  4.20665087  9.30272061
   9.04459036  8.77761264  9.22601888
  10.34811119  1.96045855  9.27410718
   2.44100603  1.94069627  9.31575735
  11.63972415  8.78411628  9.33634725
  12.96841135  6.47550855  9.35473958
   5.05648162  1.92466212  9.40867767
   7.73659834  6.49364348  9.37687203
   9.03933781  4.21959848  9.32845738
   5.06386376  6.44954880  9.35609234
   7.70425395  1.93216976  9.34073294
   7.80819821  3.39457950  6.98656090
   6.31609637  1.11803506  6.92885099
   6.42748199  1.11950902  0.84378857
   3.74457485  4.22497551  2.80294662
   1.13578014  1.23578538  6.89447560
   1.05350625  1.23300646  0.75713746
   6.37969601  8.73231780  2.89579587
   6.39908994  4.21401098  9.38671783
   7.71519296  4.98986301  4.84188323
  10.33536759  6.51391754  9.33368744
  14.36689896  7.24966250  4.78750741
  11.62478471  5.70529691  7.01497445
   6.43326201  5.78074421  7.01960268
   3.72879985  2.59486929  4.89931774
  10.40714241  4.90964500  4.85293829
   3.72569409  5.71702961  7.06241001
  13.01076010  7.95414421  0.82285169
   5.07061818  7.97664351  0.75915899
   3.74725186  5.77232751  0.77268479
   7.73905501  1.95922823  2.91891969
   9.04575401  8.78896659  2.87226322
   2.42690033  3.47407364  7.05737670
   2.40787681  3.44595088  0.73675630
  10.29842047  1.96823277  2.88138548
  13.01351367  4.98805409  4.94410139
   3.71961751  1.10531211  7.03947253
   9.03479888  5.77674615  7.06866837
   3.74682824  1.15284966  0.81959249
   9.06513349  5.72471418  0.92537331
   5.21211980  3.41636512  0.86085731
  11.65625177  8.70495616  2.91786869
  11.62150883  7.29974048  4.90178269
  12.89980144  6.49744505  2.82364142
   9.01343253  4.18612478  2.81918506
   7.80064292  8.01356328  6.95617471
   7.81052654  7.92858872  0.86888091
  10.31656596  6.54830568  2.89472164
   2.46165709  0.31661030  4.92733016
   7.75153750  3.52542591  0.86332671
   5.10291361  1.89984346  2.87069041
   5.17349471  6.40556785  2.77226120
   7.65418102  0.39388344  4.89233061
   9.05828726  1.16359219  7.10354451
  10.30057364  7.99519058  7.00043101
   9.02330237  1.20379713  0.78511532
  10.37425363  7.90856090  0.90128811
   5.10487562  4.93976509  4.94140483
  11.69653478  2.64891530  4.87494337
  14.26246981  8.83804282  2.80294666
   9.09182970  2.62351917  4.93970002
   6.39598222  2.67997121  4.92292219
  11.64052176  4.17843690  2.78900405
   2.34971562  1.92499520  2.86196808
  11.59075286  5.72177244  0.94801637
   6.50378879  5.69604102  0.91052233
   7.71277679  6.45492912  2.81037998
   6.43155077  4.20715724  2.83788366
  10.35960732  3.38791373  7.00676796
  10.36553066  3.54396488  0.90454481
  10.23661853  0.46679185  4.91586728
   9.06407717  7.34027527  4.95059278
   6.48344052  7.27348698  4.94428261
   5.04827358  0.31034563  4.87550584
  12.96142251  4.98534591 10.18886614
 


--------------------------------------------------------------------------------------------------------


 k-point  1 :   0.0000 0.0000 0.0000  plane waves:   62167
 k-point  2 :   0.5000 0.0000 0.0000  plane waves:   62242
 k-point  3 :   0.0000 0.5000 0.0000  plane waves:   62242
 k-point  4 :   0.5000 0.5000 0.0000  plane waves:   62242

 maximum and minimum number of plane-waves per node :     15586    15521

 maximum number of plane-waves:     62242
 maximum index in each direction: 
   IXMAX=   20   IYMAX=   20   IZMAX=   42
   IXMIN=  -20   IYMIN=  -20   IZMIN=  -42


 real space projection operators:
  total allocation   :      77825.91 KBytes
  max/ min on nodes  :      19476.62      19427.56


 parallel 3D FFT for wavefunctions:
    minimum data exchange during FFTs selected (reduces bandwidth)
 parallel 3D FFT for charge:
    minimum data exchange during FFTs selected (reduces bandwidth)


 total amount of memory used by VASP MPI-rank0   259158. kBytes
=======================================================================

   base      :      30000. kBytes
   nonlr-proj:      34704. kBytes
   fftplans  :      17962. kBytes
   grid      :      55536. kBytes
   one-center:        653. kBytes
   wavefun   :     120303. kBytes
 
     INWAV:  cpu time    0.0000: real time    0.0000
 Broyden mixing: mesh for mixing (old mesh)
   NGX = 41   NGY = 41   NGZ = 85
  (NGX  =168   NGY  =168   NGZ  =336)
  gives a total of 142885 points

 initial charge density was supplied:
 charge density of overlapping atoms calculated
 number of electron     776.0000000 magnetization     233.0000000
 keeping initial charge density in first step


--------------------------------------------------------------------------------------------------------


 Maximum index for non-local projection operator         1905
 Maximum index for augmentation-charges         2130 (set IRDMAX)


--------------------------------------------------------------------------------------------------------


 First call to EWALD:  gamma=   0.138
 Maximum number of real-space cells 4x 4x 2
 Maximum number of reciprocal cells 2x 2x 4

    FEWALD:  cpu time    0.0038: real time    0.0038


--------------------------------------- Iteration      1(   1)  ---------------------------------------


    POTLOK:  cpu time    0.4220: real time    0.4251
    SETDIJ:  cpu time    0.0326: real time    0.0328
     EDDAV:  cpu time   68.9991: real time   69.2055
       DOS:  cpu time    0.0019: real time    0.0020
    --------------------------------------------
      LOOP:  cpu time   69.4556: real time   69.6653

 eigenvalue-minimisations  :  9440
 total energy-change (2. order) : 0.7893238E+04  (-0.3281755E+05)
 number of electron     776.0000000 magnetization     233.0000000
 augmentation part      776.0000000 magnetization     233.0000000

 Free energy of the ion-electron system (eV)
  ---------------------------------------------------
  alpha Z        PSCENC =      2230.33460859
  Ewald energy   TEWEN  =    217733.10703790
  -Hartree energ DENC   =   -289452.09697772
  -exchange      EXHF   =         0.00000000
  -V(xc)+E(xc)   XCENC  =      1360.27529767
  PAW double counting   =     63651.30740739   -65525.53323748
  entropy T*S    EENTRO =         0.00499255
  eigenvalues    EBANDS =      8205.79734693
  atomic energy  EATOM  =     69690.04112127
  Solvation  Ediel_sol  =         0.00000000
  ---------------------------------------------------
  free energy    TOTEN  =      7893.23759712 eV

  energy without entropy =     7893.23260457  energy(sigma->0) =     7893.23593293


--------------------------------------------------------------------------------------------------------




--------------------------------------- Iteration      1(   2)  ---------------------------------------


     EDDAV:  cpu time   68.8901: real time   69.0901
       DOS:  cpu time    0.0019: real time    0.0019
    --------------------------------------------
      LOOP:  cpu time   68.8920: real time   69.0920

 eigenvalue-minimisations  :  9440
 total energy-change (2. order) :-0.7047150E+04  (-0.6294821E+04)
 number of electron     776.0000000 magnetization     233.0000000
 augmentation part      776.0000000 magnetization     233.0000000

 Free energy of the ion-electron system (eV)
  ---------------------------------------------------
  alpha Z        PSCENC =      2230.33460859
  Ewald energy   TEWEN  =    217733.10703790
  -Hartree energ DENC   =   -289452.09697772
  -exchange      EXHF   =         0.00000000
  -V(xc)+E(xc)   XCENC  =      1360.27529767
  PAW double counting   =     63651.30740739   -65525.53323748
  entropy T*S    EENTRO =        -0.00615739
  eigenvalues    EBANDS =      1158.65821712
  atomic energy  EATOM  =     69690.04112127
  Solvation  Ediel_sol  =         0.00000000
  ---------------------------------------------------
  free energy    TOTEN  =       846.08731736 eV

  energy without entropy =      846.09347475  energy(sigma->0) =      846.08936982


--------------------------------------------------------------------------------------------------------




--------------------------------------- Iteration      1(   3)  ---------------------------------------


     EDDAV:  cpu time   68.9216: real time   69.0958
       DOS:  cpu time    0.0020: real time    0.0020
    --------------------------------------------
      LOOP:  cpu time   68.9236: real time   69.0978

 eigenvalue-minimisations  :  9440
 total energy-change (2. order) :-0.1223517E+04  (-0.9903487E+03)
 number of electron     776.0000000 magnetization     233.0000000
 augmentation part      776.0000000 magnetization     233.0000000

 Free energy of the ion-electron system (eV)
  ---------------------------------------------------
  alpha Z        PSCENC =      2230.33460859
  Ewald energy   TEWEN  =    217733.10703790
  -Hartree energ DENC   =   -289452.09697772
  -exchange      EXHF   =         0.00000000
  -V(xc)+E(xc)   XCENC  =      1360.27529767
  PAW double counting   =     63651.30740739   -65525.53323748
  entropy T*S    EENTRO =         0.00395837
  eigenvalues    EBANDS =       -64.86862705
  atomic energy  EATOM  =     69690.04112127
  Solvation  Ediel_sol  =         0.00000000
  ---------------------------------------------------
  free energy    TOTEN  =      -377.42941105 eV

  energy without entropy =     -377.43336942  energy(sigma->0) =     -377.43073051


--------------------------------------------------------------------------------------------------------




--------------------------------------- Iteration      1(   4)  ---------------------------------------


     EDDAV:  cpu time   81.6081: real time   81.8432
       DOS:  cpu time    0.0022: real time    0.0022
    --------------------------------------------
      LOOP:  cpu time   81.6103: real time   81.8454

 eigenvalue-minimisations  : 11720
 total energy-change (2. order) :-0.1172007E+03  (-0.1079088E+03)
 number of electron     776.0000000 magnetization     233.0000000
 augmentation part      776.0000000 magnetization     233.0000000

 Free energy of the ion-electron system (eV)
  ---------------------------------------------------
  alpha Z        PSCENC =      2230.33460859
  Ewald energy   TEWEN  =    217733.10703790
  -Hartree energ DENC   =   -289452.09697772
  -exchange      EXHF   =         0.00000000
  -V(xc)+E(xc)   XCENC  =      1360.27529767
  PAW double counting   =     63651.30740739   -65525.53323748
  entropy T*S    EENTRO =         0.00272242
  eigenvalues    EBANDS =      -182.06809942
  atomic energy  EATOM  =     69690.04112127
  Solvation  Ediel_sol  =         0.00000000
  ---------------------------------------------------
  free energy    TOTEN  =      -494.63011937 eV

  energy without entropy =     -494.63284179  energy(sigma->0) =     -494.63102684


--------------------------------------------------------------------------------------------------------




--------------------------------------- Iteration      1(   5)  ---------------------------------------


     EDDAV:  cpu time   78.4776: real time   78.6827
       DOS:  cpu time    0.0022: real time    0.0022
    CHARGE:  cpu time    4.3530: real time    4.3636
    MIXING:  cpu time    0.0109: real time    0.0116
    --------------------------------------------
      LOOP:  cpu time   82.8437: real time   83.0600

 eigenvalue-minimisations  : 11140
 total energy-change (2. order) :-0.4411233E+01  (-0.4378290E+01)
 number of electron     776.0000023 magnetization     218.1023782
 augmentation part      333.0642861 magnetization     187.1849082

 Broyden mixing:
  rms(total) = 0.11906E+02    rms(broyden)= 0.11906E+02
  rms(prec ) = 0.12205E+02
  weight for this iteration     100.00

 Free energy of the ion-electron system (eV)
  ---------------------------------------------------
  alpha Z        PSCENC =      2230.33460859
  Ewald energy   TEWEN  =    217733.10703790
  -Hartree energ DENC   =   -289452.09697772
  -exchange      EXHF   =         0.00000000
  -V(xc)+E(xc)   XCENC  =      1360.27529767
  PAW double counting   =     63651.30740739   -65525.53323748
  entropy T*S    EENTRO =         0.00264783
  eigenvalues    EBANDS =      -186.47925774
  atomic energy  EATOM  =     69690.04112127
  Solvation  Ediel_sol  =         0.00000000
  ---------------------------------------------------
  free energy    TOTEN  =      -499.04135228 eV

  energy without entropy =     -499.04400011  energy(sigma->0) =     -499.04223489


--------------------------------------------------------------------------------------------------------




--------------------------------------- Iteration      1(   6)  ---------------------------------------


    POTLOK:  cpu time    0.4152: real time    0.4162
    SETDIJ:  cpu time    0.0331: real time    0.0332
    EDDIAG:  cpu time   11.8802: real time   11.9088
  RMM-DIIS:  cpu time   42.0387: real time   42.1615
    ORTHCH:  cpu time    1.3035: real time    1.3073
       DOS:  cpu time    0.0020: real time    0.0020
    CHARGE:  cpu time    4.1858: real time    4.1981
    MIXING:  cpu time    0.0093: real time    0.0096
    --------------------------------------------
      LOOP:  cpu time   59.8679: real time   60.0367

 eigenvalue-minimisations  :  9528
 total energy-change (2. order) :-0.1315456E+03  (-0.8674155E+02)
 number of electron     776.0000033 magnetization     213.7967125
 augmentation part      401.4701065 magnetization     179.9169612

 Broyden mixing:
  rms(total) = 0.18137E+02    rms(broyden)= 0.18137E+02
  rms(prec ) = 0.24018E+02
  weight for this iteration     100.00

 eigenvalues of (default mixing * dielectric matrix)
  average eigenvalue GAMMA=   0.2585
  0.2585

 Free energy of the ion-electron system (eV)
  ---------------------------------------------------
  alpha Z        PSCENC =      2230.33460859
  Ewald energy   TEWEN  =    217733.10703790
  -Hartree energ DENC   =   -287886.48968146
  -exchange      EXHF   =         0.00000000
  -V(xc)+E(xc)   XCENC  =      1313.79234790
  PAW double counting   =     68862.92295631   -70528.72400888
  entropy T*S    EENTRO =        -0.01455940
  eigenvalues    EBANDS =     -2045.55680296
  atomic energy  EATOM  =     69690.04112127
  Solvation  Ediel_sol  =         0.00000000
  ---------------------------------------------------
  free energy    TOTEN  =      -630.58698073 eV

  energy without entropy =     -630.57242133  energy(sigma->0) =     -630.58212760


--------------------------------------------------------------------------------------------------------




--------------------------------------- Iteration      1(   7)  ---------------------------------------


    POTLOK:  cpu time    0.4050: real time    0.4059
    SETDIJ:  cpu time    0.0330: real time    0.0331
    EDDIAG:  cpu time   11.7669: real time   11.8017
  RMM-DIIS:  cpu time   40.7087: real time   40.8274
    ORTHCH:  cpu time    1.3022: real time    1.3058
       DOS:  cpu time    0.0020: real time    0.0020
    CHARGE:  cpu time    4.2485: real time    4.2606
    MIXING:  cpu time    0.0095: real time    0.0095
    --------------------------------------------
      LOOP:  cpu time   58.4756: real time   58.6461

 eigenvalue-minimisations  :  9447
 total energy-change (2. order) : 0.7926600E+02  (-0.1663561E+02)
 number of electron     776.0000024 magnetization     208.0922091
 augmentation part      360.4156592 magnetization     164.7270328

 Broyden mixing:
  rms(total) = 0.15392E+02    rms(broyden)= 0.15392E+02
  rms(prec ) = 0.20413E+02
  weight for this iteration     100.00

 eigenvalues of (default mixing * dielectric matrix)
  average eigenvalue GAMMA=   0.3167
  0.4815  0.1519

 Free energy of the ion-electron system (eV)
  ---------------------------------------------------
  alpha Z        PSCENC =      2230.33460859
  Ewald energy   TEWEN  =    217733.10703790
  -Hartree energ DENC   =   -288637.59454789
  -exchange      EXHF   =         0.00000000
  -V(xc)+E(xc)   XCENC  =      1333.07011815
  PAW double counting   =     69988.70637530   -71824.52605705
  entropy T*S    EENTRO =         0.00331004
  eigenvalues    EBANDS =     -1064.46294694
  atomic energy  EATOM  =     69690.04112127
  Solvation  Ediel_sol  =         0.00000000
  ---------------------------------------------------
  free energy    TOTEN  =      -551.32098063 eV

  energy without entropy =     -551.32429068  energy(sigma->0) =     -551.32208398


--------------------------------------------------------------------------------------------------------




--------------------------------------- Iteration      1(   8)  ---------------------------------------


    POTLOK:  cpu time    0.4030: real time    0.4045
    SETDIJ:  cpu time    0.0332: real time    0.0333
    EDDIAG:  cpu time   11.7741: real time   11.8084
  RMM-DIIS:  cpu time   40.9995: real time   41.1147
    ORTHCH:  cpu time    1.3097: real time    1.3128
       DOS:  cpu time    0.0022: real time    0.0022
    CHARGE:  cpu time    4.1797: real time    4.1896
    MIXING:  cpu time    0.0097: real time    0.0098
    --------------------------------------------
      LOOP:  cpu time   58.7112: real time   58.8754

 eigenvalue-minimisations  :  9456
 total energy-change (2. order) : 0.4691216E+02  (-0.1197044E+02)
 number of electron     776.0000027 magnetization     202.0831548
 augmentation part      365.1755862 magnetization     160.1287838

 Broyden mixing:
  rms(total) = 0.16720E+02    rms(broyden)= 0.16720E+02
  rms(prec ) = 0.19584E+02
  weight for this iteration     100.00

 eigenvalues of (default mixing * dielectric matrix)
  average eigenvalue GAMMA=   0.3199
  0.6317  0.2384  0.0896

 Free energy of the ion-electron system (eV)
  ---------------------------------------------------
  alpha Z        PSCENC =      2230.33460859
  Ewald energy   TEWEN  =    217733.10703790
  -Hartree energ DENC   =   -288920.58741401
  -exchange      EXHF   =         0.00000000
  -V(xc)+E(xc)   XCENC  =      1340.54423747
  PAW double counting   =     71533.07786724   -73456.62277104
  entropy T*S    EENTRO =        -0.01285651
  eigenvalues    EBANDS =      -654.29065393
  atomic energy  EATOM  =     69690.04112127
  Solvation  Ediel_sol  =         0.00000000
  ---------------------------------------------------
  free energy    TOTEN  =      -504.40882302 eV

  energy without entropy =     -504.39596651  energy(sigma->0) =     -504.40453752


--------------------------------------------------------------------------------------------------------




--------------------------------------- Iteration      1(   9)  ---------------------------------------


    POTLOK:  cpu time    0.3870: real time    0.3879
    SETDIJ:  cpu time    0.0332: real time    0.0333
    EDDIAG:  cpu time   11.7941: real time   11.8225
  RMM-DIIS:  cpu time   41.0714: real time   41.1718
    ORTHCH:  cpu time    1.3109: real time    1.3140
       DOS:  cpu time    0.0021: real time    0.0021
    CHARGE:  cpu time    4.2148: real time    4.2247
    MIXING:  cpu time    0.0100: real time    0.0100
    --------------------------------------------
      LOOP:  cpu time   58.8234: real time   58.9663

 eigenvalue-minimisations  :  9471
 total energy-change (2. order) : 0.1173238E+03  (-0.1266399E+02)
 number of electron     776.0000021 magnetization     194.6322509
 augmentation part      367.9119618 magnetization     152.2144993

 Broyden mixing:
  rms(total) = 0.13009E+02    rms(broyden)= 0.13009E+02
  rms(prec ) = 0.15235E+02
  weight for this iteration     100.00

 eigenvalues of (default mixing * dielectric matrix)
  average eigenvalue GAMMA=   0.3817
  0.9709  0.3191  0.0998  0.1369

 Free energy of the ion-electron system (eV)
  ---------------------------------------------------
  alpha Z        PSCENC =      2230.33460859
  Ewald energy   TEWEN  =    217733.10703790
  -Hartree energ DENC   =   -288570.78958815
  -exchange      EXHF   =         0.00000000
  -V(xc)+E(xc)   XCENC  =      1355.87966029
  PAW double counting   =     72827.16722448   -74787.33578117
  entropy T*S    EENTRO =        -0.01046614
  eigenvalues    EBANDS =      -865.47882682
  atomic energy  EATOM  =     69690.04112127
  Solvation  Ediel_sol  =         0.00000000
  ---------------------------------------------------
  free energy    TOTEN  =      -387.08500975 eV

[...]
   0.646E+01 -.218E+02 -.287E+04   -.647E+01 0.220E+02 0.287E+04   0.193E-01 -.202E+00 0.110E+01   -.193E-01 0.229E-02 -.219E-02
   -.360E+02 0.363E+01 -.295E+04   0.367E+02 -.412E+01 0.295E+04   -.635E+00 0.526E+00 0.380E+00   -.131E-01 0.529E-02 -.482E-01
   0.353E+02 -.652E+01 -.289E+04   -.352E+02 0.631E+01 0.289E+04   -.138E+00 0.157E+00 0.894E+00   0.314E-02 0.424E-02 0.183E-01
   0.378E+02 0.629E+01 -.291E+04   -.388E+02 -.701E+01 0.291E+04   0.102E+01 0.685E+00 0.106E+01   0.326E-02 -.745E-02 -.118E-01
   -.154E+02 0.457E+01 -.290E+04   0.154E+02 -.478E+01 0.290E+04   -.116E-01 0.267E+00 0.161E+01   -.101E-01 -.240E-02 0.315E-01
   0.286E+02 0.268E+02 -.287E+04   -.289E+02 -.266E+02 0.287E+04   0.289E+00 -.270E+00 0.163E+01   -.106E-01 0.675E-02 0.117E-01
   0.256E+02 0.162E+02 -.292E+04   -.256E+02 -.165E+02 0.292E+04   -.322E-01 0.327E+00 0.800E+00   -.946E-02 0.974E-02 0.153E-01
   -.297E+02 -.167E+02 -.288E+04   0.294E+02 0.167E+02 0.288E+04   0.256E+00 -.648E-02 0.927E+00   0.220E-01 -.102E-02 0.118E-01
   0.631E+01 -.556E+02 -.291E+04   -.619E+01 0.562E+02 0.291E+04   -.106E+00 -.593E+00 0.274E+00   0.100E-01 0.265E-02 -.378E-01
   -.513E+02 0.581E+01 -.292E+04   0.512E+02 -.569E+01 0.292E+04   0.111E+00 -.138E+00 0.707E+00   0.195E-02 0.188E-01 0.115E-01
   0.232E+02 0.323E+01 -.295E+04   -.231E+02 -.325E+01 0.295E+04   -.807E-01 0.130E-01 0.920E+00   -.735E-02 0.183E-01 0.220E-01
   0.175E+02 0.369E+02 -.290E+04   -.174E+02 -.368E+02 0.290E+04   -.752E-01 -.162E-01 0.105E+01   0.105E-01 -.233E-01 0.238E-01
   -.457E+01 -.233E+02 -.289E+04   0.494E+01 0.234E+02 0.289E+04   -.391E+00 -.739E-01 0.881E+00   -.618E-02 0.473E-02 0.132E-01
   0.150E+01 0.117E+02 -.286E+04   -.120E+01 -.118E+02 0.286E+04   -.338E+00 0.676E-01 0.121E+01   0.565E-02 0.385E-03 0.239E-01
   0.485E+02 0.486E+02 -.142E+04   -.467E+02 -.496E+02 0.142E+04   -.176E+01 0.108E+01 0.276E+01   0.536E-02 -.153E-01 0.877E-01
   -.907E+02 -.387E+02 -.141E+04   0.903E+02 0.378E+02 0.141E+04   0.256E+00 0.954E+00 0.362E+01   0.108E-01 0.113E-03 0.783E-01
   -.227E+02 -.238E+02 0.300E+04   0.228E+02 0.241E+02 -.300E+04   -.192E-01 -.267E+00 -.195E+01   0.156E-01 -.126E-02 -.232E-01
   -.728E+02 0.224E+02 0.148E+04   0.733E+02 -.219E+02 -.148E+04   -.577E+00 -.324E+00 -.908E-01   -.732E-02 -.405E-02 -.653E-02
   0.100E+03 0.267E+02 -.140E+04   -.101E+03 -.256E+02 0.139E+04   0.576E+00 -.115E+01 0.319E+01   -.483E-02 -.735E-02 0.740E-01
   0.349E+02 0.500E+02 0.303E+04   -.355E+02 -.488E+02 -.303E+04   0.667E+00 -.117E+01 -.215E+01   -.324E-01 0.209E-01 -.362E-01
   0.908E+02 0.296E+01 0.147E+04   -.909E+02 -.422E+01 -.147E+04   0.683E-01 0.125E+01 -.116E+01   -.144E-01 0.265E-01 0.302E-03
   -.205E+02 0.236E+02 -.289E+04   0.203E+02 -.235E+02 0.289E+04   0.191E+00 -.115E+00 0.728E+00   -.738E-02 -.183E-01 0.152E-01
   0.543E+02 0.628E+02 0.249E+02   -.554E+02 -.628E+02 -.266E+02   0.107E+01 -.357E-01 0.167E+01   0.116E-01 -.226E-01 0.380E-01
   -.274E+02 -.109E+02 -.291E+04   0.268E+02 0.113E+02 0.291E+04   0.577E+00 -.477E+00 0.127E+01   0.823E-02 0.704E-02 0.215E-01
   -.652E+02 -.385E+02 0.114E+03   0.656E+02 0.385E+02 -.115E+03   -.341E+00 -.101E+00 0.179E+01   -.141E-01 0.121E-01 0.501E-01
   0.126E+02 -.408E+02 -.150E+04   -.129E+02 0.407E+02 0.150E+04   0.301E+00 0.881E-01 0.234E+01   0.996E-02 0.841E-03 0.536E-01
   0.385E+02 0.565E+02 -.145E+04   -.385E+02 -.557E+02 0.145E+04   0.566E-01 -.733E+00 0.271E+01   -.891E-02 0.194E-01 0.867E-01
   -.792E+02 -.504E+02 0.776E+02   0.794E+02 0.496E+02 -.787E+02   -.195E+00 0.733E+00 0.111E+01   -.699E-02 -.594E-02 0.544E-01
   0.459E+02 0.518E+02 0.138E+02   -.452E+02 -.529E+02 -.147E+02   -.737E+00 0.112E+01 0.896E+00   0.157E-01 -.119E-01 0.327E-01
   -.689E+02 -.700E+02 -.164E+04   0.687E+02 0.695E+02 0.164E+04   0.201E+00 0.609E+00 0.117E+01   -.125E-01 0.242E-02 0.838E-01
   0.101E+02 -.906E+02 0.332E+04   -.105E+02 0.907E+02 -.332E+04   0.332E+00 -.189E-01 -.235E+01   -.119E-01 0.199E-01 -.290E-01
   -.329E+02 -.508E+02 0.329E+04   0.323E+02 0.503E+02 -.328E+04   0.693E+00 0.483E+00 -.292E+01   -.174E-01 0.328E-01 -.384E-01
   -.546E+02 0.440E+02 0.331E+04   0.548E+02 -.436E+02 -.331E+04   -.189E+00 -.356E+00 -.357E+01   -.194E-01 -.546E-02 -.358E-01
   0.517E+02 0.287E+02 0.158E+04   -.516E+02 -.288E+02 -.158E+04   -.945E-01 -.911E-02 -.129E+01   0.132E-01 0.171E-02 -.365E-01
   0.218E+02 -.665E+02 0.168E+04   -.213E+02 0.662E+02 -.167E+04   -.649E+00 0.159E+00 -.883E+00   0.220E-01 0.151E-01 -.142E-01
   0.978E+01 0.145E+02 -.164E+04   -.101E+02 -.148E+02 0.164E+04   0.382E+00 0.162E+00 0.122E+01   0.410E-02 0.199E-02 0.783E-01
   -.319E+02 0.373E+01 0.335E+04   0.304E+02 -.407E+01 -.335E+04   0.156E+01 0.358E+00 -.325E+01   -.287E-01 0.747E-02 -.358E-01
   0.347E+01 0.817E+02 0.162E+04   -.376E+01 -.814E+02 -.162E+04   0.358E+00 -.388E+00 -.112E+01   -.220E-01 0.161E-01 -.375E-01
   -.601E+02 0.177E+02 0.371E+02   0.599E+02 -.173E+02 -.372E+02   0.215E+00 -.369E+00 -.801E-01   -.123E-01 -.259E-02 0.537E-01
   -.713E+02 -.414E+02 -.163E+04   0.711E+02 0.408E+02 0.163E+04   0.218E+00 0.760E+00 0.176E+01   -.171E-01 0.548E-02 0.671E-01
   0.128E+02 0.739E+02 -.162E+04   -.127E+02 -.730E+02 0.162E+04   -.131E+00 -.994E+00 0.975E+00   0.271E-02 -.193E-02 0.803E-01
   -.373E+02 -.250E+01 0.331E+04   0.378E+02 0.205E+01 -.330E+04   -.443E+00 0.443E+00 -.278E+01   0.151E-01 -.586E-02 -.398E-01
   0.205E+02 0.216E+02 0.304E+04   -.205E+02 -.215E+02 -.304E+04   -.134E+00 -.117E+00 -.618E+00   0.346E-01 -.295E-01 -.384E-01
   -.197E+02 0.574E+01 0.297E+04   0.213E+02 -.585E+01 -.297E+04   -.170E+01 0.125E+00 -.213E+01   0.931E-02 -.138E-01 -.241E-01
   -.668E+02 -.115E+03 0.148E+04   0.669E+02 0.115E+03 -.148E+04   -.906E-01 0.515E+00 -.931E+00   0.306E-02 0.797E-02 -.198E-01
   -.678E+02 -.164E+02 -.543E+02   0.670E+02 0.170E+02 0.536E+02   0.778E+00 -.727E+00 0.629E+00   0.165E-01 -.509E-02 0.411E-01
   -.111E+03 -.228E+00 0.148E+04   0.111E+03 0.613E+00 -.148E+04   0.524E-01 -.428E+00 -.425E+00   -.118E-01 -.104E-02 -.541E-02
   0.423E+02 0.332E+02 0.148E+04   -.422E+02 -.327E+02 -.148E+04   -.366E-01 -.378E+00 0.475E-01   0.211E-01 -.293E-01 -.337E-01
   0.752E+02 0.218E+02 -.148E+04   -.748E+02 -.220E+02 0.148E+04   -.433E+00 0.227E+00 0.171E+01   -.157E-01 0.197E-01 0.759E-01
   0.458E+02 -.350E+02 0.303E+04   -.450E+02 0.338E+02 -.303E+04   -.830E+00 0.130E+01 -.201E+01   0.176E-01 0.170E-01 -.450E-01
   0.171E+02 0.359E+02 0.146E+04   -.167E+02 -.358E+02 -.146E+04   -.438E+00 -.155E+00 -.405E+00   0.227E-01 -.108E-01 -.262E-01
   0.810E+02 -.495E+02 0.419E+02   -.808E+02 0.492E+02 -.419E+02   -.189E+00 0.319E+00 -.173E+00   -.533E-02 0.133E-01 0.640E-01
   0.872E+01 0.564E+02 0.244E+04   -.844E+01 -.559E+02 -.244E+04   -.317E+00 -.536E+00 -.279E+01   0.243E-01 -.209E-01 -.162E-01
   -.196E+02 -.504E+02 0.116E+04   0.197E+02 0.507E+02 -.116E+04   -.898E-01 -.336E+00 -.746E+00   0.117E-01 -.270E-02 -.935E-02
   0.219E+02 -.150E+02 0.117E+04   -.215E+02 0.147E+02 -.117E+04   -.394E+00 0.353E+00 -.809E+00   -.184E-01 0.192E-04 -.365E-02
   -.532E+02 -.436E+02 -.222E+02   0.534E+02 0.441E+02 0.218E+02   -.145E+00 -.544E+00 0.296E+00   0.946E-02 -.274E-02 0.352E-01
   0.426E+02 0.143E+02 -.118E+04   -.423E+02 -.141E+02 0.118E+04   -.251E+00 -.218E+00 0.111E+01   0.488E-02 -.108E-01 0.585E-01
   -.776E+02 -.136E+02 -.120E+04   0.775E+02 0.137E+02 0.120E+04   0.250E+00 -.119E+00 0.147E+01   0.960E-03 0.569E-02 0.619E-01
   0.159E+02 -.146E+02 0.243E+04   -.162E+02 0.149E+02 -.243E+04   0.225E+00 -.377E+00 -.326E+01   0.179E-02 0.192E-01 -.195E-01
   -.136E+02 -.509E+02 0.245E+04   0.135E+02 0.498E+02 -.245E+04   0.104E+00 0.116E+01 -.278E+01   0.883E-02 0.239E-02 -.244E-01
   -.316E+02 0.532E+01 0.279E+02   0.322E+02 -.546E+01 -.281E+02   -.583E+00 0.976E-01 0.878E-01   -.130E-01 -.702E-02 0.385E-01
   0.251E+02 0.521E+01 0.331E+02   -.257E+02 -.578E+01 -.332E+02   0.507E+00 0.565E+00 -.249E-01   -.110E-02 0.915E-03 0.388E-01
   -.383E+02 0.590E+01 0.120E+04   0.381E+02 -.563E+01 -.120E+04   0.207E+00 -.296E+00 -.105E+01   -.631E-02 0.180E-01 -.110E-01
   0.505E+02 0.198E+02 -.679E+02   -.503E+02 -.205E+02 0.686E+02   -.155E+00 0.814E+00 -.767E+00   0.755E-02 -.849E-02 0.299E-01
   -.356E+01 -.144E+02 -.758E+01   0.371E+01 0.139E+02 0.711E+01   -.139E+00 0.504E+00 0.424E+00   -.708E-03 -.769E-02 0.278E-01
   -.411E+02 0.288E+02 0.135E+04   0.411E+02 -.288E+02 -.135E+04   0.105E-01 -.233E-01 -.114E+00   -.222E-01 0.562E-03 -.210E-01
   -.237E+02 -.766E+01 0.134E+04   0.240E+02 0.821E+01 -.133E+04   -.246E+00 -.569E+00 -.995E+00   -.774E-02 0.524E-02 -.839E-03
   -.682E+01 -.901E+00 0.272E+04   0.566E+01 0.140E+01 -.272E+04   0.113E+01 -.459E+00 -.238E+01   -.160E-01 -.145E-01 -.250E-01
   0.349E+02 0.198E+02 0.270E+04   -.340E+02 -.201E+02 -.269E+04   -.799E+00 0.335E+00 -.276E+01   0.399E-02 -.215E-01 -.368E-01
   0.716E+02 0.269E+01 0.132E+04   -.719E+02 -.286E+01 -.132E+04   0.258E+00 0.232E+00 0.955E-02   0.142E-01 -.120E-01 -.121E-01
   0.642E+02 0.291E+02 0.130E+04   -.644E+02 -.290E+02 -.130E+04   0.214E+00 -.111E+00 -.113E+00   0.900E-02 -.309E-01 -.145E-01
   0.543E+02 0.296E+02 -.129E+04   -.545E+02 -.301E+02 0.129E+04   0.238E+00 0.494E+00 0.114E+01   0.427E-02 -.140E-01 0.636E-01
   0.498E+02 0.557E+02 0.274E+04   -.505E+02 -.552E+02 -.274E+04   0.657E+00 -.558E+00 -.181E+01   -.112E-01 -.800E-02 -.216E-01
   0.485E+02 0.304E+02 -.143E+01   -.490E+02 -.299E+02 0.137E+01   0.585E+00 -.591E+00 -.399E-01   -.271E-02 0.307E-02 0.499E-01
   0.221E+02 0.744E+02 -.143E+02   -.220E+02 -.735E+02 0.145E+02   -.790E-01 -.104E+01 -.438E+00   0.429E-02 0.138E-01 0.508E-01
   0.102E+03 0.451E+02 0.315E+02   -.101E+03 -.450E+02 -.318E+02   -.576E+00 -.232E+00 0.123E+00   -.832E-02 0.250E-01 0.624E-01
   -.770E+02 -.106E+03 0.127E+02   0.774E+02 0.106E+03 -.129E+02   -.452E+00 0.370E+00 0.127E+00   -.195E-02 0.113E-01 0.335E-01
   0.383E+01 0.378E+00 -.348E+03   -.400E+01 -.498E+00 0.350E+03   0.221E+00 0.130E+00 -.168E+01   -.528E-06 -.216E-03 -.298E-02
 -----------------------------------------------------------------------------------------------
   -.610E+00 -.728E+00 -.417E+01   0.630E-12 -.115E-12 -.148E-11   0.664E+00 0.633E+00 0.291E+01   -.286E-01 0.671E-01 0.127E+01
 
 
 POSITION                                       TOTAL-FORCE (eV/Angst)
 -----------------------------------------------------------------------------------
     12.97083      8.00663      6.95934        -0.009227      0.016603      0.013772
      5.12180      8.06609      6.95468         0.005441     -0.006545     -0.026788
      5.02443      3.45952      7.04609        -0.007765     -0.014352      0.032542
     14.31647      8.77700      9.32900        -0.000654      0.006926      0.001372
      3.77042      4.18589      9.45893         0.006614     -0.002564      0.021419
      6.40910      8.78404      9.29538        -0.001209     -0.001950     -0.015490
     11.64933      4.18703      9.33797         0.004476     -0.002180     -0.005591
      9.02871      8.77532      9.22571        -0.011405      0.000533     -0.007466
     10.35203      1.92795      9.27551         0.004088      0.001186      0.010144
      2.43902      1.90517      9.27982         0.010292     -0.022629      0.007380
     11.64714      8.78067      9.33453         0.024203      0.001582     -0.000345
     12.99111      6.51515      9.42099         0.001065     -0.010170      0.007249
      5.05991      1.91355      9.39350         0.015551      0.016430      0.006177
      7.72120      6.49944      9.38612         0.005388      0.011071     -0.003769
      9.03826      4.21776      9.32873         0.014998     -0.013894     -0.000837
      5.08816      6.50388      9.34164         0.011887      0.003277      0.004046
      7.71409      1.91381      9.33756        -0.007145     -0.008780     -0.020785
      7.80980      3.39139      6.98804         0.002659     -0.011281      0.019223
      6.32512      1.11248      6.92706        -0.007604      0.003474      0.028711
      6.42748      1.11951      0.84379        -0.004313      0.039869      0.014235
      3.74457      4.22498      2.80295        -0.007532      0.019528     -0.029920
      1.13637      1.23606      6.89213        -0.008055     -0.019478      0.003859
      1.05351      1.23301      0.75714         0.003615      0.012584      0.008706
      6.37970      8.73232      2.89580        -0.009386      0.025709      0.008808
      6.39828      4.21746      9.39047        -0.011305     -0.027167      0.003767
      7.71519      4.98986      4.84188        -0.016236     -0.041569     -0.015944
     10.31953      6.51498      9.29305        -0.006354     -0.011794      0.023930
     14.36690      7.24966      4.78751         0.001317      0.010467     -0.019769
     11.63861      5.69195      7.01743        -0.008144     -0.013926      0.026606
      6.43191      5.77416      7.02055        -0.013891      0.017900     -0.001811
      3.72880      2.59487      4.89932         0.014152     -0.000910      0.012067
     10.40714      4.90964      4.85294         0.030148      0.011107      0.004885
      3.72973      5.71078      7.07056        -0.004052     -0.012588      0.030246
     13.01076      7.95414      0.82285        -0.019172      0.032105     -0.014100
      5.07062      7.97664      0.75916        -0.001188      0.010676     -0.002910
      3.74725      5.77233      0.77268         0.005675      0.009065     -0.014544
      7.73906      1.95923      2.91892         0.008988     -0.003514     -0.003265
      9.04575      8.78897      2.87226        -0.007681     -0.014428      0.006511
      2.42984      3.47523      7.05994         0.006496     -0.000737      0.023172
      2.40788      3.44595      0.73676        -0.012310      0.023089     -0.004928
     10.29842      1.96823      2.88139         0.020259     -0.012592     -0.005001
     13.01351      4.98805      4.94410         0.034205     -0.022410     -0.019021
      3.72370      1.09268      7.02622         0.006114      0.003783      0.003856
      9.03700      5.76910      7.05525         0.014337      0.000085      0.005897
      3.74683      1.15285      0.81959        -0.001114      0.008431      0.002744
      9.06513      5.72471      0.92537        -0.014974      0.024394     -0.003397
      5.21212      3.41637      0.86086         0.002114      0.008593     -0.017700
     11.65625      8.70496      2.91787        -0.020010     -0.007993      0.016088
     11.62151      7.29974      4.90178         0.028163     -0.013931     -0.007397
     12.89980      6.49745      2.82364         0.018966     -0.027342     -0.002187
      9.01343      4.18612      2.81919         0.014753      0.005818     -0.003455
      7.80048      8.01099      6.95743        -0.007250     -0.007059     -0.006480
      7.81053      7.92859      0.86888        -0.018772     -0.002314      0.018555
     10.31657      6.54831      2.89472         0.019594      0.015230     -0.020708
      2.46166      0.31661      4.92733        -0.006418     -0.021134     -0.013702
      7.75154      3.52543      0.86333         0.000451      0.010458      0.010617
      5.10291      1.89984      2.87069         0.000994      0.015541      0.014106
      5.17349      6.40557      2.77226        -0.029197      0.033234     -0.005693
      7.65418      0.39388      4.89233         0.014242     -0.039460     -0.023695
      9.05527      1.15455      7.10903         0.001085     -0.008993     -0.005270
     10.30411      7.98814      6.99179         0.009363     -0.010280     -0.002159
      9.02330      1.20380      0.78512        -0.021181     -0.017657      0.013841
     10.37425      7.90856      0.90129        -0.034828      0.010415      0.013250
      5.10488      4.93977      4.94140        -0.001990     -0.009717      0.014135
     11.69653      2.64892      4.87494        -0.021478      0.007490     -0.032791
     14.26247      8.83804      2.80295        -0.035463      0.008974     -0.025941
      9.09183      2.62352      4.93970         0.000912      0.009248      0.001671
      6.39598      2.67997      4.92292         0.012005     -0.028926     -0.032301
     11.64052      4.17844      2.78900        -0.009765      0.010964      0.014183
      2.34972      1.92500      2.86197         0.005168      0.003425     -0.026572
     11.59075      5.72177      0.94802        -0.022880      0.010108     -0.012895
      6.50379      5.69604      0.91052         0.001116      0.005376      0.007018
      7.71278      6.45493      2.81038        -0.010626      0.015889      0.031817
      6.43155      4.20716      2.83788         0.012013     -0.013488      0.000421
     10.36187      3.38985      7.00369        -0.003836      0.005570      0.018672
     10.36553      3.54396      0.90454        -0.006753      0.007623     -0.024483
     10.23662      0.46679      4.91587        -0.030798      0.011495      0.025979
      9.06408      7.34028      4.95059         0.011245     -0.042637     -0.017710
      6.48344      7.27349      4.94428         0.018791     -0.014631     -0.008170
      5.04827      0.31035      4.87551         0.005282      0.026179     -0.020018
     13.00256      4.99798     10.42967         0.043734      0.009520     -0.006666
 -----------------------------------------------------------------------------------
    total drift:                                0.025592     -0.028464      0.009545


--------------------------------------------------------------------------------------------------------



  FREE ENERGIE OF THE ION-ELECTRON SYSTEM (eV)
  ---------------------------------------------------
  free  energy   TOTEN  =      -514.79976075 eV

  energy  without entropy=     -514.80249978  energy(sigma->0) =     -514.80067376
 
 d Force = 0.2053600E-02[ 0.100E-02, 0.311E-02]  d Energy = 0.2227328E-02-0.174E-03
 d Force = 0.9341965E+02[ 0.934E+02, 0.934E+02]  d Ewald  = 0.9341968E+02-0.302E-04


--------------------------------------------------------------------------------------------------------


    POTLOK:  cpu time    0.4458: real time    0.4469


--------------------------------------------------------------------------------------------------------


 Conjugate gradient step on ions:
 trial-energy change:   -0.002227  1 .order   -0.002054   -0.003105   -0.001002
  (g-gl).g = 0.243E-02      g.g   = 0.232E-02  gl.gl    = 0.412E-02
 g(Force)  = 0.232E-02   g(Stress)= 0.000E+00 ortho     =-0.253E-03
 gamma     =   0.59070
 trial     =   1.42762
 opt step  =   1.84255  (harmonic =   2.10802) maximal distance =0.01358219
 next E    =  -514.799911   (d E  =  -0.00238)


--------------------------------------------------------------------------------------------------------


  
 reached required accuracy - stopping structural energy minimisation
     LOOP+:  cpu time  839.0607: real time  841.3347
    4ORBIT:  cpu time    0.0000: real time    0.0000

 total amount of memory used by VASP MPI-rank0   259158. kBytes
=======================================================================

   base      :      30000. kBytes
   nonlr-proj:      34704. kBytes
   fftplans  :      17962. kBytes
   grid      :      55536. kBytes
   one-center:        653. kBytes
   wavefun   :     120303. kBytes
 
  
  
 General timing and accounting informations for this job:
 ========================================================
  
                  Total CPU time used (sec):    17630.969
                            User time (sec):    17616.212
                          System time (sec):       14.757
                         Elapsed time (sec):    17742.657
  
                   Maximum memory used (kb):     1009764.
                   Average memory used (kb):           0.
  
                          Minor page faults:      3978150
                          Major page faults:            0
                 Voluntary context switches:         3006
