 vasp.5.4.4.18Apr17-6-g9f103f2a35 (build Nov 30 2020 22:55:02) complex          
  
 executed on             LinuxIFC date 2023.09.08  21:21:36
 running on   40 total cores
 distrk:  each k-point on   40 cores,    1 groups
 distr:  one band on NCORES_PER_BAND=   4 cores,   10 groups


--------------------------------------------------------------------------------------------------------


 INCAR:
 POTCAR:    PAW_PBE Pt 04Feb2005                  
 POTCAR:    PAW_PBE H 15Jun2001                   
 POTCAR:    PAW_PBE Pt 04Feb2005                  
   VRHFIN =Pt: s1d9                                                             
   LEXCH  = PE                                                                  
   EATOM  =   729.1176 eV,   53.5886 Ry                                         
                                                                                
   TITEL  = PAW_PBE Pt 04Feb2005                                                
   LULTRA =        F    use ultrasoft PP ?                                      
   IUNSCR =        1    unscreen: 0-lin 1-nonlin 2-no                           
   RPACOR =    2.330    partial core radius                                     
   POMASS =  195.080; ZVAL   =   10.000    mass and valenz                      
   RCORE  =    2.600    outmost cutoff radius                                   
   RWIGS  =    2.750; RWIGS  =    1.455    wigner-seitz radius (au A)           
   ENMAX  =  230.283; ENMIN  =  172.712 eV                                      
   ICORE  =        3    local potential                                         
   LCOR   =        T    correct aug charges                                     
   LPAW   =        T    paw PP                                                  
   EAUG   =  358.966                                                            
   DEXC   =    0.000                                                            
   RMAX   =    2.658    core radius for proj-oper                               
   RAUG   =    1.300    factor for augmentation sphere                          
   RDEP   =    2.761    radius for radial grids                                 
   RDEPT  =    2.203    core radius for aug-charge                              
                                                                                
   Atomic configuration                                                         
   16 entries                                                                   
     n  l   j            E        occ.                                          
     1  0  0.50    -78401.1885   2.0000                                         
     2  0  0.50    -13770.7750   2.0000                                         
     2  1  1.50    -11931.0468   6.0000                                         
     3  0  0.50     -3234.7234   2.0000                                         
     3  1  1.50     -2699.2216   6.0000                                         
     3  2  2.50     -2119.5714  10.0000                                         
     4  0  0.50      -695.1528   2.0000                                         
     4  1  1.50      -519.6034   6.0000                                         
     4  2  2.50      -306.6786  10.0000                                         
     4  3  3.50       -70.1041  14.0000                                         
     5  0  0.50      -101.7747   2.0000                                         
     5  1  1.50       -55.9873   6.0000                                         
     5  2  2.50        -6.1423   9.0000                                         
     6  0  0.50        -5.6573   1.0000                                         
     6  1  1.50        -6.8029   0.0000                                         
     5  3  2.50        -1.3606   0.0000                                         
   Description                                                                  
     l       E           TYP  RCUT    TYP  RCUT                                 
     2     -6.1423404     23  2.500                                             
     2     -7.5029230     23  2.500                                             
     0     -5.6573207     23  2.500                                             
     0      0.7416693     23  2.500                                             
     1     -2.7211652     23  2.600                                             
     1     20.4087390     23  2.600                                             
     3     -1.3605826     23  2.500                                             
  local pseudopotential read in
  partial core-charges read in
  partial kinetic energy density read in
  atomic valenz-charges read in
  non local Contribution for L=           2  read in
    real space projection operators read in
  non local Contribution for L=           2  read in
    real space projection operators read in
  non local Contribution for L=           0  read in
    real space projection operators read in
  non local Contribution for L=           0  read in
    real space projection operators read in
  non local Contribution for L=           1  read in
    real space projection operators read in
  non local Contribution for L=           1  read in
    real space projection operators read in
    PAW grid and wavefunctions read in
 
   number of l-projection  operators is LMAX  =           6
   number of lm-projection operators is LMMAX =          18
 
 POTCAR:    PAW_PBE H 15Jun2001                   
   VRHFIN =H: ultrasoft test                                                    
   LEXCH  = PE                                                                  
   EATOM  =    12.4884 eV,    0.9179 Ry                                         
                                                                                
   TITEL  = PAW_PBE H 15Jun2001                                                 
   LULTRA =        F    use ultrasoft PP ?                                      
   IUNSCR =        0    unscreen: 0-lin 1-nonlin 2-no                           
   RPACOR =    0.000    partial core radius                                     
   POMASS =    1.000; ZVAL   =    1.000    mass and valenz                      
   RCORE  =    1.100    outmost cutoff radius                                   
   RWIGS  =    0.700; RWIGS  =    0.370    wigner-seitz radius (au A)           
   ENMAX  =  250.000; ENMIN  =  200.000 eV                                      
   RCLOC  =    0.701    cutoff for local pot                                    
   LCOR   =        T    correct aug charges                                     
   LPAW   =        T    paw PP                                                  
   EAUG   =  400.000                                                            
   RMAX   =    1.123    core radius for proj-oper                               
   RAUG   =    1.200    factor for augmentation sphere                          
   RDEP   =    1.112    radius for radial grids                                 
   RDEPT  =    0.926    core radius for aug-charge                              
                                                                                
   Atomic configuration                                                         
    2 entries                                                                   
     n  l   j            E        occ.                                          
     1  0  0.50        -6.4927   1.0000                                         
     2  1  0.50        -3.4015   0.0000                                         
   Description                                                                  
     l       E           TYP  RCUT    TYP  RCUT                                 
     0     -6.4927494     23  1.100                                             
     0      6.8029130     23  1.100                                             
     1     -4.0817478     23  1.100                                             
  local pseudopotential read in
  atomic valenz-charges read in
  non local Contribution for L=           0  read in
    real space projection operators read in
  non local Contribution for L=           0  read in
    real space projection operators read in
  non local Contribution for L=           1  read in
    real space projection operators read in
    PAW grid and wavefunctions read in
 
   number of l-projection  operators is LMAX  =           3
   number of lm-projection operators is LMMAX =           5
 
 Optimization of the real space projectors (new method)

 maximal supplied QI-value         = 14.36
 optimisation between [QCUT,QGAM] = [ 11.92, 23.98] = [ 39.79,161.09] Ry 
 Optimized for a Real-space Cutoff    1.49 Angstroem

   l    n(q)    QCUT    max X(q) W(low)/X(q) W(high)/X(q)  e(spline) 
   2     10    11.920    66.195    0.79E-04    0.18E-03    0.24E-06
   2     10    11.920    64.643    0.81E-04    0.19E-03    0.24E-06
   0     11    11.920    95.520    0.28E-04    0.54E-04    0.18E-06
   0     11    11.920    63.403    0.27E-04    0.52E-04    0.17E-06
   1     10    11.920    19.961    0.18E-04    0.11E-03    0.23E-06
   1     10    11.920    13.289    0.25E-04    0.87E-04    0.19E-06
 Optimization of the real space projectors (new method)

 maximal supplied QI-value         = 34.20
 optimisation between [QCUT,QGAM] = [ 11.97, 23.94] = [ 40.13,160.53] Ry 
 Optimized for a Real-space Cutoff    1.18 Angstroem

   l    n(q)    QCUT    max X(q) W(low)/X(q) W(high)/X(q)  e(spline) 
   0      8    11.971    19.460    0.15E-03    0.31E-03    0.25E-06
   0      8    11.971    12.209    0.13E-03    0.29E-03    0.25E-06
   1      8    11.971     4.655    0.22E-03    0.24E-03    0.21E-06
  PAW_PBE Pt 04Feb2005                  :
 energy of atom  1       EATOM= -729.1176
 kinetic energy error for atom=    0.0021 (will be added to EATOM!!)
  PAW_PBE H 15Jun2001                   :
 energy of atom  2       EATOM=  -12.4884
 kinetic energy error for atom=    0.0008 (will be added to EATOM!!)
 
 
 POSCAR: Pt111                                   
  positions in direct lattice
  velocities in cartesian coordinates
 exchange correlation table for  LEXCH =        8
   RHO(1)=    0.500       N(1)  =     2000
   RHO(2)=  100.500       N(2)  =     4000
 


--------------------------------------------------------------------------------------------------------


 ion  position               nearest neighbor table
   1  0.785  0.869  0.330-  56 2.74   2 2.74  73 2.74   3 2.74  72 2.74  43 2.74  71 2.77  20 2.77
                            55 2.77  35 2.81  27 2.81  34 2.82
   2  0.035  0.870  0.330-  72 2.74   1 2.74  23 2.74  47 2.74   3 2.74  57 2.74  65 2.76  55 2.76
                            68 2.77  39 2.80  29 2.81  27 2.82
   3  0.035  0.619  0.330-  15 2.74   9 2.74   1 2.74   2 2.74  56 2.74  57 2.74  55 2.76  12 2.76
                            76 2.77  39 2.80  28 2.81  35 2.82
   4  0.787  0.868  0.018-   5 2.74  58 2.74  75 2.74   6 2.74  74 2.74  44 2.74  21 2.81  78 2.81
                            19 2.82
   5  0.037  0.868  0.018-  74 2.74  48 2.74   4 2.74  24 2.74   6 2.74  59 2.75  49 2.81  70 2.81
                            78 2.82
   6  0.037  0.618  0.018-  18 2.74  59 2.74   4 2.74  58 2.74   5 2.74  10 2.74  70 2.81  46 2.81
                            21 2.82
   7  0.619  0.202  0.123-  78 2.74  19 2.74  11 2.74  53 2.74  61 2.74  22 2.74  71 2.76  79 2.77
                            80 2.77  42 2.81  44 2.81  74 2.82
   8  0.369  0.952  0.123-  54 2.74  25 2.74  49 2.74  19 2.74  60 2.74  53 2.74  66 2.77  69 2.77
                            26 2.77  16 2.81  24 2.81  75 2.82
   9  0.035  0.369  0.330-  13 2.74  47 2.74   3 2.74  56 2.74  15 2.75  63 2.75  12 2.76  77 2.77
                            62 2.77  33 2.81  28 2.81  30 2.81
  10  0.037  0.368  0.018-  64 2.74  48 2.74  18 2.74  16 2.74  58 2.74   6 2.74  54 2.81  46 2.81
                            45 2.82
  11  0.869  0.202  0.123-  22 2.74   7 2.74  54 2.74  78 2.74  49 2.74  45 2.74  65 2.76  77 2.77
                            79 2.77  64 2.81  74 2.81  48 2.82
  12  0.952  0.536  0.227-  62 2.74  77 2.74  55 2.74  20 2.74  76 2.74  67 2.74   3 2.76   9 2.76
                            21 2.77  45 2.77  56 2.77  46 2.77
  13  0.285  0.120  0.330-   9 2.74  43 2.74  47 2.74  73 2.74  15 2.74  23 2.75  62 2.76  26 2.77
                            69 2.77  31 2.80  36 2.81  33 2.81
  14  0.534  0.619  0.331-  57 2.73  41 2.73  23 2.73  63 2.74  73 2.74  56 2.74  51 2.77  66 2.78
                            67 2.78  52 2.81  38 2.84  37 2.85
  15  0.285  0.370  0.330-  41 2.73  57 2.74   3 2.74  43 2.74  13 2.74   9 2.75  76 2.77  80 2.77
                            62 2.78  36 2.80  28 2.81  50 2.82
  16  0.287  0.118  0.018-  44 2.74  75 2.74  18 2.74  24 2.74  48 2.74  10 2.74   8 2.81  53 2.81
                            54 2.82
  17  0.537  0.618  0.018-  24 2.74  59 2.74  42 2.74  64 2.74  58 2.74  75 2.74  22 2.81  25 2.81
                            60 2.82
  18  0.287  0.368  0.018-   6 2.74  59 2.74  10 2.74  44 2.74  16 2.74  42 2.74  53 2.81  61 2.81
                            46 2.82
  19  0.619  0.952  0.123-  78 2.74  21 2.74  25 2.74   7 2.74   8 2.74  53 2.74  20 2.76  71 2.77
                            69 2.77  44 2.81  75 2.81   4 2.82
  20  0.702  0.786  0.227-  71 2.74  69 2.74  55 2.74  12 2.74  66 2.74  67 2.74  56 2.76  19 2.76
                            25 2.77  73 2.77  21 2.77   1 2.77
  21  0.869  0.702  0.123-  19 2.74  45 2.74  25 2.74  78 2.74  46 2.74  70 2.74  12 2.77  55 2.77
                            20 2.77   4 2.81  58 2.81   6 2.82
  22  0.619  0.452  0.123-  45 2.74  61 2.74  11 2.74  25 2.74   7 2.74  60 2.74  79 2.76  67 2.77
                            51 2.78  17 2.81  42 2.81  64 2.82
  23  0.285  0.869  0.330-  14 2.73  57 2.73  73 2.74   2 2.74  13 2.75  47 2.75  68 2.77  26 2.77
                            66 2.77  31 2.81  29 2.81  37 2.81
  24  0.287  0.868  0.018-  17 2.74  59 2.74  48 2.74   5 2.74  16 2.74  75 2.74  60 2.81   8 2.81
                            49 2.82
  25  0.619  0.702  0.123-  21 2.74  45 2.74  19 2.74   8 2.74  22 2.74  60 2.74  20 2.77  67 2.77
                            66 2.77  17 2.81  75 2.81  58 2.82
  26  0.202  0.036  0.227-  62 2.74  77 2.74  69 2.74  65 2.74  66 2.74  68 2.74  54 2.76  49 2.77
                            13 2.77   8 2.77  47 2.77  23 2.77
  27  0.867  0.954  0.436-  39 2.72  40 2.72  29 2.73  32 2.74  34 2.74  35 2.75  72 2.81   1 2.81
                             2 2.82
  28  0.117  0.454  0.436-  50 2.71  35 2.73  30 2.73  33 2.74  39 2.74  36 2.74   3 2.81   9 2.81
                            15 2.81
  29  0.117  0.954  0.435-  37 2.71  32 2.73  27 2.73  33 2.74  39 2.74  31 2.75  47 2.80   2 2.81
                            23 2.81
  30  0.868  0.454  0.436-  38 2.71  35 2.73  28 2.73  33 2.74  52 2.74  32 2.75  63 2.81  56 2.81
                             9 2.81
  31  0.367  0.954  0.435-  37 2.71  36 2.73  34 2.73  33 2.74  52 2.74  29 2.75  13 2.80  23 2.81
                            73 2.82
  32  0.867  0.203  0.435-  38 2.71  29 2.73  27 2.74  40 2.74  33 2.74  30 2.75  63 2.80  72 2.81
                            47 2.82
  33  0.117  0.204  0.435-  29 2.74  31 2.74  30 2.74  28 2.74  32 2.74  36 2.74   9 2.81  47 2.81
                            13 2.81
  34  0.617  0.954  0.436-  52 2.72  40 2.72  31 2.73  36 2.73  27 2.74  35 2.75  43 2.81   1 2.82
                            73 2.82
  35  0.868  0.703  0.436-  52 2.72  39 2.72  30 2.73  28 2.73  27 2.75  34 2.75   1 2.81  56 2.82
                             3 2.82
  36  0.368  0.203  0.436-  50 2.71  31 2.73  34 2.73  40 2.74  33 2.74  28 2.74  15 2.80  13 2.81
                            43 2.82
  37  0.365  0.709  0.438-  81 1.84  29 2.71  31 2.71  39 2.76  52 2.76  50 2.81  38 2.81  23 2.81
                            57 2.85  14 2.85
  38  0.621  0.452  0.438-  81 1.86  30 2.71  32 2.71  52 2.76  40 2.76  50 2.81  37 2.81  63 2.82
                            14 2.84  41 2.85
  39  0.115  0.705  0.435-  27 2.72  35 2.72  28 2.74  29 2.74  50 2.76  37 2.76   2 2.80   3 2.80
                            57 2.81
  40  0.618  0.201  0.435-  27 2.72  34 2.72  32 2.74  36 2.74  38 2.76  50 2.76  43 2.80  41 2.80
                            72 2.81
  41  0.534  0.370  0.331-  63 2.73  15 2.73  14 2.73  57 2.73  72 2.74  43 2.74  51 2.77  80 2.78
                            79 2.78  40 2.80  38 2.85  50 2.85
  42  0.537  0.368  0.018-  74 2.74  44 2.74  64 2.74  17 2.74  59 2.74  18 2.74   7 2.81  22 2.81
                            61 2.82
  43  0.535  0.120  0.330-  15 2.74  73 2.74  13 2.74  72 2.74   1 2.74  41 2.74  80 2.76  69 2.77
                            71 2.77  40 2.80  34 2.81  36 2.82
  44  0.537  0.118  0.018-  16 2.74  42 2.74  75 2.74  74 2.74  18 2.74   4 2.74  19 2.81   7 2.81
                            53 2.82
  45  0.869  0.452  0.123-  22 2.74  21 2.74  25 2.74  46 2.74  11 2.74  54 2.74  77 2.76  12 2.77
                            67 2.77  58 2.81  64 2.81  10 2.82
  46  0.119  0.452  0.124-  53 2.74  45 2.74  54 2.74  21 2.74  70 2.74  61 2.74  62 2.76  76 2.77
                            12 2.77   6 2.81  10 2.81  18 2.82
  47  0.035  0.120  0.330-   9 2.74  72 2.74  13 2.74   2 2.74  63 2.74  23 2.75  77 2.76  65 2.77
                            26 2.77  29 2.80  33 2.81  32 2.82
  48  0.037  0.118  0.018-   5 2.74  10 2.74  24 2.74  74 2.74  16 2.74  64 2.74  49 2.81  54 2.81
                            11 2.82
  49  0.119  0.952  0.123-  70 2.74  60 2.74  54 2.74   8 2.74  11 2.74  78 2.74  26 2.77  68 2.77
                            65 2.77  48 2.81   5 2.81  24 2.82
  50  0.365  0.452  0.438-  81 1.88  28 2.71  36 2.71  39 2.76  40 2.76  38 2.81  37 2.81  15 2.82
                            57 2.84  41 2.85
  51  0.452  0.536  0.227-  67 2.74  76 2.74  80 2.74  79 2.74  66 2.74  68 2.74  41 2.77  14 2.77
                            60 2.77  61 2.77  57 2.78  22 2.78
  52  0.618  0.705  0.435-  34 2.72  35 2.72  31 2.74  30 2.74  38 2.76  37 2.76  73 2.80  56 2.80
                            14 2.81
  53  0.369  0.202  0.124-  46 2.74  54 2.74   7 2.74  61 2.74   8 2.74  19 2.74  69 2.76  80 2.77
                            62 2.77  18 2.81  16 2.81  44 2.82
  54  0.119  0.202  0.123-   8 2.74  49 2.74  53 2.74  11 2.74  46 2.74  45 2.74  26 2.76  62 2.77
                            77 2.77  10 2.81  48 2.81  16 2.82
  55  0.952  0.786  0.227-  71 2.74  65 2.74  12 2.74  20 2.74  68 2.74  76 2.74   2 2.76   3 2.76
                            78 2.77  21 2.77  70 2.77   1 2.77
  56  0.785  0.619  0.330-  63 2.74   9 2.74   1 2.74  73 2.74   3 2.74  14 2.74  67 2.76  20 2.76
                            12 2.77  52 2.80  30 2.81  35 2.82
  57  0.285  0.620  0.331-  14 2.73  41 2.73  23 2.73  15 2.74   3 2.74   2 2.74  68 2.78  51 2.78
                            76 2.78  39 2.81  50 2.84  37 2.85
  58  0.787  0.618  0.018-   4 2.74  75 2.74  64 2.74  17 2.74   6 2.74  10 2.74  21 2.81  45 2.81
                            25 2.82
  59  0.287  0.618  0.018-  18 2.74  17 2.74   6 2.74  24 2.74  42 2.74   5 2.75  61 2.81  60 2.81
                            70 2.82
  60  0.369  0.702  0.123-  70 2.74  61 2.74  49 2.74   8 2.74  22 2.74  25 2.74  66 2.77  68 2.77
                            51 2.77  24 2.81  59 2.81  17 2.82
  61  0.369  0.452  0.123-  60 2.74  22 2.74   7 2.74  53 2.74  70 2.74  46 2.74  80 2.76  76 2.77
                            51 2.77  59 2.81  18 2.81  42 2.82
  62  0.202  0.286  0.227-  26 2.74  77 2.74  12 2.74  69 2.74  76 2.74  80 2.74  13 2.76  46 2.76
                            54 2.77  53 2.77   9 2.77  15 2.78
  63  0.784  0.370  0.330-  41 2.73  14 2.74  56 2.74  72 2.74  47 2.74   9 2.75  67 2.77  79 2.77
                            77 2.78  32 2.80  30 2.81  38 2.82
  64  0.787  0.368  0.018-  10 2.74  42 2.74  58 2.74  17 2.74  48 2.74  74 2.74  11 2.81  45 2.81
                            22 2.82
  65  0.952  0.036  0.227-  77 2.74  71 2.74  55 2.74  26 2.74  79 2.74  68 2.74   2 2.76  11 2.76
                            78 2.77  47 2.77  49 2.77  72 2.77
  66  0.452  0.786  0.227-  68 2.74  51 2.74  67 2.74  20 2.74  26 2.74  69 2.74  73 2.76   8 2.77
                            60 2.77  23 2.77  25 2.77  14 2.78
  67  0.702  0.536  0.227-  79 2.74  51 2.74  66 2.74  77 2.74  20 2.74  12 2.74  56 2.76  22 2.77
                            25 2.77  63 2.77  45 2.77  14 2.78
  68  0.202  0.786  0.227-  66 2.74  51 2.74  76 2.74  55 2.74  26 2.74  65 2.74  49 2.77  23 2.77
                             2 2.77  70 2.77  60 2.77  57 2.78
  69  0.452  0.036  0.227-  71 2.74  20 2.74  62 2.74  26 2.74  66 2.74  80 2.74  73 2.76  53 2.76
                            43 2.77   8 2.77  19 2.77  13 2.77
  70  0.119  0.702  0.123-  60 2.74  49 2.74  61 2.74  46 2.74  78 2.74  21 2.74  76 2.77  68 2.77
                            55 2.77   6 2.81   5 2.81  59 2.82
  71  0.702  0.036  0.227-  20 2.74  69 2.74  55 2.74  65 2.74  80 2.74  79 2.74   7 2.76  72 2.77
                            19 2.77   1 2.77  78 2.77  43 2.77
  72  0.785  0.120  0.330-   2 2.74  63 2.74  47 2.74  43 2.74   1 2.74  41 2.74  79 2.76  71 2.77
                            65 2.77  40 2.81  32 2.81  27 2.81
  73  0.535  0.870  0.330-  43 2.74  23 2.74   1 2.74  13 2.74  56 2.74  14 2.74  69 2.76  66 2.76
                            20 2.77  52 2.80  31 2.82  34 2.82
  74  0.787  0.118  0.018-  42 2.74   5 2.74  44 2.74   4 2.74  48 2.74  64 2.74  78 2.81  11 2.81
                             7 2.82
  75  0.537  0.868  0.018-  16 2.74  58 2.74   4 2.74  44 2.74  17 2.74  24 2.74  19 2.81  25 2.81
                             8 2.82
  76  0.202  0.536  0.227-  80 2.74  51 2.74  68 2.74  62 2.74  55 2.74  12 2.74  70 2.77  15 2.77
                            46 2.77   3 2.77  61 2.77  57 2.78
  77  0.952  0.286  0.227-  26 2.74  62 2.74  12 2.74  65 2.74  79 2.74  67 2.74  47 2.76  45 2.76
                            11 2.77   9 2.77  54 2.77  63 2.78
  78  0.869  0.952  0.123-   7 2.74  19 2.74  21 2.74  11 2.74  70 2.74  49 2.74  55 2.77  65 2.77
                            71 2.77  74 2.81   4 2.81   5 2.82
  79  0.702  0.286  0.227-  67 2.74  51 2.74  80 2.74  77 2.74  65 2.74  71 2.74  72 2.76  22 2.76
                             7 2.77  63 2.77  11 2.77  41 2.78
  80  0.452  0.286  0.227-  76 2.74  51 2.74  79 2.74  62 2.74  71 2.74  69 2.74  43 2.76  61 2.76
                            53 2.77   7 2.77  15 2.77  41 2.78
  81  0.450  0.540  0.479-  37 1.84  38 1.86  50 1.88
 
  LATTYP: Found a hexagonal cell.
 ALAT       =    10.9600000166
 C/A-ratio  =     2.0072992670
  
  Lattice vectors:
  
 A1 = (   5.4799999760,  -9.4916384585,   0.0000000000)
 A2 = ( -10.9600000060,   0.0000000000,   0.0000000000)
 A3 = (   0.0000000000,   0.0000000000, -22.0000000000)


Analysis of symmetry for initial positions (statically):
=====================================================================
 Subroutine PRICEL returns:
 Original cell was already a primitive cell.
 

 Routine SETGRP: Setting up the symmetry group for a 
 hexagonal supercell.


 Subroutine GETGRP returns: Found  1 space group operations
 (whereof  1 operations were pure point group operations)
 out of a pool of 24 trial point group operations.


The static configuration has the point symmetry C_1 .


Analysis of symmetry for dynamics (positions and initial velocities):
=====================================================================
 Subroutine PRICEL returns:
 Original cell was already a primitive cell.
 

 Routine SETGRP: Setting up the symmetry group for a 
 hexagonal supercell.


 Subroutine GETGRP returns: Found  1 space group operations
 (whereof  1 operations were pure point group operations)
 out of a pool of 24 trial point group operations.


The dynamic configuration has the point symmetry C_1 .


Analysis of constrained symmetry for selective dynamics:
=====================================================================
 Subroutine PRICEL returns:
 Original cell was already a primitive cell.
 

 Routine SETGRP: Setting up the symmetry group for a 
 hexagonal supercell.


 Subroutine GETGRP returns: Found  1 space group operations
 (whereof  1 operations were pure point group operations)
 out of a pool of 24 trial point group operations.


The constrained configuration has the point symmetry C_1 .


Analysis of structural, dynamic, and magnetic symmetry:
=====================================================================
 Subroutine PRICEL returns:
 Original cell was already a primitive cell.
 

 Routine SETGRP: Setting up the symmetry group for a 
 hexagonal supercell.


 Subroutine GETGRP returns: Found  1 space group operations
 (whereof  1 operations were pure point group operations)
 out of a pool of 24 trial point group operations.


The magnetic configuration has the point symmetry C_1 .


 Subroutine INISYM returns: Found  1 space group operations
 (whereof  1 operations are pure point group operations),
 and found     1 'primitive' translations

 
 
 KPOINTS: mesh auto                               

Automatic generation of k-mesh.
Space group operators:
 irot       det(A)        alpha          n_x          n_y          n_z        tau_x        tau_y        tau_z
    1     1.000000     0.000000     1.000000     0.000000     0.000000     0.000000     0.000000     0.000000
 
 Subroutine IBZKPT returns following result:
 ===========================================
 
 Found      4 irreducible k-points:
 
 Following reciprocal coordinates:
            Coordinates               Weight
  0.000000  0.000000  0.000000      1.000000
  0.500000  0.000000  0.000000      1.000000
  0.000000  0.500000  0.000000      1.000000
  0.500000  0.500000  0.000000      1.000000
 
 Following cartesian coordinates:
            Coordinates               Weight
  0.000000  0.000000  0.000000      1.000000
  0.045620 -0.026339  0.000000      1.000000
  0.000000  0.052678  0.000000      1.000000
  0.045620  0.026339  0.000000      1.000000
 


--------------------------------------------------------------------------------------------------------




 Dimension of arrays:
   k-points           NKPTS =      4   k-points in BZ     NKDIM =      4   number of bands    NBANDS=    530
   number of dos      NEDOS =    301   number of ions     NIONS =     81
   non local maximal  LDIM  =      6   non local SUM 2l+1 LMDIM =     18
   total plane-waves  NPLWV = ******
   max r-space proj   IRMAX =   7247   max aug-charges    IRDMAX=  31567
   dimension x,y,z NGX =    84 NGY =   84 NGZ =  168
   dimension x,y,z NGXF=   168 NGYF=  168 NGZF=  336
   support grid    NGXF=   168 NGYF=  168 NGZF=  336
   ions per type =              80   1
   NGX,Y,Z   is equivalent  to a cutoff of  12.74, 12.74, 12.70 a.u.
   NGXF,Y,Z  is equivalent  to a cutoff of  25.48, 25.48, 25.39 a.u.

 SYSTEM =  Pt111                                   
 POSCAR =  Pt111                                   

 Startparameter for this run:
   NWRITE =      2    write-flag & timer
   PREC   = accura    normal or accurate (medium, high low for compatibility)
   ISTART =      0    job   : 0-new  1-cont  2-samecut
   ICHARG =      2    charge: 1-file 2-atom 10-const
   ISPIN  =      2    spin polarized calculation?
   LNONCOLLINEAR =      F non collinear calculations
   LSORBIT =      F    spin-orbit coupling
   INIWAV =      1    electr: 0-lowe 1-rand  2-diag
   LASPH  =      F    aspherical Exc in radial PAW
   METAGGA=      F    non-selfconsistent MetaGGA calc.

 Electronic Relaxation 1
   ENCUT  =  550.0 eV  40.42 Ry    6.36 a.u.  20.96 20.96 42.07*2*pi/ulx,y,z
   ENINI  =  550.0     initial cutoff
   ENAUG  =  400.0 eV  augmentation charge cutoff
   NELM   =    200;   NELMIN=  2; NELMDL= -5     # of ELM steps 
   EDIFF  = 0.1E-04   stopping-criterion for ELM
   LREAL  =      T    real-space projection
   NLSPLINE    = F    spline interpolate recip. space projectors
   LCOMPAT=      F    compatible to vasp.4.4
   GGA_COMPAT  = T    GGA compatible to vasp.4.4-vasp.4.6
   LMAXPAW     = -100 max onsite density
   LMAXMIX     =    2 max onsite mixed and CHGCAR
   VOSKOWN=      0    Vosko Wilk Nusair interpolation
   ROPT   =   -0.00025  -0.00025
 Ionic relaxation
   EDIFFG = -.5E-01   stopping-criterion for IOM
   NSW    =    300    number of steps for IOM
   NBLOCK =      1;   KBLOCK =    300    inner block; outer block 
   IBRION =      2    ionic relax: 0-MD 1-quasi-New 2-CG
   NFREE  =      1    steps in history (QN), initial steepest desc. (CG)
   ISIF   =      2    stress and relaxation
   IWAVPR =     11    prediction:  0-non 1-charg 2-wave 3-comb
   ISYM   =      2    0-nonsym 1-usesym 2-fastsym
   LCORR  =      T    Harris-Foulkes like correction to forces

   POTIM  = 0.5000    time-step for ionic-motion
   TEIN   =    0.0    initial temperature
   TEBEG  =    0.0;   TEEND  =   0.0 temperature during run
   SMASS  =  -3.00    Nose mass-parameter (am)
   estimated Nose-frequenzy (Omega)   =  0.10E-29 period in steps =****** mass=  -0.275E-26a.u.
   SCALEE = 1.0000    scale energy and forces
   NPACO  =    256;   APACO  = 16.0  distance and # of slots for P.C.
   PSTRESS=    0.0 pullay stress

  Mass of Ions in am
   POMASS = 195.08  1.00
  Ionic Valenz
   ZVAL   =  10.00  1.00
  Atomic Wigner-Seitz radii
   RWIGS  =  -1.00 -1.00
  virtual crystal weights 
   VCA    =   1.00  1.00
   NELECT =     801.0000    total number of electrons
   NUPDOWN=      -1.0000    fix difference up-down

 DOS related values:
   EMIN   =  10.00;   EMAX   =-10.00  energy-range for DOS
   EFERMI =   0.00
   ISMEAR =     0;   SIGMA  =   0.05  broadening in eV -4-tet -1-fermi 0-gaus

 Electronic relaxation 2 (details)
   IALGO  =     68    algorithm
   LDIAG  =      T    sub-space diagonalisation (order eigenvalues)
   LSUBROT=      F    optimize rotation matrix (better conditioning)
   TURBO    =      0    0=normal 1=particle mesh
   IRESTART =      0    0=no restart 2=restart with 2 vectors
   NREBOOT  =      0    no. of reboots
   NMIN     =      0    reboot dimension
   EREF     =   0.00    reference energy to select bands
   IMIX   =      4    mixing-type and parameters
     AMIX     =   0.40;   BMIX     =  1.00
     AMIX_MAG =   1.60;   BMIX_MAG =  1.00
     AMIN     =   0.10
     WC   =   100.;   INIMIX=   1;  MIXPRE=   1;  MAXMIX= -45

 Intra band minimization:
   WEIMIN = 0.0010     energy-eigenvalue tresh-hold
   EBREAK =  0.47E-08  absolut break condition
   DEPER  =   0.30     relativ break condition  

   TIME   =   0.40     timestep for ELM

  volume/ion in A,a.u.               =      28.25       190.67
  Fermi-wavevector in a.u.,A,eV,Ry     =   1.153703  2.180183 18.109785  1.331032
  Thomas-Fermi vector in A             =   2.290345
 
 Write flags
   LWAVE        =      F    write WAVECAR
   LDOWNSAMPLE  =      F    k-point downsampling of WAVECAR
   LCHARG       =      F    write CHGCAR
   LVTOT        =      F    write LOCPOT, total local potential
   LVHAR        =      F    write LOCPOT, Hartree potential only
   LELF         =      F    write electronic localiz. function (ELF)
   LORBIT       =      0    0 simple, 1 ext, 2 COOP (PROOUT), +10 PAW based schemes


 Dipole corrections
   LMONO  =      F    monopole corrections only (constant potential shift)
   LDIPOL =      F    correct potential (dipole corrections)
   IDIPOL =      0    1-x, 2-y, 3-z, 4-all directions 
   EPSILON=  1.0000000 bulk dielectric constant

 Exchange correlation treatment:
   GGA     =    --    GGA type
   LEXCH   =     8    internal setting for exchange type
   VOSKOWN=      0    Vosko Wilk Nusair interpolation
   LHFCALC =     F    Hartree Fock is set to
   LHFONE  =     F    Hartree Fock one center treatment
   AEXX    =    0.0000 exact exchange contribution

 Linear response parameters
   LEPSILON=     F    determine dielectric tensor
   LRPA    =     F    only Hartree local field effects (RPA)
   LNABLA  =     F    use nabla operator in PAW spheres
   LVEL    =     F    velocity operator in full k-point grid
   LINTERFAST=   F  fast interpolation
   KINTER  =     0    interpolate to denser k-point grid
   CSHIFT  =0.1000    complex shift for real part using Kramers Kronig
   OMEGAMAX=  -1.0    maximum frequency
   DEG_THRESHOLD= 0.2000000E-02 threshold for treating states as degnerate
   RTIME   =   -0.100 relaxation time in fs
  (WPLASMAI=    0.000 imaginary part of plasma frequency in eV, 0.658/RTIME)
   DFIELD  = 0.0000000 0.0000000 0.0000000 field for delta impulse in time
 
 Orbital magnetization related:
   ORBITALMAG=     F  switch on orbital magnetization
   LCHIMAG   =     F  perturbation theory with respect to B field
   DQ        =  0.001000  dq finite difference perturbation B field
   LLRAUG    =     F  two centre corrections for induced B field



--------------------------------------------------------------------------------------------------------


 conjugate gradient relaxation of ions
   using selective dynamics as specified on POSCAR
 charge density and potential will be updated during run
 spin polarized calculation
 RMM-DIIS sequential band-by-band and
  variant of blocked Davidson during initial phase
 perform sub-space diagonalisation
    before iterative eigenvector-optimisation
 modified Broyden-mixing scheme, WC =      100.0
 initial mixing is a Kerker type mixing with AMIX =  0.4000 and BMIX =      1.0000
 Hartree-type preconditioning will be used
 using additional bands          129
 real space projection scheme for non local part
 use partial core corrections
 calculate Harris-corrections to forces 
   (improved forces if not selfconsistent)
 use gradient corrections 
 use of overlap-Matrix (Vanderbilt PP)
 Gauss-broadening in eV      SIGMA  =   0.05


--------------------------------------------------------------------------------------------------------


  energy-cutoff  :      550.00
  volume of cell :     2288.62
      direct lattice vectors                 reciprocal lattice vectors
    10.960000006  0.000000000  0.000000000     0.091240876 -0.052677944  0.000000000
     5.480000030  9.491638459  0.000000000     0.000000000  0.105355888  0.000000000
     0.000000000  0.000000000 22.000000000     0.000000000  0.000000000  0.045454545

  length of vectors
    10.960000006 10.960000044 22.000000000     0.105355889  0.105355888  0.045454545


 
 k-points in units of 2pi/SCALE and weight: mesh auto                               
   0.00000000  0.00000000  0.00000000       0.250
   0.04562044 -0.02633897  0.00000000       0.250
   0.00000000  0.05267794  0.00000000       0.250
   0.04562044  0.02633897  0.00000000       0.250
 
 k-points in reciprocal lattice and weights: mesh auto                               
   0.00000000  0.00000000  0.00000000       0.250
   0.50000000  0.00000000  0.00000000       0.250
   0.00000000  0.50000000  0.00000000       0.250
   0.50000000  0.50000000  0.00000000       0.250
 
 position of ions in fractional coordinates (direct lattice) 
   0.78479924  0.86930166  0.32995047
   0.03460193  0.86964179  0.32964443
   0.03487902  0.61934736  0.32977333
   0.78712625  0.86765186  0.01757050
   0.03656860  0.86828275  0.01768104
   0.03711578  0.61779823  0.01780441
   0.61937703  0.20173626  0.12337051
   0.36932558  0.95178754  0.12339779
   0.03471590  0.36947788  0.32988885
   0.03681824  0.36766148  0.01784212
   0.86932555  0.20182459  0.12331703
   0.95210921  0.53560574  0.22665902
   0.28454322  0.11981594  0.32981896
   0.53429145  0.61949584  0.33050480
   0.28516238  0.36992049  0.33026002
   0.28721285  0.11769600  0.01776764
   0.53673156  0.61793039  0.01772424
   0.28671580  0.36806524  0.01784719
   0.61934139  0.95176790  0.12332604
   0.70203630  0.78566163  0.22653819
   0.86925911  0.70183525  0.12341632
   0.61938527  0.45180406  0.12339238
   0.28492935  0.86904192  0.33002482
   0.28696344  0.86767941  0.01772950
   0.61931520  0.70181950  0.12333580
   0.20202055  0.03578648  0.22656278
   0.86741406  0.95363508  0.43569086
   0.11711768  0.45355951  0.43562857
   0.11656550  0.95437695  0.43526489
   0.86772061  0.45353275  0.43553460
   0.36736413  0.95433763  0.43525479
   0.86730593  0.20327006  0.43546461
   0.11727290  0.20363052  0.43547440
   0.61709454  0.95366649  0.43565778
   0.86766925  0.70288458  0.43566844
   0.36767734  0.20332020  0.43552885
   0.36475072  0.70857043  0.43755543
   0.62122868  0.45195769  0.43763143
   0.11489340  0.70493404  0.43513526
   0.61844038  0.20145249  0.43523260
   0.53445976  0.37000483  0.33060205
   0.53736055  0.36754416  0.01770149
   0.53466467  0.11956170  0.32975469
   0.53685025  0.11798701  0.01763958
   0.86928508  0.45187049  0.12348232
   0.11934801  0.45178846  0.12355861
   0.03452078  0.11982351  0.32977253
   0.03704964  0.11771626  0.01763222
   0.11933606  0.95179737  0.12344715
   0.36514216  0.45207421  0.43761996
   0.45210647  0.53560424  0.22700100
   0.61846069  0.70493216  0.43502494
   0.36930342  0.20185650  0.12350703
   0.11939157  0.20170824  0.12345346
   0.95209922  0.78563898  0.22659560
   0.78470195  0.61938175  0.32969611
   0.28506420  0.61951615  0.33054333
   0.78683119  0.61803579  0.01767071
   0.28697629  0.61776354  0.01777784
   0.36922066  0.70181489  0.12348052
   0.36941860  0.45183514  0.12346855
   0.20203981  0.28563079  0.22666805
   0.78381747  0.36992835  0.33019197
   0.78700048  0.36805132  0.01760750
   0.95202708  0.03568330  0.22654598
   0.45200232  0.78556036  0.22664483
   0.70186151  0.53559703  0.22667552
   0.20223641  0.78556973  0.22671859
   0.45206940  0.03567568  0.22656664
   0.11933917  0.70187797  0.12345593
   0.70209065  0.03555964  0.22657311
   0.78468180  0.11954852  0.32971761
   0.53463251  0.86962277  0.32956710
   0.78685379  0.11787722  0.01751774
   0.53707225  0.86795273  0.01756385
   0.20233945  0.53558443  0.22674153
   0.95212423  0.28562702  0.22657020
   0.86917343  0.95188563  0.12338506
   0.70196295  0.28582173  0.22667442
   0.45206792  0.28584208  0.22674619
   0.45034794  0.54020814  0.47893594
 
 position of ions in cartesian coordinates  (Angst):
  13.36517282  8.25109705  7.25891035
   5.14487420  8.25432548  7.25217738
   3.77629766  5.87862122  7.25501315
  13.38163597  8.23543777  0.38655104
   5.15898138  8.24142595  0.38898290
   3.79232328  5.86391745  0.39169709
   7.89388690  1.91480761  2.71415123
   9.26360412  9.03402321  2.71475133
   2.40522505  3.50695046  7.25755467
   2.41831281  3.48970981  0.39252655
  10.63380686  1.91564607  2.71297457
  13.37023645  5.08377607  4.98649854
   3.77518504  1.13724958  7.25601709
   9.25067159  5.88003059  7.27110560
   5.15254401  3.51115156  7.26572040
   3.79282696  1.11712786  0.39088799
   9.26883648  5.86517187  0.38993338
   5.15940268  3.49354222  0.39263811
  12.00366976  9.03383680  2.71317294
  11.99974361  7.45721617  4.98384014
  13.37313708  6.66156643  2.71515902
   9.26434884  4.28836077  2.71463240
   7.88517537  8.24863171  7.26054613
   7.90000245  8.23569922  0.39004907
  10.63366554  6.66141700  2.71338753
   2.41025518  0.33967237  4.98438111
  14.73277838  9.05155943  9.58519883
   3.76911588  4.30502289  9.58382857
   6.50754359  9.05860100  9.57582752
  11.99557736  4.30476890  9.58176127
   9.25608113  9.05822777  9.57560528
  10.61959292  1.92936596  9.58022141
   2.40120623  1.93278725  9.58043669
  11.98944859  9.05185751  9.58447116
  13.36146246  6.67152627  9.58470574
   5.14393829  1.92984180  9.58163463
   7.88063385  6.72549431  9.62621937
   9.28539451  4.28981904  9.62789154
   5.12227019  6.69097901  9.57297570
   7.88206626  1.91211421  9.57511727
   7.88530538  3.51195204  7.27324515
   7.90361365  3.48859632  0.38943288
   6.51512298  1.13483647  7.25460310
   6.53044757  1.11989004  0.38807067
  12.00361474  4.28899128  2.71661101
   3.78385491  4.28821268  2.71828937
   1.03498064  1.13732145  7.25499566
   1.05114913  1.11732018  0.38790892
   6.52377280  9.03411651  2.71583730
   6.47932473  4.29092492  9.62763908
   7.89019815  5.08376183  4.99402198
  10.64135748  6.69096120  9.57054861
   5.15373915  1.91594889  2.71715465
   2.41389275  1.91454169  2.71597607
  14.74030908  7.45700111  4.98510314
  11.99454543  5.87894765  7.25331432
   6.51925217  5.88022335  7.27195328
  12.01050599  5.86617227  0.38875561
   6.53060439  5.86358820  0.39111241
   7.89260402  6.66137321  2.71657152
   6.52488440  4.28865576  2.71630803
   3.77961310  2.71110420  4.98669707
  10.61784682  3.51122616  7.26422344
  10.64244655  3.49341010  0.38736489
  10.62976130  0.33869297  4.98401164
   9.25881621  7.45625497  4.98618635
  10.62747388  5.08369338  4.98686147
   6.52143315  7.45634387  4.98780909
   5.15018340  0.33862069  4.98446605
   5.15424856  6.66197189  2.71603035
   7.88978034  0.33751928  4.98460850
   9.25523836  1.13471131  7.25378752
  10.62510515  8.25414490  7.25047624
   9.26988468  1.11884799  0.38539038
  10.64269286  8.23829351  0.38640475
   5.15264306  5.08357381  4.98831359
  12.00051770  2.71106845  4.98454436
  14.74247409  9.03495421  2.71447143
   9.25981707  2.71291653  4.98683715
   6.52107897  2.71310966  4.98841614
   7.89615403  5.12746036 10.53659066
 


--------------------------------------------------------------------------------------------------------


 k-point  1 :   0.0000 0.0000 0.0000  plane waves:   66973
 k-point  2 :   0.5000 0.0000 0.0000  plane waves:   67000
 k-point  3 :   0.0000 0.5000 0.0000  plane waves:   67000
 k-point  4 :   0.5000 0.5000 0.0000  plane waves:   67000

 maximum and minimum number of plane-waves per node :     16772    16723

 maximum number of plane-waves:     67000
 maximum index in each direction: 
   IXMAX=   20   IYMAX=   20   IZMAX=   42
   IXMIN=  -21   IYMIN=  -21   IZMIN=  -42


 real space projection operators:
  total allocation   :      78573.38 KBytes
  max/ min on nodes  :      19649.24      19640.20


 parallel 3D FFT for wavefunctions:
    minimum data exchange during FFTs selected (reduces bandwidth)
 parallel 3D FFT for charge:
    minimum data exchange during FFTs selected (reduces bandwidth)


 total amount of memory used by VASP MPI-rank0   245530. kBytes
=======================================================================

   base      :      30000. kBytes
   nonlr-proj:      34104. kBytes
   fftplans  :      17977. kBytes
   grid      :      46451. kBytes
   one-center:        653. kBytes
   wavefun   :     116345. kBytes
 
     INWAV:  cpu time    0.0001: real time    0.0001
 Broyden mixing: mesh for mixing (old mesh)
   NGX = 41   NGY = 41   NGZ = 85
  (NGX  =168   NGY  =168   NGZ  =336)
  gives a total of 142885 points

 initial charge density was supplied:
 charge density of overlapping atoms calculated
 number of electron     801.0000000 magnetization      81.0000000
 keeping initial charge density in first step


--------------------------------------------------------------------------------------------------------


 Maximum index for non-local projection operator         1764
 Maximum index for augmentation-charges         1992 (set IRDMAX)


--------------------------------------------------------------------------------------------------------


 First call to EWALD:  gamma=   0.134
 Maximum number of real-space cells 4x 4x 2
 Maximum number of reciprocal cells 2x 2x 4

    FEWALD:  cpu time    0.0039: real time    0.0039


--------------------------------------- Iteration      1(   1)  ---------------------------------------


    POTLOK:  cpu time    0.4086: real time    0.4146
    SETDIJ:  cpu time    0.0354: real time    0.0357
     EDDAV:  cpu time   61.1954: real time   61.3605
       DOS:  cpu time    0.0019: real time    0.0020
    --------------------------------------------
      LOOP:  cpu time   61.6413: real time   61.8129

 eigenvalue-minimisations  :  8480
 total energy-change (2. order) : 0.5561421E+04  (-0.3923699E+05)
 number of electron     801.0000000 magnetization      81.0000000
 augmentation part      801.0000000 magnetization      81.0000000

 Free energy of the ion-electron system (eV)
  ---------------------------------------------------
  alpha Z        PSCENC =      2662.42313081
  Ewald energy   TEWEN  =    176388.04522772
  -Hartree energ DENC   =   -240840.23397886
  -exchange      EXHF   =         0.00000000
  -V(xc)+E(xc)   XCENC  =       297.82135411
  PAW double counting   =     55685.49641431   -53423.17961727
  entropy T*S    EENTRO =        -0.04834522
  eigenvalues    EBANDS =      6449.36570171
  atomic energy  EATOM  =     58341.73154849
  Solvation  Ediel_sol  =         0.00000000
  ---------------------------------------------------
  free energy    TOTEN  =      5561.42143581 eV

  energy without entropy =     5561.46978103  energy(sigma->0) =     5561.44560842


--------------------------------------------------------------------------------------------------------




--------------------------------------- Iteration      1(   2)  ---------------------------------------


     EDDAV:  cpu time   66.4631: real time   66.6211
       DOS:  cpu time    0.0015: real time    0.0015
    --------------------------------------------
      LOOP:  cpu time   66.4645: real time   66.6225

 eigenvalue-minimisations  :  9510
 total energy-change (2. order) :-0.5756018E+04  (-0.5285670E+04)
 number of electron     801.0000000 magnetization      81.0000000
 augmentation part      801.0000000 magnetization      81.0000000

 Free energy of the ion-electron system (eV)
  ---------------------------------------------------
  alpha Z        PSCENC =      2662.42313081
  Ewald energy   TEWEN  =    176388.04522772
  -Hartree energ DENC   =   -240840.23397886
  -exchange      EXHF   =         0.00000000
  -V(xc)+E(xc)   XCENC  =       297.82135411
  PAW double counting   =     55685.49641431   -53423.17961727
  entropy T*S    EENTRO =        -0.11827359
  eigenvalues    EBANDS =       693.41812779
  atomic energy  EATOM  =     58341.73154849
  Solvation  Ediel_sol  =         0.00000000
  ---------------------------------------------------
  free energy    TOTEN  =      -194.59606648 eV

  energy without entropy =     -194.47779289  energy(sigma->0) =     -194.53692968


--------------------------------------------------------------------------------------------------------




--------------------------------------- Iteration      1(   3)  ---------------------------------------


     EDDAV:  cpu time   66.7832: real time   66.9420
       DOS:  cpu time    0.0016: real time    0.0016
    --------------------------------------------
      LOOP:  cpu time   66.7847: real time   66.9436

 eigenvalue-minimisations  :  9570
 total energy-change (2. order) :-0.2932319E+03  (-0.2710742E+03)
 number of electron     801.0000000 magnetization      81.0000000
 augmentation part      801.0000000 magnetization      81.0000000

 Free energy of the ion-electron system (eV)
  ---------------------------------------------------
  alpha Z        PSCENC =      2662.42313081
  Ewald energy   TEWEN  =    176388.04522772
  -Hartree energ DENC   =   -240840.23397886
  -exchange      EXHF   =         0.00000000
  -V(xc)+E(xc)   XCENC  =       297.82135411
  PAW double counting   =     55685.49641431   -53423.17961727
  entropy T*S    EENTRO =        -0.13599588
  eigenvalues    EBANDS =       400.20395965
  atomic energy  EATOM  =     58341.73154849
  Solvation  Ediel_sol  =         0.00000000
  ---------------------------------------------------
  free energy    TOTEN  =      -487.82795692 eV

  energy without entropy =     -487.69196104  energy(sigma->0) =     -487.75995898


--------------------------------------------------------------------------------------------------------




--------------------------------------- Iteration      1(   4)  ---------------------------------------


     EDDAV:  cpu time   69.3174: real time   69.5004
       DOS:  cpu time    0.0016: real time    0.0016
    --------------------------------------------
      LOOP:  cpu time   69.3190: real time   69.5020

 eigenvalue-minimisations  : 10050
 total energy-change (2. order) :-0.7647275E+01  (-0.7571476E+01)
 number of electron     801.0000000 magnetization      81.0000000
 augmentation part      801.0000000 magnetization      81.0000000

 Free energy of the ion-electron system (eV)
  ---------------------------------------------------
  alpha Z        PSCENC =      2662.42313081
  Ewald energy   TEWEN  =    176388.04522772
  -Hartree energ DENC   =   -240840.23397886
  -exchange      EXHF   =         0.00000000
  -V(xc)+E(xc)   XCENC  =       297.82135411
  PAW double counting   =     55685.49641431   -53423.17961727
  entropy T*S    EENTRO =        -0.14133999
  eigenvalues    EBANDS =       392.56202920
  atomic energy  EATOM  =     58341.73154849
  Solvation  Ediel_sol  =         0.00000000
  ---------------------------------------------------
  free energy    TOTEN  =      -495.47523147 eV

  energy without entropy =     -495.33389148  energy(sigma->0) =     -495.40456147


--------------------------------------------------------------------------------------------------------




--------------------------------------- Iteration      1(   5)  ---------------------------------------


     EDDAV:  cpu time   67.6173: real time   67.7783
       DOS:  cpu time    0.0016: real time    0.0016
    CHARGE:  cpu time    3.9050: real time    3.9145
    MIXING:  cpu time    0.0088: real time    0.0096
    --------------------------------------------
      LOOP:  cpu time   71.5327: real time   71.7042

 eigenvalue-minimisations  :  9720
 total energy-change (2. order) :-0.2575354E+00  (-0.2569812E+00)
 number of electron     801.0000083 magnetization      75.9673162
 augmentation part      232.6789800 magnetization      54.1944981

 Broyden mixing:
  rms(total) = 0.11006E+02    rms(broyden)= 0.11006E+02
  rms(prec ) = 0.11132E+02
  weight for this iteration     100.00

 Free energy of the ion-electron system (eV)
  ---------------------------------------------------
  alpha Z        PSCENC =      2662.42313081
  Ewald energy   TEWEN  =    176388.04522772
  -Hartree energ DENC   =   -240840.23397886
  -exchange      EXHF   =         0.00000000
  -V(xc)+E(xc)   XCENC  =       297.82135411
  PAW double counting   =     55685.49641431   -53423.17961727
  entropy T*S    EENTRO =        -0.14113338
  eigenvalues    EBANDS =       392.30428716
  atomic energy  EATOM  =     58341.73154849
  Solvation  Ediel_sol  =         0.00000000
  ---------------------------------------------------
  free energy    TOTEN  =      -495.73276690 eV

  energy without entropy =     -495.59163352  energy(sigma->0) =     -495.66220021


--------------------------------------------------------------------------------------------------------




--------------------------------------- Iteration      1(   6)  ---------------------------------------


    POTLOK:  cpu time    0.3944: real time    0.3954
    SETDIJ:  cpu time    0.0346: real time    0.0347
    EDDIAG:  cpu time   10.7614: real time   10.7873
  RMM-DIIS:  cpu time   37.1991: real time   37.2872
    ORTHCH:  cpu time    1.1307: real time    1.1334
       DOS:  cpu time    0.0017: real time    0.0017
    CHARGE:  cpu time    3.8621: real time    3.8713
    MIXING:  cpu time    0.0093: real time    0.0098
    --------------------------------------------
      LOOP:  cpu time   53.3933: real time   53.5208

 eigenvalue-minimisations  :  8524
 total energy-change (2. order) : 0.1285331E+02  (-0.7803710E+01)
 number of electron     801.0000091 magnetization      71.8352641
 augmentation part      245.2338118 magnetization      52.7115325

 Broyden mixing:
  rms(total) = 0.85187E+01    rms(broyden)= 0.85187E+01
  rms(prec ) = 0.93387E+01
  weight for this iteration     100.00

 eigenvalues of (default mixing * dielectric matrix)
  average eigenvalue GAMMA=   0.8234
  0.8234

 Free energy of the ion-electron system (eV)
  ---------------------------------------------------
  alpha Z        PSCENC =      2662.42313081
  Ewald energy   TEWEN  =    176388.04522772
  -Hartree energ DENC   =   -239841.37916424
  -exchange      EXHF   =         0.00000000
  -V(xc)+E(xc)   XCENC  =       280.23529685
  PAW double counting   =     62708.36162284   -60572.37106495
  entropy T*S    EENTRO =        -0.17621636
  eigenvalues    EBANDS =      -449.74983960
  atomic energy  EATOM  =     58341.73154849
  Solvation  Ediel_sol  =         0.00000000
  ---------------------------------------------------
  free energy    TOTEN  =      -482.87945844 eV

  energy without entropy =     -482.70324208  energy(sigma->0) =     -482.79135026


--------------------------------------------------------------------------------------------------------




--------------------------------------- Iteration      1(   7)  ---------------------------------------


    POTLOK:  cpu time    0.3947: real time    0.3956
    SETDIJ:  cpu time    0.0346: real time    0.0347
    EDDIAG:  cpu time   10.7429: real time   10.7739
  RMM-DIIS:  cpu time   36.5688: real time   36.6761
    ORTHCH:  cpu time    1.1347: real time    1.1380
       DOS:  cpu time    0.0015: real time    0.0015
    CHARGE:  cpu time    3.8538: real time    3.8652
    MIXING:  cpu time    0.0105: real time    0.0105
    --------------------------------------------
      LOOP:  cpu time   52.7415: real time   52.8954

 eigenvalue-minimisations  :  8501
 total energy-change (2. order) :-0.1215693E+03  (-0.1413379E+02)
 number of electron     801.0000084 magnetization      64.0098234
 augmentation part      238.9875685 magnetization      51.7286882

 Broyden mixing:
  rms(total) = 0.10446E+02    rms(broyden)= 0.10446E+02
  rms(prec ) = 0.13320E+02
  weight for this iteration     100.00

 eigenvalues of (default mixing * dielectric matrix)
  average eigenvalue GAMMA=   0.8177
  1.3440  0.2915

 Free energy of the ion-electron system (eV)
  ---------------------------------------------------
  alpha Z        PSCENC =      2662.42313081
  Ewald energy   TEWEN  =    176388.04522772
  -Hartree energ DENC   =   -240876.95473649
  -exchange      EXHF   =         0.00000000
  -V(xc)+E(xc)   XCENC  =       273.86873099
  PAW double counting   =     66439.79687141   -64344.47715742
  entropy T*S    EENTRO =        -0.08145434
  eigenvalues    EBANDS =       511.19912644
  atomic energy  EATOM  =     58341.73154849
  Solvation  Ediel_sol  =         0.00000000
  ---------------------------------------------------
  free energy    TOTEN  =      -604.44871239 eV

  energy without entropy =     -604.36725805  energy(sigma->0) =     -604.40798522


--------------------------------------------------------------------------------------------------------




--------------------------------------- Iteration      1(   8)  ---------------------------------------


    POTLOK:  cpu time    0.3936: real time    0.3945
    SETDIJ:  cpu time    0.0351: real time    0.0352
    EDDIAG:  cpu time   10.6321: real time   10.6616
  RMM-DIIS:  cpu time   36.8446: real time   36.9343
    ORTHCH:  cpu time    1.1378: real time    1.1405
       DOS:  cpu time    0.0016: real time    0.0016
    CHARGE:  cpu time    3.9244: real time    3.9337
    MIXING:  cpu time    0.0095: real time    0.0096
    --------------------------------------------
      LOOP:  cpu time   52.9787: real time   53.1109

 eigenvalue-minimisations  :  8527
 total energy-change (2. order) : 0.1333030E+03  (-0.6762353E+01)
 number of electron     801.0000092 magnetization      60.0751810
 augmentation part      249.2580482 magnetization      47.6181478

 Broyden mixing:
  rms(total) = 0.46690E+01    rms(broyden)= 0.46690E+01
  rms(prec ) = 0.52837E+01
  weight for this iteration     100.00

 eigenvalues of (default mixing * dielectric matrix)
  average eigenvalue GAMMA=   0.9385
  1.9878  0.5728  0.2548

 Free energy of the ion-electron system (eV)
  ---------------------------------------------------
  alpha Z        PSCENC =      2662.42313081
  Ewald energy   TEWEN  =    176388.04522772
  -Hartree energ DENC   =   -239973.32294248
  -exchange      EXHF   =         0.00000000
  -V(xc)+E(xc)   XCENC  =       274.13207118
  PAW double counting   =     71926.22986440   -69903.47894749
  entropy T*S    EENTRO =        -0.17459395
  eigenvalues    EBANDS =      -186.73106434
  atomic energy  EATOM  =     58341.73154849
  Solvation  Ediel_sol  =         0.00000000
  ---------------------------------------------------
  free energy    TOTEN  =      -471.14570566 eV

  energy without entropy =     -470.97111171  energy(sigma->0) =     -471.05840868


--------------------------------------------------------------------------------------------------------




--------------------------------------- Iteration      1(   9)  ---------------------------------------


    POTLOK:  cpu time    0.4232: real time    0.4243
    SETDIJ:  cpu time    0.0394: real time    0.0395
    EDDIAG:  cpu time   10.6769: real time   10.7024
  RMM-DIIS:  cpu time   36.8538: real time   36.9412
    ORTHCH:  cpu time    1.1418: real time    1.1445
       DOS:  cpu time    0.0016: real time    0.0016
    CHARGE:  cpu time    3.9122: real time    3.9215
    MIXING:  cpu time    0.0100: real time    0.0101
    --------------------------------------------
      LOOP:  cpu time   53.0588: real time   53.1850

 eigenvalue-minimisations  :  8512
 total energy-change (2. order) :-0.1177533E+01  (-0.5757047E+01)
 number of electron     801.0000088 magnetization      57.6348593
 augmentation part      248.8592251 magnetization      41.4359089

 Broyden mixing:
  rms(total) = 0.51862E+01    rms(broyden)= 0.51862E+01
  rms(prec ) = 0.71205E+01
  weight for this iteration     100.00

 eigenvalues of (default mixing * dielectric matrix)
  average eigenvalue GAMMA=   0.8290
  2.2093  0.5729  0.2346  0.2989

 Free energy of the ion-electron system (eV)
  ---------------------------------------------------
  alpha Z        PSCENC =      2662.42313081
  Ewald energy   TEWEN  =    176388.04522772
  -Hartree energ DENC   =   -239914.91721564
  -exchange      EXHF   =         0.00000000
  -V(xc)+E(xc)   XCENC  =       276.25688393
  PAW double counting   =     73108.78416474   -71093.20004340
  entropy T*S    EENTRO =        -0.10743545
  eigenvalues    EBANDS =      -241.33950026
  atomic energy  EATOM  =     58341.73154849
  Solvation  Ediel_sol  =         0.00000000
  ---------------------------------------------------
  free energy    TOTEN  =      -472.32323907 eV

  energy without entropy =     -472.21580362  energy(sigma->0) =     -472.26952134


--------------------------------------------------------------------------------------------------------




--------------------------------------- Iteration      1(  10)  ---------------------------------------


    POTLOK:  cpu time    0.3947: real time    0.3957
    SETDIJ:  cpu time    0.0346: real time    0.0347
    EDDIAG:  cpu time   10.6446: real time   10.6700
  RMM-DIIS:  cpu time   36.7655: real time   36.8527
    ORTHCH:  cpu time    1.1347: real time    1.1373
       DOS:  cpu time    0.0015: real time    0.0015
    CHARGE:  cpu time    3.8746: real time    3.8874
    MIXING:  cpu time    0.0103: real time    0.0103
    --------------------------------------------
      LOOP:  cpu time   52.8605: real time   52.9897

 eigenvalue-minimisations  :  8518
 total energy-change (2. order) :-0.3587051E+02  (-0.1454959E+01)
 number of electron     801.0000090 magnetization      55.2034727
 augmentation part      247.9075861 magnetization      42.6541256

 Broyden mixing:
  rms(total) = 0.63480E+01    rms(broyden)= 0.63480E+01
  rms(prec ) = 0.10427E+02
  weight for this iteration     100.00

 eigenvalues of (default mixing * dielectric matrix)
  average eigenvalue GAMMA=   0.7290
  2.3148  0.5976  0.3559  0.2560  0.1208

 Free energy of the ion-electron system (eV)
  ---------------------------------------------------
  alpha Z        PSCENC =      2662.42313081
  Ewald energy   TEWEN  =    176388.04522772
  -Hartree energ DENC   =   -239963.69375348
  -exchange      EXHF   =         0.00000000
  -V(xc)+E(xc)   XCENC  =       275.76329080
  PAW double counting   =     73714.31913423   -71702.03616651
  entropy T*S    EENTRO =        -0.08198889
  eigenvalues    EBANDS =      -224.66417594
  atomic energy  EATOM  =     58341.73154849
  Solvation  Ediel_sol  =         0.00000000
  ---------------------------------------------------
  free energy    TOTEN  =      -508.19375278 eV

  energy without entropy =     -508.11176389  energy(sigma->0) =     -508.15275833


--------------------------------------------------------------------------------------------------------




--------------------------------------- Iteration      1(  11)  ---------------------------------------


    POTLOK:  cpu time    0.3951: real time    0.3991
    SETDIJ:  cpu time    0.0348: real time    0.0349
    EDDIAG:  cpu time   10.6723: real time   10.6975
  RMM-DIIS:  cpu time   36.9278: real time   37.0209
    ORTHCH:  cpu time    1.1339: real time    1.1372
       DOS:  cpu time    0.0016: real time    0.0016
    CHARGE:  cpu time    3.9248: real time    3.9364
    MIXING:  cpu time    0.0117: real time    0.0117
    --------------------------------------------
      LOOP:  cpu time   53.1020: real time   53.2394

 eigenvalue-minimisations  :  8532
 total energy-change (2. order) : 0.5596861E+02  (-0.8310885E+00)
 number of electron     801.0000088 magnetization      54.0995818
 augmentation part      248.2643248 magnetization      34.8847254

 Broyden mixing:
  rms(total) = 0.20606E+01    rms(broyden)= 0.20606E+01
  rms(prec ) = 0.24614E+01
  weight for this iteration     100.00

 eigenvalues of (default mixing * dielectric matrix)
  average eigenvalue GAMMA=   0.7037
  2.1182  0.7181  0.7181  0.2826  0.2826  0.1025

 Free energy of the ion-electron system (eV)
  ---------------------------------------------------
  alpha Z        PSCENC =      2662.42313081
  Ewald energy   TEWEN  =    176388.04522772
  -Hartree energ DENC   =   -240046.08413915
  -exchange      EXHF   =         0.00000000
  -V(xc)+E(xc)   XCENC  =       275.80212525
  PAW double counting   =     74216.43520120   -72208.05493989
  entropy T*S    EENTRO =        -0.15250932
  eigenvalues    EBANDS =       -82.37078360
  atomic energy  EATOM  =     58341.73154849
  Solvation  Ediel_sol  =         0.00000000
  ---------------------------------------------------
  free energy    TOTEN  =      -452.22513849 eV

  energy without entropy =     -452.07262917  energy(sigma->0) =     -452.14888383


--------------------------------------------------------------------------------------------------------




--------------------------------------- Iteration      1(  12)  ---------------------------------------


    POTLOK:  cpu time    0.3943: real time    0.3955
    SETDIJ:  cpu time    0.0349: real time    0.0350
    EDDIAG:  cpu time   10.6998: real time   10.7311
  RMM-DIIS:  cpu time   37.0744: real time   37.1871
    ORTHCH:  cpu time    1.1332: real time    1.1365
       DOS:  cpu time    0.0016: real time    0.0016
    CHARGE:  cpu time    3.9255: real time    3.9370
    MIXING:  cpu time    0.0123: real time    0.0124
    --------------------------------------------
      LOOP:  cpu time   53.2760: real time   53.4362

 eigenvalue-minimisations  :  8538
 total energy-change (2. order) :-0.6440993E+01  (-0.5077242E+00)
 number of electron     801.0000089 magnetization      51.8587831
 augmentation part      247.7942214 magnetization      33.7242026

 Broyden mixing:
  rms(total) = 0.13682E+01    rms(broyden)= 0.13682E+01
  rms(prec ) = 0.16538E+01
  weight for this iteration     100.00

 eigenvalues of (default mixing * dielectric matrix)
  average eigenvalue GAMMA=   0.7467
  2.0081  0.9729  0.9729  0.6032  0.2835  0.2835  0.1028

 Free energy of the ion-electron system (eV)
  ---------------------------------------------------
  alpha Z        PSCENC =      2662.42313081
  Ewald energy   TEWEN  =    176388.04522772
  -Hartree energ DENC   =   -240030.19799195
  -exchange      EXHF   =         0.00000000
  -V(xc)+E(xc)   XCENC  =       273.34323039
  PAW double counting   =     73455.87334171   -71437.72053256
  entropy T*S    EENTRO =        -0.08480928
  eigenvalues    EBANDS =      -112.07927639
  atomic energy  EATOM  =     58341.73154849
  Solvation  Ediel_sol  =         0.00000000
  ---------------------------------------------------
  free energy    TOTEN  =      -458.66613105 eV

  energy without entropy =     -458.58132178  energy(sigma->0) =     -458.62372641


--------------------------------------------------------------------------------------------------------




--------------------------------------- Iteration      1(  13)  ---------------------------------------


    POTLOK:  cpu time    0.3777: real time    0.3796
    SETDIJ:  cpu time    0.0351: real time    0.0352
    EDDIAG:  cpu time   10.6373: real time   10.6687
  RMM-DIIS:  cpu time   37.0806: real time   37.1894
    ORTHCH:  cpu time    1.2015: real time    1.2048
       DOS:  cpu time    0.0016: real time    0.0016
    CHARGE:  cpu time    3.9637: real time    3.9753
    MIXING:  cpu time    0.0125: real time    0.0125
    --------------------------------------------
      LOOP:  cpu time   53.3099: real time   53.4671

 eigenvalue-minimisations  :  8537
 total energy-change (2. order) :-0.1910591E+01  (-0.1320855E+00)
 number of electron     801.0000090 magnetization      49.1689950
 augmentation part      247.7107441 magnetization      30.6343207

 Broyden mixing:
  rms(total) = 0.10396E+01    rms(broyden)= 0.10396E+01
  rms(prec ) = 0.11846E+01
  weight for this iteration     100.00

 eigenvalues of (default mixing * dielectric matrix)
  average eigenvalue GAMMA=   0.7357
  1.9812  1.0647  1.0647  0.7281  0.2852  0.2852  0.3741  0.1028

 Free energy of the ion-electron system (eV)
  ---------------------------------------------------
  alpha Z        PSCENC =      2662.42313081
  Ewald energy   TEWEN  =    176388.04522772
  -Hartree energ DENC   =   -240041.86365776
  -exchange      EXHF   =         0.00000000
  -V(xc)+E(xc)   XCENC  =       272.27289191
  PAW double counting   =     73475.64740316   -71457.99469281
  entropy T*S    EENTRO =        -0.10522045
  eigenvalues    EBANDS =      -100.73335345
  atomic energy  EATOM  =     58341.73154849
  Solvation  Ediel_sol  =         0.00000000
  ---------------------------------------------------
  free energy    TOTEN  =      -460.57672239 eV

  energy without entropy =     -460.47150193  energy(sigma->0) =     -460.52411216


--------------------------------------------------------------------------------------------------------




--------------------------------------- Iteration      1(  14)  ---------------------------------------


    POTLOK:  cpu time    0.3954: real time    0.3968
    SETDIJ:  cpu time    0.0354: real time    0.0355
    EDDIAG:  cpu time   10.6587: real time   10.6896
  RMM-DIIS:  cpu time   37.1077: real time   37.2166
    ORTHCH:  cpu time    1.1382: real time    1.1414
       DOS:  cpu time    0.0016: real time    0.0016
    CHARGE:  cpu time    3.9669: real time    3.9784
    MIXING:  cpu time    0.0133: real time    0.0134
    --------------------------------------------
      LOOP:  cpu time   53.3173: real time   53.4732

 eigenvalue-minimisations  :  8533
 total energy-change (2. order) :-0.1929455E+01  (-0.1180338E+00)
 number of electron     801.0000089 magnetization      46.8023726
 augmentation part      247.6406223 magnetization      28.4462884

 Broyden mixing:
  rms(total) = 0.76643E+00    rms(broyden)= 0.76643E+00
  rms(prec ) = 0.85639E+00
  weight for this iteration     100.00

 eigenvalues of (default mixing * dielectric matrix)
  average eigenvalue GAMMA=   0.7150
  1.9224  1.1267  0.9271  0.9271  0.5865  0.1028  0.2837  0.2837  0.2752

 Free energy of the ion-electron system (eV)
  ---------------------------------------------------
  alpha Z        PSCENC =      2662.42313081
  Ewald energy   TEWEN  =    176388.04522772
  -Hartree energ DENC   =   -240067.87155376
  -exchange      EXHF   =         0.00000000
  -V(xc)+E(xc)   XCENC  =       270.86939072
  PAW double counting   =     73626.38006430   -71610.46683339
  entropy T*S    EENTRO =        -0.12639087
  eigenvalues    EBANDS =       -73.49076143
  atomic energy  EATOM  =     58341.73154849
  Solvation  Ediel_sol  =         0.00000000
  ---------------------------------------------------
  free energy    TOTEN  =      -462.50617740 eV

  energy without entropy =     -462.37978652  energy(sigma->0) =     -462.44298196


--------------------------------------------------------------------------------------------------------




--------------------------------------- Iteration      1(  15)  ---------------------------------------


    POTLOK:  cpu time    0.3922: real time    0.3931
    SETDIJ:  cpu time    0.0355: real time    0.0355
    EDDIAG:  cpu time   10.7549: real time   10.7863
  RMM-DIIS:  cpu time   37.1421: real time   37.2510
    ORTHCH:  cpu time    1.1332: real time    1.1364
       DOS:  cpu time    0.0016: real time    0.0016
    CHARGE:  cpu time    3.9447: real time    3.9562
    MIXING:  cpu time    0.0133: real time    0.0134
    --------------------------------------------
      LOOP:  cpu time   53.4174: real time   53.5735

 eigenvalue-minimisations  :  8526
 total energy-change (2. order) :-0.2154132E+01  (-0.1066910E+00)
 number of electron     801.0000089 magnetization      45.1208318
 augmentation part      247.5404162 magnetization      27.6140441

 Broyden mixing:
  rms(total) = 0.60195E+00    rms(broyden)= 0.60195E+00
  rms(prec ) = 0.66709E+00
  weight for this iteration     100.00

 eigenvalues of (default mixing * dielectric matrix)
  average eigenvalue GAMMA=   0.7328
  1.8132  1.8132  0.8038  0.8038  0.5970  0.5970  0.2810  0.2810  0.1028  0.2351

 Free energy of the ion-electron system (eV)
  ---------------------------------------------------
  alpha Z        PSCENC =      2662.42313081
  Ewald energy   TEWEN  =    176388.04522772
  -Hartree energ DENC   =   -240083.55469361
  -exchange      EXHF   =         0.00000000
  -V(xc)+E(xc)   XCENC  =       269.65724261
  PAW double counting   =     73629.28640999   -71612.85360240
  entropy T*S    EENTRO =        -0.11044419
  eigenvalues    EBANDS =       -59.28512860
  atomic energy  EATOM  =     58341.73154849
  Solvation  Ediel_sol  =         0.00000000
  ---------------------------------------------------
  free energy    TOTEN  =      -464.66030917 eV

  energy without entropy =     -464.54986498  energy(sigma->0) =     -464.60508708


--------------------------------------------------------------------------------------------------------




--------------------------------------- Iteration      1(  16)  ---------------------------------------


    POTLOK:  cpu time    0.3807: real time    0.3821
    SETDIJ:  cpu time    0.0353: real time    0.0354
    EDDIAG:  cpu time   10.7124: real time   10.7439
  RMM-DIIS:  cpu time   37.1206: real time   37.2296
    ORTHCH:  cpu time    1.1336: real time    1.1368
       DOS:  cpu time    0.0016: real time    0.0016
    CHARGE:  cpu time    3.9723: real time    3.9839
    MIXING:  cpu time    0.0132: real time    0.0132
    --------------------------------------------
      LOOP:  cpu time   53.3697: real time   53.5266

 eigenvalue-minimisations  :  8517
 total energy-change (2. order) :-0.1541829E+01  (-0.6293638E-01)
 number of electron     801.0000089 magnetization      42.5428387
 augmentation part      247.4697728 magnetization      25.6896804

 Broyden mixing:
  rms(total) = 0.56945E+00    rms(broyden)= 0.56945E+00
  rms(prec ) = 0.63038E+00
  weight for this iteration     100.00

 eigenvalues of (default mixing * dielectric matrix)
  average eigenvalue GAMMA=   0.7520
  2.0239  2.0239  0.8373  0.8373  0.6662  0.6662  0.1028  0.2903  0.2903  0.3027
  0.2311

 Free energy of the ion-electron system (eV)
  ---------------------------------------------------
  alpha Z        PSCENC =      2662.42313081
  Ewald energy   TEWEN  =    176388.04522772
  -Hartree energ DENC   =   -240083.37826703
  -exchange      EXHF   =         0.00000000
  -V(xc)+E(xc)   XCENC  =       268.84709795
  PAW double counting   =     73576.40103385   -71558.77890080
  entropy T*S    EENTRO =        -0.10513116
  eigenvalues    EBANDS =       -61.38787782
  atomic energy  EATOM  =     58341.73154849
  Solvation  Ediel_sol  =         0.00000000
  ---------------------------------------------------
  free energy    TOTEN  =      -466.20213798 eV

  energy without entropy =     -466.09700682  energy(sigma->0) =     -466.14957240


--------------------------------------------------------------------------------------------------------




--------------------------------------- Iteration      1(  17)  ---------------------------------------


    POTLOK:  cpu time    0.3816: real time    0.3825
    SETDIJ:  cpu time    0.0354: real time    0.0355
    EDDIAG:  cpu time   10.6428: real time   10.6745
  RMM-DIIS:  cpu time   37.0720: real time   37.1805
    ORTHCH:  cpu time    1.1326: real time    1.1359
       DOS:  cpu time    0.0015: real time    0.0015
    CHARGE:  cpu time    3.9463: real time    3.9579
    MIXING:  cpu time    0.0135: real time    0.0135
    --------------------------------------------
      LOOP:  cpu time   53.2257: real time   53.3819

 eigenvalue-minimisations  :  8508
 total energy-change (2. order) :-0.1663715E+01  (-0.5910856E-01)
 number of electron     801.0000089 magnetization      39.5441042
 augmentation part      247.4396045 magnetization      23.2964794

 Broyden mixing:
  rms(total) = 0.57406E+00    rms(broyden)= 0.57406E+00
  rms(prec ) = 0.66800E+00
  weight for this iteration     100.00

 eigenvalues of (default mixing * dielectric matrix)
  average eigenvalue GAMMA=   0.8075
  2.3463  2.3463  0.9846  0.9846  0.6716  0.5908  0.5908  0.1028  0.2839  0.2839
  0.2827  0.2219

 Free energy of the ion-electron system (eV)
  ---------------------------------------------------
  alpha Z        PSCENC =      2662.42313081
  Ewald energy   TEWEN  =    176388.04522772
  -Hartree energ DENC   =   -240084.82337923
  -exchange      EXHF   =         0.00000000
  -V(xc)+E(xc)   XCENC  =       267.78855522
  PAW double counting   =     73565.78721968   -71547.47467212
  entropy T*S    EENTRO =        -0.10455146
  eigenvalues    EBANDS =       -61.23893253
  atomic energy  EATOM  =     58341.73154849
  Solvation  Ediel_sol  =         0.00000000
  ---------------------------------------------------
  free energy    TOTEN  =      -467.86585342 eV

  energy without entropy =     -467.76130196  energy(sigma->0) =     -467.81357769


--------------------------------------------------------------------------------------------------------




--------------------------------------- Iteration      1(  18)  ---------------------------------------


    POTLOK:  cpu time    0.3826: real time    0.3840
    SETDIJ:  cpu time    0.0356: real time    0.0356
    EDDIAG:  cpu time   10.6347: real time   10.6654
  RMM-DIIS:  cpu time   37.1618: real time   37.2818
    ORTHCH:  cpu time    1.1357: real time    1.1389
       DOS:  cpu time    0.0015: real time    0.0015
    CHARGE:  cpu time    3.9401: real time    3.9517
    MIXING:  cpu time    0.0132: real time    0.0132
    --------------------------------------------
      LOOP:  cpu time   53.3053: real time   53.4723

 eigenvalue-minimisations  :  8512
 total energy-change (2. order) :-0.1114089E+01  (-0.4832445E-01)
 number of electron     801.0000089 magnetization      36.9899779
 augmentation part      247.4351959 magnetization      21.0892594

 Broyden mixing:
  rms(total) = 0.42380E+00    rms(broyden)= 0.42380E+00
  rms(prec ) = 0.48631E+00
  weight for this iteration     100.00

 eigenvalues of (default mixing * dielectric matrix)
  average eigenvalue GAMMA=   0.8541
  3.3045  2.1622  1.0825  1.0825  0.6755  0.6190  0.6190  0.4113  0.1028  0.2839
  0.2839  0.2565  0.2205

 Free energy of the ion-electron system (eV)
  ---------------------------------------------------
  alpha Z        PSCENC =      2662.42313081
  Ewald energy   TEWEN  =    176388.04522772
  -Hartree energ DENC   =   -240091.77626294
  -exchange      EXHF   =         0.00000000
  -V(xc)+E(xc)   XCENC  =       266.80815573
  PAW double counting   =     73611.37356906   -71593.16770984
  entropy T*S    EENTRO =        -0.11555518
  eigenvalues    EBANDS =       -54.30204615
  atomic energy  EATOM  =     58341.73154849
  Solvation  Ediel_sol  =         0.00000000
  ---------------------------------------------------
  free energy    TOTEN  =      -468.97994230 eV

  energy without entropy =     -468.86438712  energy(sigma->0) =     -468.92216471


--------------------------------------------------------------------------------------------------------




--------------------------------------- Iteration      1(  19)  ---------------------------------------


    POTLOK:  cpu time    0.3808: real time    0.3817
    SETDIJ:  cpu time    0.0355: real time    0.0356
    EDDIAG:  cpu time   10.6368: real time   10.6683
  RMM-DIIS:  cpu time   36.9995: real time   37.1087
    ORTHCH:  cpu time    1.1380: real time    1.1412
       DOS:  cpu time    0.0016: real time    0.0016
    CHARGE:  cpu time    3.9601: real time    3.9719
    MIXING:  cpu time    0.0144: real time    0.0144
    --------------------------------------------
      LOOP:  cpu time   53.1667: real time   53.3235

 eigenvalue-minimisations  :  8527
 total energy-change (2. order) :-0.6041961E+00  (-0.2847838E-01)
 number of electron     801.0000089 magnetization      34.5431193
 augmentation part      247.4421149 magnetization      19.0214005

 Broyden mixing:
  rms(total) = 0.32383E+00    rms(broyden)= 0.32382E+00
  rms(prec ) = 0.35121E+00
  weight for this iteration     100.00

 eigenvalues of (default mixing * dielectric matrix)
  average eigenvalue GAMMA=   0.8842
  3.9757  2.1466  1.1800  1.1800  0.6261  0.6261  0.5948  0.5948  0.1028  0.2843
  0.2843  0.3111  0.2532  0.2189

 Free energy of the ion-electron system (eV)
  ---------------------------------------------------
  alpha Z        PSCENC =      2662.42313081
  Ewald energy   TEWEN  =    176388.04522772
  -Hartree energ DENC   =   -240094.76744509
  -exchange      EXHF   =         0.00000000
  -V(xc)+E(xc)   XCENC  =       266.16630951
  PAW double counting   =     73658.87722562   -71640.90609670
  entropy T*S    EENTRO =        -0.12679054
  eigenvalues    EBANDS =       -51.02724818
  atomic energy  EATOM  =     58341.73154849
  Solvation  Ediel_sol  =         0.00000000
  ---------------------------------------------------
  free energy    TOTEN  =      -469.58413835 eV

  energy without entropy =     -469.45734782  energy(sigma->0) =     -469.52074308


--------------------------------------------------------------------------------------------------------




--------------------------------------- Iteration      1(  20)  ---------------------------------------


    POTLOK:  cpu time    0.3804: real time    0.3815
    SETDIJ:  cpu time    0.0355: real time    0.0355
    EDDIAG:  cpu time   10.6795: real time   10.7109
  RMM-DIIS:  cpu time   37.1957: real time   37.3047
    ORTHCH:  cpu time    1.1329: real time    1.1364
       DOS:  cpu time    0.0016: real time    0.0016
    CHARGE:  cpu time    3.9781: real time    3.9895
    MIXING:  cpu time    0.0151: real time    0.0151
    --------------------------------------------
      LOOP:  cpu time   53.4188: real time   53.5753

 eigenvalue-minimisations  :  8524
[...]
 -----------------------------------------------------------------------------------------------
   0.319E-01 -.360E+00 -.134E+04   -.346E-01 0.359E+00 0.134E+04   0.323E-02 0.158E-01 0.563E+00   0.116E-02 0.161E-03 -.153E-02
   -.529E+00 0.826E-01 -.133E+04   0.536E+00 -.101E+00 0.133E+04   0.392E-02 0.132E-01 0.594E+00   -.997E-03 -.107E-02 -.105E-02
   -.315E+00 0.605E+00 -.134E+04   0.343E+00 -.612E+00 0.134E+04   -.252E-01 0.102E-01 0.580E+00   0.114E-02 -.990E-03 -.113E-02
   0.461E-01 -.196E+00 0.265E+04   -.281E-01 0.162E+00 -.265E+04   -.296E-01 0.561E-01 -.949E+00   0.943E-03 -.692E-03 -.310E-03
   -.740E+00 0.170E+01 0.265E+04   0.734E+00 -.164E+01 -.265E+04   0.827E-02 -.701E-01 -.942E+00   -.808E-03 -.160E-02 -.265E-04
   0.187E+00 0.478E+00 0.265E+04   -.174E+00 -.498E+00 -.265E+04   -.433E-01 0.315E-01 -.952E+00   0.951E-03 -.640E-03 0.528E-03
   0.102E+00 -.883E+00 0.135E+04   -.983E-01 0.883E+00 -.135E+04   -.224E-02 0.177E-01 -.606E+00   -.101E-02 0.654E-03 -.313E-03
   -.210E+00 0.680E+00 0.135E+04   0.215E+00 -.678E+00 -.135E+04   -.711E-02 -.311E-01 -.579E+00   -.111E-03 0.212E-02 -.576E-03
   0.515E-01 -.105E-01 -.134E+04   -.591E-01 0.215E-01 0.134E+04   0.738E-02 0.478E-02 0.559E+00   0.133E-02 0.525E-03 -.102E-02
   -.113E+01 -.644E+00 0.265E+04   0.111E+01 0.580E+00 -.265E+04   0.340E-01 0.962E-01 -.921E+00   0.145E-02 0.683E-03 0.716E-03
   0.498E+00 -.450E+00 0.135E+04   -.488E+00 0.441E+00 -.135E+04   -.177E-01 0.234E-01 -.576E+00   0.413E-03 -.112E-03 -.971E-04
   0.830E-01 0.678E-01 0.418E+01   -.853E-01 -.769E-01 -.413E+01   -.963E-03 0.214E-01 -.325E-01   0.205E-02 -.959E-03 -.162E-02
   0.201E+00 -.200E+00 -.134E+04   -.200E+00 0.200E+00 0.134E+04   0.284E-02 -.180E-01 0.557E+00   0.708E-03 0.235E-02 -.106E-02
   0.230E+01 0.182E+01 -.135E+04   -.236E+01 -.185E+01 0.135E+04   0.674E-01 0.238E-01 0.600E+00   -.787E-03 -.151E-02 -.113E-02
   -.229E+00 -.322E+00 -.134E+04   0.387E+00 0.417E+00 0.134E+04   -.166E+00 -.892E-01 0.419E+00   0.806E-04 0.708E-03 -.146E-02
   0.621E+00 -.914E+00 0.265E+04   -.616E+00 0.904E+00 -.265E+04   -.169E-01 0.203E-01 -.919E+00   0.327E-03 0.198E-02 0.315E-03
   0.154E+00 0.179E+00 0.265E+04   -.134E+00 -.164E+00 -.265E+04   -.406E-02 -.109E-02 -.945E+00   -.991E-03 -.106E-02 -.113E-02
   -.167E-01 0.239E+00 0.265E+04   0.198E-01 -.220E+00 -.265E+04   0.138E-02 -.225E-01 -.914E+00   0.939E-04 0.125E-02 0.795E-03
   0.151E+00 -.359E+00 0.135E+04   -.157E+00 0.359E+00 -.135E+04   -.102E-02 0.655E-02 -.582E+00   0.101E-02 0.110E-02 -.687E-03
   0.293E+00 0.622E+00 0.565E+01   -.299E+00 -.626E+00 -.565E+01   0.161E-01 -.819E-03 -.110E-01   0.170E-02 -.661E-04 -.123E-02
   -.459E+00 0.450E+00 0.135E+04   0.460E+00 -.458E+00 -.135E+04   0.121E-01 -.404E-02 -.583E+00   0.204E-02 -.110E-02 -.102E-02
   0.777E+00 -.278E+00 0.135E+04   -.775E+00 0.277E+00 -.135E+04   -.169E-01 0.627E-02 -.545E+00   -.109E-02 -.107E-02 -.844E-03
   -.979E-01 0.201E+00 -.134E+04   0.938E-01 -.391E+00 0.134E+04   0.774E-02 0.202E+00 0.419E+00   -.127E-02 -.625E-04 -.934E-03
   0.561E-01 -.168E+00 0.265E+04   -.525E-01 0.138E+00 -.265E+04   -.784E-02 0.468E-01 -.907E+00   -.975E-03 -.751E-03 -.717E-03
   0.743E+00 0.391E+00 0.135E+04   -.747E+00 -.394E+00 -.135E+04   -.141E-01 -.411E-02 -.608E+00   0.101E-02 -.631E-03 -.121E-02
   0.633E-01 0.130E+01 0.394E+01   -.655E-01 -.128E+01 -.396E+01   0.304E-02 -.123E-01 0.159E-01   -.307E-03 0.203E-02 -.210E-02
   0.162E+01 0.917E+00 -.265E+04   -.160E+01 -.901E+00 0.265E+04   -.208E-01 -.224E-01 0.856E+00   0.435E-03 -.499E-04 0.370E-03
   0.482E+01 0.114E+01 -.264E+04   -.477E+01 -.115E+01 0.264E+04   -.630E-01 0.595E-02 0.878E+00   0.589E-03 -.146E-03 0.222E-03
   0.145E+01 -.435E+01 -.264E+04   -.143E+01 0.432E+01 0.264E+04   -.290E-01 0.207E-01 0.895E+00   -.759E-03 0.147E-03 0.114E-02
   -.454E+01 0.908E+00 -.264E+04   0.449E+01 -.920E+00 0.264E+04   0.688E-01 0.955E-02 0.879E+00   0.144E-02 -.890E-03 0.798E-03
   -.151E+01 -.418E+01 -.264E+04   0.148E+01 0.416E+01 0.264E+04   0.422E-01 0.172E-01 0.897E+00   -.196E-03 0.148E-02 0.148E-02
   -.363E+01 0.375E+01 -.264E+04   0.358E+01 -.368E+01 0.264E+04   0.741E-01 -.752E-01 0.884E+00   0.917E-04 0.111E-03 0.692E-03
   -.188E+00 0.230E+00 -.265E+04   0.176E+00 -.218E+00 0.265E+04   0.191E-01 -.101E-01 0.897E+00   0.532E-03 0.135E-02 0.104E-02
   -.176E+01 0.108E+01 -.265E+04   0.173E+01 -.106E+01 0.265E+04   0.472E-01 -.296E-01 0.857E+00   0.528E-03 0.131E-02 0.612E-03
   0.116E+00 -.234E+01 -.265E+04   -.121E+00 0.232E+01 0.265E+04   0.749E-02 0.587E-01 0.857E+00   0.167E-02 -.127E-02 0.439E-03
   0.356E+01 0.384E+01 -.264E+04   -.352E+01 -.377E+01 0.264E+04   -.521E-01 -.755E-01 0.882E+00   -.936E-04 0.166E-02 0.428E-03
   -.393E+00 -.111E+02 -.264E+04   0.375E+00 0.118E+02 0.264E+04   0.244E-01 -.737E+00 0.283E+00   -.163E-02 -.714E-03 0.105E-02
   -.902E+01 0.561E+01 -.264E+04   0.969E+01 -.599E+01 0.264E+04   -.663E+00 0.366E+00 0.376E+00   -.492E-03 -.114E-02 0.657E-03
   -.111E+01 0.383E+00 -.264E+04   0.791E+00 -.200E+00 0.264E+04   0.308E+00 -.186E+00 0.102E+01   -.474E-03 -.127E-02 0.270E-03
   0.461E-01 -.114E+01 -.264E+04   -.477E-01 0.817E+00 0.264E+04   0.528E-02 0.312E+00 0.101E+01   -.523E-03 0.518E-03 0.120E-03
   -.138E+00 -.282E+01 -.135E+04   0.138E+00 0.288E+01 0.135E+04   0.521E-02 -.606E-01 0.584E+00   -.146E-02 -.832E-03 -.150E-02
   0.130E+01 -.148E+01 0.265E+04   -.126E+01 0.140E+01 -.265E+04   -.688E-01 0.955E-01 -.947E+00   -.148E-02 0.559E-03 -.209E-03
   -.245E+00 -.569E+00 -.134E+04   0.257E+00 0.598E+00 0.134E+04   -.145E-02 -.278E-01 0.579E+00   0.560E-03 0.182E-02 -.139E-02
   0.457E+00 -.593E+00 0.265E+04   -.468E+00 0.584E+00 -.265E+04   0.138E-02 0.768E-02 -.940E+00   0.178E-03 0.133E-02 0.395E-04
   0.336E+00 -.153E+00 0.135E+04   -.330E+00 0.145E+00 -.135E+04   -.260E-01 0.120E-02 -.588E+00   0.218E-02 -.857E-03 -.508E-03
   -.424E+00 -.390E+00 0.135E+04   0.415E+00 0.382E+00 -.135E+04   0.305E-01 0.111E-01 -.586E+00   0.903E-03 -.250E-03 -.457E-03
   -.272E+00 -.261E+00 -.134E+04   0.263E+00 0.264E+00 0.134E+04   0.100E-01 -.180E-01 0.560E+00   -.461E-03 0.955E-03 -.102E-02
   -.519E+00 -.433E+00 0.265E+04   0.557E+00 0.427E+00 -.265E+04   -.528E-01 0.143E-01 -.912E+00   0.160E-03 0.547E-03 0.166E-03
   0.195E+00 0.413E+00 0.135E+04   -.196E+00 -.405E+00 -.135E+04   0.750E-02 -.244E-01 -.585E+00   -.997E-03 0.338E-03 -.477E-03
   0.815E+01 0.554E+01 -.264E+04   -.891E+01 -.595E+01 0.264E+04   0.763E+00 0.396E+00 0.466E+00   -.147E-02 -.373E-03 -.459E-04
   -.115E+00 0.305E+00 -.118E+01   0.116E+00 -.311E+00 0.127E+01   0.114E-02 0.923E-02 -.844E-01   -.217E-02 -.174E-02 -.963E-03
   0.129E+01 0.590E+00 -.264E+04   -.981E+00 -.405E+00 0.264E+04   -.297E+00 -.188E+00 0.103E+01   0.512E-03 -.612E-03 0.121E-02
   -.759E+00 -.508E+00 0.135E+04   0.755E+00 0.497E+00 -.135E+04   0.246E-01 0.210E-01 -.587E+00   -.362E-03 0.233E-02 -.148E-03
   0.243E-01 -.390E+00 0.135E+04   -.258E-01 0.383E+00 -.135E+04   0.243E-03 0.113E-01 -.553E+00   0.964E-03 0.171E-02 -.154E-03
   -.249E+00 0.562E+00 0.504E+01   0.252E+00 -.565E+00 -.503E+01   -.127E-01 0.120E-02 -.171E-01   0.634E-03 -.117E-02 -.140E-02
   0.470E+00 0.679E+00 -.133E+04   -.506E+00 -.686E+00 0.133E+04   0.323E-01 0.864E-02 0.586E+00   0.169E-02 -.939E-03 -.113E-02
   -.252E+01 0.182E+01 -.135E+04   0.258E+01 -.185E+01 0.135E+04   -.539E-01 0.232E-01 0.598E+00   -.205E-02 -.155E-02 -.120E-02
   -.280E+00 0.888E+00 0.265E+04   0.294E+00 -.889E+00 -.265E+04   -.149E-01 -.435E-02 -.944E+00   0.143E-02 -.334E-03 -.480E-03
   0.255E+00 0.586E-01 0.265E+04   -.271E+00 -.541E-01 -.265E+04   -.267E-02 0.206E-01 -.953E+00   -.139E-02 -.136E-02 -.124E-03
   -.375E+00 0.105E+01 0.135E+04   0.377E+00 -.105E+01 -.135E+04   0.182E-01 -.142E-01 -.548E+00   -.211E-02 -.135E-02 -.122E-02
   -.672E+00 -.133E-01 0.135E+04   0.684E+00 0.107E-01 -.135E+04   0.292E-02 -.122E-02 -.547E+00   -.199E-02 -.462E-03 -.764E-03
   -.143E+01 -.106E+01 0.270E+01   0.141E+01 0.105E+01 -.269E+01   0.142E-01 0.116E-01 -.581E-03   0.723E-03 0.148E-02 -.226E-02
   0.149E+00 -.433E+00 -.134E+04   -.321E+00 0.533E+00 0.134E+04   0.186E+00 -.930E-01 0.411E+00   0.415E-04 -.814E-03 -.120E-02
   0.196E+00 -.130E+00 0.265E+04   -.182E+00 0.142E+00 -.265E+04   -.381E-01 -.927E-02 -.903E+00   -.667E-04 0.179E-03 -.370E-03
   0.447E-02 -.513E+00 0.573E+01   -.163E-02 0.522E+00 -.570E+01   -.210E-03 -.814E-03 -.218E-01   -.604E-03 0.182E-03 -.130E-02
   0.291E+00 0.154E+01 0.350E+01   -.323E+00 -.151E+01 -.353E+01   0.334E-01 -.342E-01 0.175E-01   -.326E-03 -.151E-03 -.133E-02
   0.112E+01 -.993E-01 0.270E+01   -.110E+01 0.501E-01 -.273E+01   -.334E-02 0.523E-01 0.245E-01   0.643E-03 -.138E-02 -.115E-02
   -.244E+00 0.140E+01 0.246E+01   0.275E+00 -.136E+01 -.248E+01   -.302E-01 -.328E-01 0.109E-01   -.201E-02 -.128E-02 -.145E-02
   -.374E-01 -.413E+00 0.545E+01   0.319E-01 0.417E+00 -.542E+01   0.777E-02 -.149E-02 -.247E-01   0.729E-03 0.255E-02 -.142E-02
   -.115E+00 0.404E+00 0.135E+04   0.118E+00 -.403E+00 -.135E+04   -.316E-03 -.954E-02 -.618E+00   -.946E-03 -.175E-02 -.101E-02
   0.217E-01 -.101E+01 0.494E+01   -.223E-01 0.102E+01 -.493E+01   0.155E-02 -.167E-02 -.661E-02   0.184E-03 0.105E-02 -.953E-03
   0.208E+00 -.648E+00 -.133E+04   -.225E+00 0.676E+00 0.133E+04   0.120E-01 -.240E-01 0.583E+00   -.805E-03 0.382E-03 -.128E-02
   0.462E+00 0.179E+00 -.133E+04   -.477E+00 -.202E+00 0.133E+04   0.108E-01 0.150E-01 0.605E+00   0.111E-02 0.860E-03 -.110E-02
   -.167E+00 -.394E+00 0.265E+04   0.180E+00 0.377E+00 -.265E+04   -.839E-02 0.222E-01 -.936E+00   -.666E-03 -.952E-04 -.135E-03
   0.102E+01 0.201E+00 0.265E+04   -.988E+00 -.179E+00 -.265E+04   -.491E-01 -.127E-01 -.946E+00   0.842E-03 0.631E-05 -.878E-03
   -.108E+01 -.104E+00 0.198E+01   0.106E+01 0.577E-01 -.199E+01   0.848E-02 0.486E-01 0.185E-01   -.524E-03 -.100E-02 -.160E-02
   0.161E+01 -.105E+01 0.391E+01   -.160E+01 0.104E+01 -.392E+01   -.784E-02 0.142E-01 0.844E-02   0.107E-02 0.128E-03 -.183E-02
   -.325E+00 0.465E-01 0.135E+04   0.328E+00 -.427E-01 -.135E+04   0.137E-01 -.904E-02 -.592E+00   0.103E-03 -.659E-03 -.626E-03
   0.955E+00 -.874E+00 0.289E+01   -.909E+00 0.884E+00 -.291E+01   -.454E-01 -.147E-01 0.190E-01   -.982E-03 -.500E-03 -.903E-03
   -.103E+01 -.866E+00 0.198E+01   0.987E+00 0.874E+00 -.200E+01   0.421E-01 -.145E-01 0.165E-01   -.812E-03 0.821E-03 -.126E-02
   0.290E+00 0.541E+00 -.313E+03   -.338E+00 -.640E+00 0.314E+03   0.351E-01 0.641E-01 -.149E+01   -.138E-03 -.813E-04 0.187E-03
 -----------------------------------------------------------------------------------------------
   -.115E+00 -.216E+00 0.396E+01   0.870E-13 0.239E-12 -.568E-12   0.132E+00 0.250E+00 -.399E+01   -.620E-05 0.214E-05 -.432E-01
 
 
 POSITION                                       TOTAL-FORCE (eV/Angst)
 -----------------------------------------------------------------------------------
     13.36517      8.25110      7.25891         0.001846      0.015215     -0.010411
      5.14487      8.25433      7.25218         0.010228     -0.007701      0.005720
      3.77630      5.87862      7.25501         0.005682      0.001109     -0.006299
     13.38164      8.23544      0.38655        -0.010809      0.020907      0.003525
      5.15898      8.24143      0.38898         0.000006     -0.009882     -0.006866
      3.79232      5.86392      0.39170        -0.029008      0.010345     -0.015682
      7.89389      1.91481      2.71415         0.000102      0.017332     -0.007446
      9.26360      9.03402      2.71475        -0.002434     -0.027235     -0.003230
      2.40523      3.50695      7.25755         0.000977      0.014838     -0.000642
      2.41831      3.48971      0.39253         0.009204      0.032492     -0.007578
     10.63381      1.91565      2.71297        -0.006986      0.013144      0.002811
     13.37024      5.08378      4.98650        -0.001439      0.009782      0.011009
      3.77519      1.13725      7.25602         0.004408     -0.015995     -0.004785
      9.25067      5.88003      7.27111        -0.000170     -0.010977      0.015070
      5.15254      3.51115      7.26572        -0.006556      0.007272     -0.001394
      3.79283      1.11713      0.39089        -0.011981      0.012200     -0.009199
      9.26884      5.86517      0.38993         0.014284      0.013114     -0.003512
      5.15940      3.49354      0.39264         0.003667     -0.002482     -0.013900
     12.00367      9.03384      2.71317        -0.005789      0.007140      0.001866
     11.99974      7.45722      4.98384         0.010250     -0.005339     -0.002502
     13.37314      6.66157      2.71516         0.014786     -0.013996      0.004667
      9.26435      4.28836      2.71463        -0.015714      0.002687      0.027003
      7.88518      8.24863      7.26055         0.002195      0.008517      0.009674
      7.90000      8.23570      0.39005        -0.005907      0.015979     -0.011813
     10.63367      6.66142      2.71339        -0.017227     -0.008028     -0.008735
      2.41026      0.33967      4.98438        -0.000138      0.008716     -0.005579
     14.73278      9.05156      9.58520        -0.007568     -0.006336     -0.010605
      3.76912      4.30502      9.58383        -0.011540     -0.003902     -0.000841
      6.50754      9.05860      9.57583        -0.000056     -0.006622      0.019838
     11.99558      4.30477      9.58176         0.019066     -0.003159     -0.001162
      9.25608      9.05823      9.57561         0.006704     -0.004003      0.019672
     10.61959      1.92937      9.58022         0.021160     -0.007574      0.008170
      2.40121      1.93279      9.58044         0.007164      0.002036     -0.005941
     11.98945      9.05186      9.58447         0.017495     -0.008000     -0.008015
     13.36146      6.67153      9.58471         0.004128      0.026216     -0.005819
      5.14394      1.92984      9.58163        -0.010572     -0.007473      0.005487
      7.88063      6.72549      9.62622         0.004617      0.012146      0.002477
      9.28539      4.28982      9.62789         0.026654     -0.031207      0.001395
      5.12227      6.69098      9.57298        -0.010803     -0.004449      0.026749
      7.88207      1.91211      9.57512         0.003269     -0.013457      0.016128
      7.88531      3.51195      7.27325         0.003479      0.008768      0.012889
      7.90361      3.48860      0.38943        -0.026433      0.015665     -0.002439
      6.51512      1.13484      7.25460         0.012567      0.004360     -0.008342
      6.53045      1.11989      0.38807        -0.010557      0.000973     -0.006454
     12.00361      4.28899      2.71661        -0.017973     -0.009062     -0.006428
      3.78385      4.28821      2.71829         0.021970      0.001745     -0.003787
      1.03498      1.13732      7.25500        -0.000502     -0.014600     -0.004460
      1.05115      1.11732      0.38791        -0.015271      0.009020     -0.000132
      6.52377      9.03412      2.71584         0.005582     -0.015820     -0.006828
      6.47932      4.29092      9.62764        -0.017570     -0.032473      0.004662
      7.89020      5.08376      4.99402        -0.000176      0.001277     -0.001098
     10.64136      6.69096      9.57055         0.017593     -0.003577      0.028100
      5.15374      1.91595      2.71715         0.019923      0.012503     -0.006057
      2.41389      1.91454      2.71598        -0.000736      0.005888     -0.072950
     14.74031      7.45700      4.98510        -0.007548     -0.003804     -0.004946
     11.99455      5.87895      7.25331        -0.003603      0.000070     -0.004437
      6.51925      5.88022      7.27195         0.005852     -0.009625      0.018190
     12.01051      5.86617      0.38876         0.001015     -0.005034     -0.010071
      6.53060      5.86359      0.39111        -0.020614      0.023217     -0.005732
      7.89260      6.66137      2.71657         0.018106     -0.019816      0.023392
      6.52488      4.28866      2.71631         0.012247     -0.004787      0.026621
      3.77961      2.71110      4.98670         0.001577      0.001508      0.001407
     10.61785      3.51123      7.26422         0.011896      0.006328     -0.001630
     10.64245      3.49341      0.38736        -0.023352      0.002727     -0.002720
     10.62976      0.33869      4.98401         0.001942      0.007927      0.012274
      9.25882      7.45625      4.98619        -0.000373     -0.001089     -0.008474
     10.62747      5.08369      4.98686         0.009734     -0.000199      0.001966
      6.52143      7.45634      4.98781        -0.000404     -0.000457     -0.007403
      5.15018      0.33862      4.98447         0.002580      0.005527      0.011756
      5.15425      6.66197      2.71603         0.001926     -0.010360     -0.015902
      7.88978      0.33752      4.98461         0.001238      0.008874      0.001338
      9.25524      1.13471      7.25379        -0.007122      0.005998     -0.006721
     10.62511      8.25414      7.25048        -0.003414     -0.008396      0.010650
      9.26988      1.11885      0.38539         0.004023      0.005233     -0.000997
     10.64269      8.23829      0.38640        -0.021259      0.009200     -0.005362
      5.15264      5.08357      4.98831        -0.009189     -0.000230      0.002897
     12.00052      2.71107      4.98454        -0.003122      0.001514      0.001417
     14.74247      9.03495      2.71447         0.017010     -0.005859     -0.004887
      9.25982      2.71292      4.98684         0.000113     -0.005458     -0.002223
      6.52108      2.71311      4.98842        -0.001324     -0.005139     -0.002793
      7.89615      5.12746     10.53659        -0.013024     -0.035907      0.016406
 -----------------------------------------------------------------------------------
    total drift:                                0.017057      0.034565     -0.073986


--------------------------------------------------------------------------------------------------------



  FREE ENERGIE OF THE ION-ELECTRON SYSTEM (eV)
  ---------------------------------------------------
  free  energy   TOTEN  =      -519.61741645 eV

  energy  without entropy=     -519.45071946  energy(sigma->0) =     -519.53406796
 


--------------------------------------------------------------------------------------------------------


    POTLOK:  cpu time    0.4452: real time    0.4462


--------------------------------------------------------------------------------------------------------




--------------------------------------------------------------------------------------------------------


  
 reached required accuracy - stopping structural energy minimisation
     LOOP+:  cpu time 2343.7094: real time 2349.9405
    4ORBIT:  cpu time    0.0000: real time    0.0000

 total amount of memory used by VASP MPI-rank0   245530. kBytes
=======================================================================

   base      :      30000. kBytes
   nonlr-proj:      34104. kBytes
   fftplans  :      17977. kBytes
   grid      :      46451. kBytes
   one-center:        653. kBytes
   wavefun   :     116345. kBytes
 
  
  
 General timing and accounting informations for this job:
 ========================================================
  
                  Total CPU time used (sec):     2366.090
                            User time (sec):     2362.635
                          System time (sec):        3.455
                         Elapsed time (sec):     2374.180
  
                   Maximum memory used (kb):      655540.
                   Average memory used (kb):           0.
  
                          Minor page faults:       817597
                          Major page faults:            0
                 Voluntary context switches:         5467
