 vasp.5.4.4.18Apr17-6-g9f103f2a35 (build Nov 06 2019 15:09:28) complex          
  
 executed on             LinuxIFC date 2023.08.08  15:28:48
 running on  160 total cores
 each image running on   40 cores
 distrk:  each k-point on   40 cores,    1 groups
 distr:  one band on NCORES_PER_BAND=   1 cores,   40 groups


--------------------------------------------------------------------------------------------------------


 INCAR:
 POTCAR:    PAW_PBE Pt 04Feb2005                  
 POTCAR:    PAW_PBE H 15Jun2001                   

 ----------------------------------------------------------------------------- 
|                                                                             |
|           W    W    AA    RRRRR   N    N  II  N    N   GGGG   !!!           |
|           W    W   A  A   R    R  NN   N  II  NN   N  G    G  !!!           |
|           W    W  A    A  R    R  N N  N  II  N N  N  G       !!!           |
|           W WW W  AAAAAA  RRRRR   N  N N  II  N  N N  G  GGG   !            |
|           WW  WW  A    A  R   R   N   NN  II  N   NN  G    G                |
|           W    W  A    A  R    R  N    N  II  N    N   GGGG   !!!           |
|                                                                             |
|      For optimal performance we recommend to set                            |
|        NCORE= 4 - approx SQRT( number of cores)                             |
|      NCORE specifies how many cores store one orbital (NPAR=cpu/NCORE).     |
|      This setting can  greatly improve the performance of VASP for DFT.     |
|      The default,   NCORE=1            might be grossly inefficient         |
|      on modern multi-core architectures or massively parallel machines.     |
|      Do your own testing !!!!                                               |
|      Unfortunately you need to use the default for GW and RPA calculations. |
|      (for HF NCORE is supported but not extensively tested yet)             |
|                                                                             |
 ----------------------------------------------------------------------------- 

 POTCAR:    PAW_PBE Pt 04Feb2005                  
   VRHFIN =Pt: s1d9                                                             
   LEXCH  = PE                                                                  
   EATOM  =   729.1176 eV,   53.5886 Ry                                         
                                                                                
   TITEL  = PAW_PBE Pt 04Feb2005                                                
   LULTRA =        F    use ultrasoft PP ?                                      
   IUNSCR =        1    unscreen: 0-lin 1-nonlin 2-no                           
   RPACOR =    2.330    partial core radius                                     
   POMASS =  195.080; ZVAL   =   10.000    mass and valenz                      
   RCORE  =    2.600    outmost cutoff radius                                   
   RWIGS  =    2.750; RWIGS  =    1.455    wigner-seitz radius (au A)           
   ENMAX  =  230.283; ENMIN  =  172.712 eV                                      
   ICORE  =        3    local potential                                         
   LCOR   =        T    correct aug charges                                     
   LPAW   =        T    paw PP                                                  
   EAUG   =  358.966                                                            
   DEXC   =    0.000                                                            
   RMAX   =    2.658    core radius for proj-oper                               
   RAUG   =    1.300    factor for augmentation sphere                          
   RDEP   =    2.761    radius for radial grids                                 
   RDEPT  =    2.203    core radius for aug-charge                              
                                                                                
   Atomic configuration                                                         
   16 entries                                                                   
     n  l   j            E        occ.                                          
     1  0  0.50    -78401.1885   2.0000                                         
     2  0  0.50    -13770.7750   2.0000                                         
     2  1  1.50    -11931.0468   6.0000                                         
     3  0  0.50     -3234.7234   2.0000                                         
     3  1  1.50     -2699.2216   6.0000                                         
     3  2  2.50     -2119.5714  10.0000                                         
     4  0  0.50      -695.1528   2.0000                                         
     4  1  1.50      -519.6034   6.0000                                         
     4  2  2.50      -306.6786  10.0000                                         
     4  3  3.50       -70.1041  14.0000                                         
     5  0  0.50      -101.7747   2.0000                                         
     5  1  1.50       -55.9873   6.0000                                         
     5  2  2.50        -6.1423   9.0000                                         
     6  0  0.50        -5.6573   1.0000                                         
     6  1  1.50        -6.8029   0.0000                                         
     5  3  2.50        -1.3606   0.0000                                         
   Description                                                                  
     l       E           TYP  RCUT    TYP  RCUT                                 
     2     -6.1423404     23  2.500                                             
     2     -7.5029230     23  2.500                                             
     0     -5.6573207     23  2.500                                             
     0      0.7416693     23  2.500                                             
     1     -2.7211652     23  2.600                                             
     1     20.4087390     23  2.600                                             
     3     -1.3605826     23  2.500                                             
  local pseudopotential read in
  partial core-charges read in
  partial kinetic energy density read in
  atomic valenz-charges read in
  non local Contribution for L=           2  read in
    real space projection operators read in
  non local Contribution for L=           2  read in
    real space projection operators read in
  non local Contribution for L=           0  read in
    real space projection operators read in
  non local Contribution for L=           0  read in
    real space projection operators read in
  non local Contribution for L=           1  read in
    real space projection operators read in
  non local Contribution for L=           1  read in
    real space projection operators read in
    PAW grid and wavefunctions read in
 
   number of l-projection  operators is LMAX  =           6
   number of lm-projection operators is LMMAX =          18
 
 POTCAR:    PAW_PBE H 15Jun2001                   
   VRHFIN =H: ultrasoft test                                                    
   LEXCH  = PE                                                                  
   EATOM  =    12.4884 eV,    0.9179 Ry                                         
                                                                                
   TITEL  = PAW_PBE H 15Jun2001                                                 
   LULTRA =        F    use ultrasoft PP ?                                      
   IUNSCR =        0    unscreen: 0-lin 1-nonlin 2-no                           
   RPACOR =    0.000    partial core radius                                     
   POMASS =    1.000; ZVAL   =    1.000    mass and valenz                      
   RCORE  =    1.100    outmost cutoff radius                                   
   RWIGS  =    0.700; RWIGS  =    0.370    wigner-seitz radius (au A)           
   ENMAX  =  250.000; ENMIN  =  200.000 eV                                      
   RCLOC  =    0.701    cutoff for local pot                                    
   LCOR   =        T    correct aug charges                                     
   LPAW   =        T    paw PP                                                  
   EAUG   =  400.000                                                            
   RMAX   =    1.123    core radius for proj-oper                               
   RAUG   =    1.200    factor for augmentation sphere                          
   RDEP   =    1.112    radius for radial grids                                 
   RDEPT  =    0.926    core radius for aug-charge                              
                                                                                
   Atomic configuration                                                         
    2 entries                                                                   
     n  l   j            E        occ.                                          
     1  0  0.50        -6.4927   1.0000                                         
     2  1  0.50        -3.4015   0.0000                                         
   Description                                                                  
     l       E           TYP  RCUT    TYP  RCUT                                 
     0     -6.4927494     23  1.100                                             
     0      6.8029130     23  1.100                                             
     1     -4.0817478     23  1.100                                             
  local pseudopotential read in
  atomic valenz-charges read in
  non local Contribution for L=           0  read in
    real space projection operators read in
  non local Contribution for L=           0  read in
    real space projection operators read in
  non local Contribution for L=           1  read in
    real space projection operators read in
    PAW grid and wavefunctions read in
 
   number of l-projection  operators is LMAX  =           3
   number of lm-projection operators is LMMAX =           5
 
 Optimization of the real space projectors (new method)

 maximal supplied QI-value         = 14.36
 optimisation between [QCUT,QGAM] = [ 11.92, 23.98] = [ 39.79,161.09] Ry 
 Optimized for a Real-space Cutoff    1.49 Angstroem

   l    n(q)    QCUT    max X(q) W(low)/X(q) W(high)/X(q)  e(spline) 
   2     10    11.920    66.195    0.79E-04    0.18E-03    0.24E-06
   2     10    11.920    64.643    0.81E-04    0.19E-03    0.24E-06
   0     11    11.920    95.520    0.28E-04    0.54E-04    0.18E-06
   0     11    11.920    63.403    0.27E-04    0.52E-04    0.17E-06
   1     10    11.920    19.961    0.18E-04    0.11E-03    0.23E-06
   1     10    11.920    13.289    0.25E-04    0.87E-04    0.19E-06
 Optimization of the real space projectors (new method)

 maximal supplied QI-value         = 34.20
 optimisation between [QCUT,QGAM] = [ 11.97, 23.94] = [ 40.13,160.53] Ry 
 Optimized for a Real-space Cutoff    1.18 Angstroem

   l    n(q)    QCUT    max X(q) W(low)/X(q) W(high)/X(q)  e(spline) 
   0      8    11.971    19.460    0.15E-03    0.31E-03    0.25E-06
   0      8    11.971    12.209    0.13E-03    0.29E-03    0.25E-06
   1      8    11.971     4.655    0.22E-03    0.24E-03    0.21E-06
  PAW_PBE Pt 04Feb2005                  :
 energy of atom  1       EATOM= -729.1176
 kinetic energy error for atom=    0.0021 (will be added to EATOM!!)
  PAW_PBE H 15Jun2001                   :
 energy of atom  2       EATOM=  -12.4884
 kinetic energy error for atom=    0.0008 (will be added to EATOM!!)
 
 
 POSCAR: Pt   H                                  
  positions in direct lattice
  velocities in cartesian coordinates
 exchange correlation table for  LEXCH =        8
   RHO(1)=    0.500       N(1)  =     2000
   RHO(2)=  100.500       N(2)  =     4000

 VTST: version 3.2, (02/03/18)

 CHAIN: initializing optimizer
 
 OPT: Using VASP QUASI-newton optimizer
 CHAIN: Read ICHAIN            0
 CHAIN: Running the NEB
 NEB:          SPRING     -5.000000
 NEB:          LCLIMB      T
 NEB:     LTANGENTOLD      F
 NEB:           LDNEB      F
 NEB:        LDNEBORG      F
 NEB:        LNEBCELL      F
 NEB:          EFIRST      0.000000
 NEB:           ELAST      0.000000
 
 POSCAR: Pt   H                                  
  positions in direct lattice
  No initial velocities read in
 
 POSCAR: Pt   H                                  
  positions in direct lattice
  No initial velocities read in
 


--------------------------------------------------------------------------------------------------------


 ion  position               nearest neighbor table
   1  1.000  0.000  0.056-   5 2.64   9 2.64  13 2.64  29 2.64  57 2.64  37 2.64  42 2.83  54 2.84
                            14 2.93
   2  0.333  0.168  0.180-  14 2.62  26 2.62   6 2.63  42 2.64  30 2.64  38 2.66  11 2.80   7 2.84
                             9 2.90  21 2.91  13 2.91  15 2.97
   3  0.169  0.333  0.308-  15 2.60   7 2.61  43 2.61  39 2.63  27 2.65  31 2.66   8 2.73   6 2.83
                            48 2.92  14 2.97  10 3.00  12 3.24
   4  0.003  0.003  0.417-  16 2.62   8 2.62  32 2.65  40 2.65  12 2.67  60 2.69   7 2.79  27 2.84
                            63 2.92
   5  1.000  0.250  0.056-   1 2.64  45 2.64  33 2.64   9 2.64  29 2.64  25 2.64  18 2.86  10 2.89
                            14 2.92
   6  0.333  0.416  0.188-  14 2.63  62 2.63   2 2.63  26 2.63  34 2.63  10 2.63  15 2.81   3 2.83
                            43 2.83   9 3.06  49 3.06  45 3.06
   7  0.169  0.087  0.300-   3 2.61  15 2.61  11 2.63  27 2.64  35 2.67  63 2.68   4 2.79  16 2.80
                            14 2.84   2 2.84  42 2.94  12 3.34
   8  0.001  0.250  0.421-   4 2.62  36 2.64  32 2.64  48 2.65  28 2.65  12 2.70   3 2.73  27 2.90
                            31 2.91
   9  0.250  0.250  0.056-  21 2.64  13 2.64   1 2.64  49 2.64  45 2.64   5 2.64   2 2.90  14 2.91
                             6 3.06
  10  0.085  0.416  0.179-  14 2.62  34 2.63   6 2.63  18 2.64  46 2.65  22 2.66  31 2.81  39 2.81
                            45 2.89   5 2.89  33 2.90   3 3.00
  11  0.417  0.084  0.297-   7 2.63  19 2.63  35 2.64  23 2.65  15 2.65  47 2.66   2 2.80  30 2.84
                            16 2.86  38 2.86  20 2.87  24 2.88
  12  0.249  0.247  0.451-  66 1.80  65 1.86   4 2.67  16 2.69  52 2.70   8 2.70  24 2.71  48 2.71
                             3 3.24  15 3.25   7 3.34
  13  0.250  0.000  0.056-  21 2.64   9 2.64  17 2.64   1 2.64  37 2.64  41 2.64  42 2.83  38 2.85
                             2 2.91
  14  0.085  0.168  0.180-   2 2.62  10 2.62   6 2.63  42 2.64  18 2.65  54 2.66  27 2.79   7 2.84
                             9 2.91   5 2.92   1 2.93   3 2.97
  15  0.416  0.334  0.307-  43 2.60   3 2.60  55 2.61   7 2.61  19 2.65  11 2.65  24 2.72   6 2.81
                             2 2.97  26 2.97  52 3.23  12 3.25
  16  0.250  0.000  0.417-   4 2.62  40 2.64  24 2.64  20 2.65  44 2.65  12 2.69   7 2.80  11 2.86
                            35 2.92
  17  0.500  0.000  0.056-  29 2.64  25 2.64  13 2.64  21 2.64  41 2.64  53 2.64  38 2.85  30 2.86
                            58 2.87
  18  0.834  0.167  0.177-  54 2.64  22 2.64  10 2.64  14 2.65  58 2.65  30 2.65  31 2.82  27 2.84
                            23 2.84   5 2.86  29 2.87  25 2.87
  19  0.666  0.333  0.296-  11 2.63  55 2.63  59 2.64  23 2.65  15 2.65  31 2.66  26 2.80  30 2.83
                            64 2.85  22 2.86  28 2.87  24 2.89
  20  0.500  0.000  0.418-  28 2.64  44 2.64  24 2.64  32 2.65  16 2.65  56 2.65  23 2.86  47 2.87
                            11 2.87
  21  0.500  0.250  0.056-  25 2.64  61 2.64   9 2.64  13 2.64  49 2.64  17 2.64  30 2.86  26 2.90
                             2 2.91
  22  0.833  0.416  0.176-  30 2.64  50 2.64  46 2.64  18 2.64  26 2.66  10 2.66  59 2.79  25 2.84
                            33 2.84  61 2.84  19 2.86  31 2.86
  23  0.667  0.083  0.297-  47 2.64  31 2.64  19 2.65  11 2.65  51 2.65  27 2.65  58 2.84  18 2.84
                            30 2.84  32 2.86  28 2.86  20 2.86
  24  0.500  0.250  0.419-  28 2.64  20 2.64  16 2.64  64 2.64  52 2.71  12 2.71  15 2.72  11 2.88
                            19 2.89
  25  0.750  0.250  0.056-  17 2.64  21 2.64  29 2.64  61 2.64  33 2.64   5 2.64  22 2.84  30 2.86
                            18 2.87
  26  0.582  0.417  0.179-  62 2.62   2 2.62   6 2.63  50 2.64  30 2.64  22 2.66  19 2.80  55 2.85
                            49 2.90  21 2.90  61 2.91  15 2.97
  27  0.918  0.084  0.297-  31 2.63  63 2.63   7 2.64  23 2.65   3 2.65  51 2.66  14 2.79  18 2.84
                             4 2.84  32 2.85  54 2.87   8 2.90
  28  0.750  0.250  0.418-  24 2.64  20 2.64  36 2.64  32 2.64  64 2.65   8 2.65  23 2.86  31 2.87
                            19 2.87
  29  0.750  0.000  0.056-  17 2.64  25 2.64   5 2.64  53 2.64   1 2.64  57 2.64  54 2.84  18 2.87
                            58 2.87
  30  0.583  0.167  0.177-  38 2.64  22 2.64   2 2.64  26 2.64  58 2.65  18 2.65  19 2.83  11 2.84
                            23 2.84  21 2.86  17 2.86  25 2.86
  31  0.917  0.332  0.296-  27 2.63  23 2.64  39 2.64  59 2.65   3 2.66  19 2.66  10 2.81  18 2.82
                            36 2.83  22 2.86  28 2.87   8 2.91
  32  0.751  1.000  0.417-   8 2.64  56 2.64  28 2.64  20 2.65  60 2.65   4 2.65  51 2.85  27 2.85
                            23 2.86
  33  1.000  0.500  0.056-  37 2.64  41 2.64   5 2.64  45 2.64  25 2.64  61 2.64  46 2.82  22 2.84
                            10 2.90
  34  0.334  0.665  0.179-  62 2.62  10 2.63   6 2.63  58 2.64  46 2.64  38 2.66  39 2.81  47 2.81
                            45 2.89  53 2.89  41 2.90  43 3.00
  35  0.168  0.834  0.293-  11 2.64  47 2.65  63 2.66  59 2.66   7 2.67  39 2.68  38 2.79  40 2.81
                            42 2.81  46 2.82  44 2.89  16 2.92
  36  0.001  0.500  0.415-  44 2.64  48 2.64  28 2.64   8 2.64  64 2.65  40 2.65  39 2.82  31 2.83
                            59 2.89
  37  1.000  0.750  0.056-  33 2.64  41 2.64  61 2.64  57 2.64  13 2.64   1 2.64  46 2.83  42 2.84
                            50 2.84
  38  0.334  0.917  0.176-  30 2.64  42 2.64  46 2.64  58 2.64   2 2.66  34 2.66  35 2.79  17 2.85
                            41 2.85  13 2.85  11 2.86  47 2.86
  39  0.169  0.581  0.297-  43 2.63   3 2.63  47 2.64  31 2.64  35 2.68  59 2.68  34 2.81  10 2.81
                            36 2.82  44 2.83  46 2.90  48 3.07
  40  1.000  0.750  0.410-  16 2.64  64 2.64  60 2.65  44 2.65  36 2.65   4 2.65  63 2.80  35 2.81
                            59 2.81
  41  0.250  0.750  0.056-  45 2.64  33 2.64  37 2.64  53 2.64  17 2.64  13 2.64  46 2.82  38 2.85
                            34 2.90
  42  0.084  0.918  0.175-  14 2.64   2 2.64  38 2.64  54 2.64  46 2.66  50 2.66  35 2.81  63 2.81
                            13 2.83   1 2.83  37 2.84   7 2.94
  43  0.417  0.581  0.308-  15 2.60  55 2.61   3 2.61  39 2.63  51 2.65  47 2.66  56 2.73   6 2.83
                            48 2.92  62 2.97  34 3.00  52 3.21
  44  0.250  0.750  0.416-  36 2.64  48 2.64  20 2.64  56 2.64  40 2.65  16 2.65  39 2.83  47 2.83
                            35 2.89
  45  0.250  0.500  0.056-  41 2.64  53 2.64   5 2.64   9 2.64  49 2.64  33 2.64  10 2.89  34 2.89
                             6 3.06
  46  0.084  0.666  0.174-  38 2.64  22 2.64  34 2.64  10 2.65  42 2.66  50 2.66  41 2.82  59 2.82
                            33 2.82  35 2.82  37 2.83  39 2.90
  47  0.418  0.833  0.297-  51 2.63  23 2.64  39 2.64  35 2.65  43 2.66  11 2.66  34 2.81  58 2.83
                            44 2.83  38 2.86  20 2.87  56 2.91
  48  0.249  0.501  0.432-  65 2.07  44 2.64  36 2.64   8 2.65  56 2.65  52 2.71  12 2.71  43 2.92
                             3 2.92  39 3.07
  49  0.500  0.500  0.056-  61 2.64  53 2.64  57 2.64  21 2.64   9 2.64  45 2.64  26 2.90  62 2.91
                             6 3.06
  50  0.832  0.666  0.175-  62 2.64  26 2.64  54 2.64  22 2.64  46 2.66  42 2.66  59 2.81  63 2.81
                            61 2.83  57 2.83  37 2.84  55 2.94
  51  0.666  0.832  0.297-  47 2.63  63 2.63  55 2.64  23 2.65  43 2.65  27 2.66  62 2.79  58 2.84
                            60 2.85  32 2.85  54 2.87  56 2.90
  52  0.504  0.502  0.449-  66 1.87  65 1.89  60 2.66  64 2.68  56 2.69  12 2.70  24 2.71  48 2.71
                            43 3.21  15 3.23  55 3.31
  53  0.500  0.750  0.056-  49 2.64  57 2.64  45 2.64  41 2.64  29 2.64  17 2.64  58 2.87  34 2.89
                            62 2.92
  54  0.833  0.917  0.176-  18 2.64  58 2.64  50 2.64  42 2.64  62 2.66  14 2.66  63 2.79  29 2.84
                            57 2.84   1 2.84  27 2.87  51 2.87
  55  0.663  0.581  0.300-  43 2.61  15 2.61  19 2.63  51 2.64  59 2.67  63 2.68  64 2.79  60 2.80
                            62 2.83  26 2.85  50 2.94  52 3.31
  56  0.500  0.749  0.421-  60 2.62  44 2.64  32 2.64  48 2.65  20 2.65  52 2.69  43 2.73  51 2.90
                            47 2.91
  57  0.750  0.750  0.056-  61 2.64  49 2.64  53 2.64  37 2.64   1 2.64  29 2.64  50 2.83  54 2.84
                            62 2.93
  58  0.583  0.916  0.177-  54 2.64  38 2.64  34 2.64  62 2.65  18 2.65  30 2.65  47 2.83  23 2.84
                            51 2.84  53 2.87  29 2.87  17 2.87
  59  0.916  0.582  0.293-  19 2.64  31 2.65  63 2.66  35 2.66  55 2.67  39 2.68  22 2.79  50 2.81
                            40 2.81  46 2.82  36 2.89  64 2.91
  60  0.748  0.748  0.417-  64 2.62  56 2.62  32 2.65  40 2.65  52 2.66   4 2.69  55 2.80  51 2.85
                            63 2.92
  61  0.750  0.500  0.056-  49 2.64  57 2.64  21 2.64  25 2.64  37 2.64  33 2.64  50 2.83  22 2.84
                            26 2.91
  62  0.582  0.665  0.180-  26 2.62  34 2.62   6 2.63  50 2.64  58 2.65  54 2.66  51 2.79  55 2.83
                            49 2.91  53 2.92  57 2.93  43 2.97
  63  0.916  0.834  0.293-  51 2.63  27 2.63  59 2.66  35 2.66  55 2.68   7 2.68  54 2.79  40 2.80
                            42 2.81  50 2.81   4 2.92  60 2.92
  64  0.750  0.501  0.417-  60 2.62  40 2.64  24 2.64  28 2.65  36 2.65  52 2.68  55 2.79  19 2.85
                            59 2.91
  65  0.333  0.417  0.502-  12 1.86  52 1.89  48 2.07
  66  0.406  0.339  0.504-  12 1.80  52 1.87
 
  LATTYP: Found a hexagonal cell.
 ALAT       =    10.5600004196
 C/A-ratio  =     1.8939393187
  
  Lattice vectors:
  
 A1 = (  10.5600004196,   0.0000000000,   0.0000000000)
 A2 = (  -5.2800002098,   9.1452286274,   0.0000000000)
 A3 = (   0.0000000000,   0.0000000000,  20.0000000000)


Analysis of symmetry for initial positions (statically):
=====================================================================
 Subroutine PRICEL returns:
 Original cell was already a primitive cell.
 

 Routine SETGRP: Setting up the symmetry group for a 
 hexagonal supercell.


 Subroutine GETGRP returns: Found  1 space group operations
 (whereof  1 operations were pure point group operations)
 out of a pool of 24 trial point group operations.


The static configuration has the point symmetry C_1 .


Analysis of symmetry for dynamics (positions and initial velocities):
=====================================================================
 Subroutine PRICEL returns:
 Original cell was already a primitive cell.
 

 Routine SETGRP: Setting up the symmetry group for a 
 hexagonal supercell.


 Subroutine GETGRP returns: Found  1 space group operations
 (whereof  1 operations were pure point group operations)
 out of a pool of 24 trial point group operations.


The dynamic configuration has the point symmetry C_1 .


Analysis of constrained symmetry for selective dynamics:
=====================================================================
 Subroutine PRICEL returns:
 Original cell was already a primitive cell.
 

 Routine SETGRP: Setting up the symmetry group for a 
 hexagonal supercell.


 Subroutine GETGRP returns: Found  1 space group operations
 (whereof  1 operations were pure point group operations)
 out of a pool of 24 trial point group operations.


The constrained configuration has the point symmetry C_1 .


Analysis of structural, dynamic, and magnetic symmetry:
=====================================================================
 Subroutine PRICEL returns:
 Original cell was already a primitive cell.
 

 Routine SETGRP: Setting up the symmetry group for a 
 hexagonal supercell.


 Subroutine GETGRP returns: Found  1 space group operations
 (whereof  1 operations were pure point group operations)
 out of a pool of 24 trial point group operations.


The magnetic configuration has the point symmetry C_1 .


 Subroutine INISYM returns: Found  1 space group operations
 (whereof  1 operations are pure point group operations),
 and found     1 'primitive' translations

 
 
 KPOINTS: mesh auto                               

Automatic generation of k-mesh.
Space group operators:
 irot       det(A)        alpha          n_x          n_y          n_z        tau_x        tau_y        tau_z
    1     1.000000     0.000000     1.000000     0.000000     0.000000     0.000000     0.000000     0.000000
 
 Subroutine IBZKPT returns following result:
 ===========================================
 
 Found      4 irreducible k-points:
 
 Following reciprocal coordinates:
            Coordinates               Weight
  0.000000  0.000000  0.000000      1.000000
  0.500000 -0.000000  0.000000      1.000000
  0.000000  0.500000  0.000000      1.000000
  0.500000  0.500000  0.000000      1.000000
 
 Following cartesian coordinates:
            Coordinates               Weight
  0.000000  0.000000  0.000000      1.000000
  0.047348  0.027337  0.000000      1.000000
  0.000000  0.054673  0.000000      1.000000
  0.047348  0.082010  0.000000      1.000000
 


--------------------------------------------------------------------------------------------------------




 Dimension of arrays:
   k-points           NKPTS =      4   k-points in BZ     NKDIM =      4   number of bands    NBANDS=    440
   number of dos      NEDOS =    301   number of ions     NIONS =     66
   non local maximal  LDIM  =      6   non local SUM 2l+1 LMDIM =     18
   total plane-waves  NPLWV = ******
   max r-space proj   IRMAX =   8171   max aug-charges    IRDMAX=  35597
   dimension x,y,z NGX =    84 NGY =   84 NGZ =  160
   dimension x,y,z NGXF=   168 NGYF=  168 NGZF=  320
   support grid    NGXF=   168 NGYF=  168 NGZF=  320
   ions per type =              64   2
   NGX,Y,Z   is equivalent  to a cutoff of  13.22, 13.22, 13.30 a.u.
   NGXF,Y,Z  is equivalent  to a cutoff of  26.45, 26.45, 26.60 a.u.

 SYSTEM =  Pt111                                   
 POSCAR =  Pt   H                                  

 Startparameter for this run:
   NWRITE =      2    write-flag & timer
   PREC   = accura    normal or accurate (medium, high low for compatibility)
   ISTART =      0    job   : 0-new  1-cont  2-samecut
   ICHARG =      2    charge: 1-file 2-atom 10-const
   ISPIN  =      2    spin polarized calculation?
   LNONCOLLINEAR =      F non collinear calculations
   LSORBIT =      F    spin-orbit coupling
   INIWAV =      1    electr: 0-lowe 1-rand  2-diag
   LASPH  =      F    aspherical Exc in radial PAW
   METAGGA=      F    non-selfconsistent MetaGGA calc.

 Electronic Relaxation 1
   ENCUT  =  550.0 eV  40.42 Ry    6.36 a.u.  20.19 20.19 38.24*2*pi/ulx,y,z
   ENINI  =  550.0     initial cutoff
   ENAUG  =  400.0 eV  augmentation charge cutoff
   NELM   =    200;   NELMIN=  2; NELMDL= -5     # of ELM steps 
   EDIFF  = 0.1E-04   stopping-criterion for ELM
   LREAL  =      T    real-space projection
   NLSPLINE    = F    spline interpolate recip. space projectors
   LCOMPAT=      F    compatible to vasp.4.4
   GGA_COMPAT  = T    GGA compatible to vasp.4.4-vasp.4.6
   LMAXPAW     = -100 max onsite density
   LMAXMIX     =    2 max onsite mixed and CHGCAR
   VOSKOWN=      0    Vosko Wilk Nusair interpolation
   ROPT   =   -0.00025  -0.00025
 Ionic relaxation
   EDIFFG = -.5E-01   stopping-criterion for IOM
   NSW    =    300    number of steps for IOM
   NBLOCK =      1;   KBLOCK =    300    inner block; outer block 
   IBRION =      1    ionic relax: 0-MD 1-quasi-New 2-CG
   NFREE  =      0    steps in history (QN), initial steepest desc. (CG)
   ISIF   =      2    stress and relaxation
   IWAVPR =     11    prediction:  0-non 1-charg 2-wave 3-comb
   ISYM   =      2    0-nonsym 1-usesym 2-fastsym
   LCORR  =      T    Harris-Foulkes like correction to forces

   POTIM  = 0.5000    time-step for ionic-motion
   TEIN   =    0.0    initial temperature
   TEBEG  =    0.0;   TEEND  =   0.0 temperature during run
   SMASS  =  -3.00    Nose mass-parameter (am)
   estimated Nose-frequenzy (Omega)   =  0.10E-29 period in steps =****** mass=  -0.255E-26a.u.
   SCALEE = 1.0000    scale energy and forces
   NPACO  =    256;   APACO  = 16.0  distance and # of slots for P.C.
   PSTRESS=    0.0 pullay stress

  Mass of Ions in am
   POMASS = 195.08  1.00
  Ionic Valenz
   ZVAL   =  10.00  1.00
  Atomic Wigner-Seitz radii
   RWIGS  =  -1.00 -1.00
  virtual crystal weights 
   VCA    =   1.00  1.00
   NELECT =     642.0000    total number of electrons
   NUPDOWN=      -1.0000    fix difference up-down

 DOS related values:
   EMIN   =  10.00;   EMAX   =-10.00  energy-range for DOS
   EFERMI =   0.00
   ISMEAR =     1;   SIGMA  =   0.10  broadening in eV -4-tet -1-fermi 0-gaus

 Electronic relaxation 2 (details)
   IALGO  =     68    algorithm
   LDIAG  =      T    sub-space diagonalisation (order eigenvalues)
   LSUBROT=      F    optimize rotation matrix (better conditioning)
   TURBO    =      0    0=normal 1=particle mesh
   IRESTART =      0    0=no restart 2=restart with 2 vectors
   NREBOOT  =      0    no. of reboots
   NMIN     =      0    reboot dimension
   EREF     =   0.00    reference energy to select bands
   IMIX   =      4    mixing-type and parameters
     AMIX     =   0.40;   BMIX     =  1.00
     AMIX_MAG =   1.60;   BMIX_MAG =  1.00
     AMIN     =   0.10
     WC   =   100.;   INIMIX=   1;  MIXPRE=   1;  MAXMIX= -45

 Intra band minimization:
   WEIMIN = 0.0010     energy-eigenvalue tresh-hold
   EBREAK =  0.57E-08  absolut break condition
   DEPER  =   0.30     relativ break condition  

   TIME   =   0.40     timestep for ELM

  volume/ion in A,a.u.               =      29.26       197.49
  Fermi-wavevector in a.u.,A,eV,Ry     =   1.134028  2.143002 17.497349  1.286019
  Thomas-Fermi vector in A             =   2.270731
 
 Write flags
   LWAVE        =      F    write WAVECAR
   LDOWNSAMPLE  =      F    k-point downsampling of WAVECAR
   LCHARG       =      F    write CHGCAR
   LVTOT        =      F    write LOCPOT, total local potential
   LVHAR        =      F    write LOCPOT, Hartree potential only
   LELF         =      F    write electronic localiz. function (ELF)
   LORBIT       =      0    0 simple, 1 ext, 2 COOP (PROOUT), +10 PAW based schemes


 Dipole corrections
   LMONO  =      F    monopole corrections only (constant potential shift)
   LDIPOL =      F    correct potential (dipole corrections)
   IDIPOL =      0    1-x, 2-y, 3-z, 4-all directions 
   EPSILON=  1.0000000 bulk dielectric constant

 Exchange correlation treatment:
   GGA     =    --    GGA type
   LEXCH   =     8    internal setting for exchange type
   VOSKOWN=      0    Vosko Wilk Nusair interpolation
   LHFCALC =     F    Hartree Fock is set to
   LHFONE  =     F    Hartree Fock one center treatment
   AEXX    =    0.0000 exact exchange contribution

 Linear response parameters
   LEPSILON=     F    determine dielectric tensor
   LRPA    =     F    only Hartree local field effects (RPA)
   LNABLA  =     F    use nabla operator in PAW spheres
   LVEL    =     F    velocity operator in full k-point grid
   LINTERFAST=   F  fast interpolation
   KINTER  =     0    interpolate to denser k-point grid
   CSHIFT  =0.1000    complex shift for real part using Kramers Kronig
   OMEGAMAX=  -1.0    maximum frequency
   DEG_THRESHOLD= 0.2000000E-02 threshold for treating states as degnerate
   RTIME   =   -0.100 relaxation time in fs
  (WPLASMAI=    0.000 imaginary part of plasma frequency in eV, 0.658/RTIME)
   DFIELD  = 0.0000000 0.0000000 0.0000000 field for delta impulse in time
 
 Orbital magnetization related:
   ORBITALMAG=     F  switch on orbital magnetization
   LCHIMAG   =     F  perturbation theory with respect to B field
   DQ        =  0.001000  dq finite difference perturbation B field
   LLRAUG    =     F  two centre corrections for induced B field



--------------------------------------------------------------------------------------------------------


 quasi-Newton-method for relaxation of ions
   using selective dynamics as specified on POSCAR
 charge density and potential will be updated during run
 spin polarized calculation
 RMM-DIIS sequential band-by-band and
  variant of blocked Davidson during initial phase
 perform sub-space diagonalisation
    before iterative eigenvector-optimisation
 modified Broyden-mixing scheme, WC =      100.0
 initial mixing is a Kerker type mixing with AMIX =  0.4000 and BMIX =      1.0000
 Hartree-type preconditioning will be used
 using additional bands          119
 real space projection scheme for non local part
 use partial core corrections
 calculate Harris-corrections to forces 
   (improved forces if not selfconsistent)
 use gradient corrections 
 use of overlap-Matrix (Vanderbilt PP)
 Methfessel and Paxton  Order N= 1 SIGMA  =   0.10


--------------------------------------------------------------------------------------------------------


  energy-cutoff  :      550.00
  volume of cell :     1931.47
      direct lattice vectors                 reciprocal lattice vectors
    10.560000420  0.000000000  0.000000000     0.094696966  0.054673319  0.000000000
    -5.280000210  9.145228627  0.000000000     0.000000000  0.109346638  0.000000000
     0.000000000  0.000000000 20.000000000     0.000000000  0.000000000  0.050000000

  length of vectors
    10.560000420 10.560000420 20.000000000     0.109346638  0.109346638  0.050000000


 
 k-points in units of 2pi/SCALE and weight: mesh auto                               
   0.00000000  0.00000000  0.00000000       0.250
   0.04734848  0.02733666  0.00000000       0.250
   0.00000000  0.05467332  0.00000000       0.250
   0.04734848  0.08200998  0.00000000       0.250
 
 k-points in reciprocal lattice and weights: mesh auto                               
   0.00000000  0.00000000  0.00000000       0.250
   0.50000000 -0.00000000  0.00000000       0.250
   0.00000000  0.50000000  0.00000000       0.250
   0.50000000  0.50000000  0.00000000       0.250
 
 position of ions in fractional coordinates (direct lattice) 
   0.99999844  0.00000156  0.05579229
   0.33345871  0.16822639  0.17950387
   0.16926183  0.33349557  0.30798469
   0.00269304  0.00258603  0.41691709
   0.99999844  0.25000155  0.05579229
   0.33344205  0.41649573  0.18830056
   0.16937503  0.08717600  0.30023376
   0.00107074  0.24989063  0.42068521
   0.24999844  0.25000155  0.05579229
   0.08503714  0.41622415  0.17875261
   0.41664060  0.08441104  0.29668847
   0.24879241  0.24655350  0.45071331
   0.24999844  0.00000156  0.05579229
   0.08543752  0.16819845  0.18020003
   0.41591974  0.33425972  0.30719232
   0.24952638  0.00022645  0.41734279
   0.49999844  0.00000156  0.05579229
   0.83414514  0.16659771  0.17731034
   0.66560431  0.33334366  0.29638111
   0.50012335  0.00001019  0.41781109
   0.49999843  0.25000155  0.05579229
   0.83322016  0.41637771  0.17577900
   0.66666292  0.08336614  0.29662314
   0.50016902  0.25015476  0.41924023
   0.74999841  0.25000155  0.05579229
   0.58170957  0.41650034  0.17933541
   0.91810560  0.08404515  0.29688130
   0.75019103  0.25010234  0.41762662
   0.74999842  0.00000156  0.05579229
   0.58298736  0.16688150  0.17681515
   0.91749667  0.33239995  0.29644377
   0.75058949  0.99985511  0.41728104
   0.99999844  0.50000154  0.05579229
   0.33376383  0.66491488  0.17880211
   0.16792884  0.83404148  0.29288498
   0.00072407  0.49979706  0.41530971
   0.99999843  0.75000151  0.05579229
   0.33359853  0.91676424  0.17601526
   0.16897118  0.58123340  0.29719697
   0.99999815  0.75040459  0.41030542
   0.24999843  0.75000151  0.05579229
   0.08415839  0.91805805  0.17521897
   0.41650573  0.58074411  0.30798992
   0.25046211  0.74954816  0.41562951
   0.24999844  0.50000154  0.05579229
   0.08401546  0.66605999  0.17447483
   0.41771051  0.83260863  0.29658834
   0.24926154  0.50111542  0.43209900
   0.49999844  0.50000154  0.05579229
   0.83187580  0.66585349  0.17520046
   0.66615802  0.83213888  0.29702081
   0.50419417  0.50220108  0.44907053
   0.49999843  0.75000151  0.05579229
   0.83329181  0.91666335  0.17567526
   0.66287787  0.58084907  0.30024648
   0.50049645  0.74933692  0.42067027
   0.74999841  0.75000151  0.05579229
   0.58333152  0.91581497  0.17734964
   0.91615722  0.58226267  0.29262747
   0.74809536  0.74795017  0.41733374
   0.74999839  0.50000154  0.05579229
   0.58174602  0.66455708  0.18036474
   0.91608707  0.83390352  0.29291279
   0.75008860  0.50078505  0.41683447
   0.33277487  0.41664232  0.50163604
   0.40593948  0.33877177  0.50441404
 
 position of ions in cartesian coordinates  (Angst):
  10.55997578  0.00001422  1.11584590
   2.63308873  1.53846877  3.59007734
   0.02654832  3.04989320  6.15969388
   0.01478420  0.02364988  8.33834182
   9.23997574  2.28632132  1.11584590
   1.32205063  3.80894870  3.76601124
   1.32831111  0.79724446  6.00467526
  -1.30811555  2.28530693  8.41370425
   1.31997542  2.28632132  1.11584590
  -1.29967133  3.80646499  3.57505214
   3.95403459  0.77195830  5.93376946
   1.32544542  2.25478813  9.01426627
   2.63997547  0.00001422  1.11584590
   0.01413236  1.53821325  3.60400069
   2.62722126  3.05688155  6.14384639
   2.63380307  0.00207091  8.34685572
   5.27997557  0.00001422  1.11584590
   7.92893715  1.52357410  3.54620673
   5.26872714  3.04850402  5.92762223
   5.28124906  0.00009315  8.35622171
   3.95997540  2.28632132  1.11584590
   6.60033080  3.80786934  3.51558003
   6.59978753  0.76240241  5.93246272
   3.96096786  2.28772247  8.38480450
   6.59997527  2.28632132  1.11584590
   3.94373137  3.80899087  3.58670828
   9.25143713  0.76861210  5.93762601
   6.60147715  2.28724307  8.35253250
   7.91997543  0.00001422  1.11584590
   5.27521244  1.52616951  3.53630302
   7.93369336  3.03987356  5.92887543
   2.64699017  9.14390359  8.34562082
   7.91997567  4.57262842  1.11584590
   0.01379544  6.08079860  3.57604222
  -2.63041054  7.62749999  5.85769965
  -2.63128236  4.57075834  8.30619424
   6.59997574  6.85893527  1.11584590
  -1.31771472  8.38401855  3.52030517
  -1.28457673  5.31551236  5.94393933
   6.59784444  6.86262155  8.20610844
  -1.32002457  6.85893527  1.11584590
  -3.95863408  8.39585076  3.50437931
   1.33197164  5.31103765  6.15979844
  -1.31273444  6.85478931  8.31259014
  -0.00002464  4.57262842  1.11584590
  -2.62959365  6.09127092  3.48949663
   0.01484938  7.61439631  5.93176684
  -0.01368756  4.58281507  8.64198000
   2.63997546  4.57262842  1.11584590
   5.26890225  6.08938236  3.50400926
   2.64093548  7.61010034  5.94041625
   2.67266886  4.59274370  8.98141067
   1.31997553  6.85893527  1.11584590
   3.95957916  8.38309594  3.51350513
   3.93310740  5.31199753  6.00492966
   1.32874367  6.85285744  8.41340546
   3.95997540  6.85893527  1.11584590
   1.32447781  8.37533731  3.54699287
   6.60027363  5.32492525  5.85254945
   3.95071027  6.84017531  8.34667476
   5.27997509  4.57262842  1.11584590
   2.63437672  6.07752639  3.60729487
   5.27086913  7.62623832  5.85825572
   5.27679077  4.57979382  8.33668944
   1.31423118  3.81028932 10.03272084
   2.49800602  3.09814529 10.08828075
 


--------------------------------------------------------------------------------------------------------


 k-point  1 :   0.0000 0.0000 0.0000  plane waves:   56579
 k-point  2 :   0.5000-0.0000 0.0000  plane waves:   56606
 k-point  3 :   0.0000 0.5000 0.0000  plane waves:   56606
 k-point  4 :   0.5000 0.5000 0.0000  plane waves:   56606

 maximum and minimum number of plane-waves per node :     56606    56579

 maximum number of plane-waves:     56606
 maximum index in each direction: 
   IXMAX=   20   IYMAX=   20   IZMAX=   38
   IXMIN=  -20   IYMIN=  -20   IZMIN=  -38


 serial   3D FFT for wavefunctions
 parallel 3D FFT for charge:
    minimum data exchange during FFTs selected (reduces bandwidth)


 total amount of memory used by VASP MPI-rank0   328564. kBytes
=======================================================================

   base      :      30000. kBytes
   nonlr-proj:      89586. kBytes
   fftplans  :      13334. kBytes
   grid      :     112154. kBytes
   one-center:       2052. kBytes
   wavefun   :      81438. kBytes
 
     INWAV:  cpu time    0.0000: real time    0.0000
 Broyden mixing: mesh for mixing (old mesh)
   NGX = 41   NGY = 41   NGZ = 77
  (NGX  =168   NGY  =168   NGZ  =320)
  gives a total of 129437 points

 initial charge density was supplied:
 charge density of overlapping atoms calculated
 number of electron     642.0000000 magnetization      66.0000000
 keeping initial charge density in first step


--------------------------------------------------------------------------------------------------------


 Maximum index for non-local projection operator         7923
 Maximum index for augmentation-charges         2177 (set IRDMAX)


--------------------------------------------------------------------------------------------------------


 First call to EWALD:  gamma=   0.142
 Maximum number of real-space cells 4x 4x 2
 Maximum number of reciprocal cells 2x 2x 4

    FEWALD:  cpu time    0.0026: real time    0.0026


--------------------------------------- Iteration      1(   1)  ---------------------------------------


    POTLOK:  cpu time    0.4548: real time    0.4742
    SETDIJ:  cpu time    0.0336: real time    0.0337
     EDDAV:  cpu time   39.1372: real time   39.2384
       DOS:  cpu time    0.0012: real time    0.0063
    --------------------------------------------
      LOOP:  cpu time   39.6268: real time   39.7527

 eigenvalue-minimisations  :  7040
 total energy-change (2. order) : 0.4377027E+04  (-0.3126552E+05)
 number of electron     642.0000000 magnetization      66.0000000
 augmentation part      642.0000000 magnetization      66.0000000

 Free energy of the ion-electron system (eV)
  ---------------------------------------------------
  alpha Z        PSCENC =      2023.78361127
  Ewald energy   TEWEN  =    123262.25634348
  -Hartree energ DENC   =   -174380.08493564
  -exchange      EXHF   =         0.00000000
  -V(xc)+E(xc)   XCENC  =       247.05801848
  PAW double counting   =     44550.55032729   -42740.70693553
  entropy T*S    EENTRO =         0.00171045
  eigenvalues    EBANDS =      4725.79874852
  atomic energy  EATOM  =     46688.37031544
  Solvation  Ediel_sol  =         0.00000000
  ---------------------------------------------------
  free energy    TOTEN  =      4377.02720378 eV

  energy without entropy =     4377.02549332  energy(sigma->0) =     4377.02663362


--------------------------------------------------------------------------------------------------------




--------------------------------------- Iteration      1(   2)  ---------------------------------------


     EDDAV:  cpu time   42.3548: real time   42.4551
       DOS:  cpu time    0.0009: real time    0.0030
    --------------------------------------------
      LOOP:  cpu time   42.3557: real time   42.4580

 eigenvalue-minimisations  :  7680
 total energy-change (2. order) :-0.4547600E+04  (-0.4164437E+04)
 number of electron     642.0000000 magnetization      66.0000000
 augmentation part      642.0000000 magnetization      66.0000000

 Free energy of the ion-electron system (eV)
  ---------------------------------------------------
  alpha Z        PSCENC =      2023.78361127
  Ewald energy   TEWEN  =    123262.25634348
  -Hartree energ DENC   =   -174380.08493564
  -exchange      EXHF   =         0.00000000
  -V(xc)+E(xc)   XCENC  =       247.05801848
  PAW double counting   =     44550.55032729   -42740.70693553
  entropy T*S    EENTRO =        -0.00160268
  eigenvalues    EBANDS =       178.20251244
  atomic energy  EATOM  =     46688.37031544
  Solvation  Ediel_sol  =         0.00000000
  ---------------------------------------------------
  free energy    TOTEN  =      -170.57234544 eV

  energy without entropy =     -170.57074277  energy(sigma->0) =     -170.57181122


--------------------------------------------------------------------------------------------------------




--------------------------------------- Iteration      1(   3)  ---------------------------------------


     EDDAV:  cpu time   44.0903: real time   44.1942
       DOS:  cpu time    0.0009: real time    0.0037
    --------------------------------------------
      LOOP:  cpu time   44.0911: real time   44.1979

 eigenvalue-minimisations  :  8120
 total energy-change (2. order) :-0.2151945E+03  (-0.2039969E+03)
 number of electron     642.0000000 magnetization      66.0000000
 augmentation part      642.0000000 magnetization      66.0000000

 Free energy of the ion-electron system (eV)
  ---------------------------------------------------
  alpha Z        PSCENC =      2023.78361127
  Ewald energy   TEWEN  =    123262.25634348
  -Hartree energ DENC   =   -174380.08493564
  -exchange      EXHF   =         0.00000000
  -V(xc)+E(xc)   XCENC  =       247.05801848
  PAW double counting   =     44550.55032729   -42740.70693553
  entropy T*S    EENTRO =        -0.01955443
  eigenvalues    EBANDS =       -36.97400299
  atomic energy  EATOM  =     46688.37031544
  Solvation  Ediel_sol  =         0.00000000
  ---------------------------------------------------
  free energy    TOTEN  =      -385.76681262 eV

  energy without entropy =     -385.74725819  energy(sigma->0) =     -385.76029447


--------------------------------------------------------------------------------------------------------




--------------------------------------- Iteration      1(   4)  ---------------------------------------


     EDDAV:  cpu time   44.4846: real time   44.5898
       DOS:  cpu time    0.0009: real time    0.0034
    --------------------------------------------
      LOOP:  cpu time   44.4855: real time   44.5933

 eigenvalue-minimisations  :  8280
 total energy-change (2. order) :-0.4702306E+01  (-0.4678878E+01)
 number of electron     642.0000000 magnetization      66.0000000
 augmentation part      642.0000000 magnetization      66.0000000

 Free energy of the ion-electron system (eV)
  ---------------------------------------------------
  alpha Z        PSCENC =      2023.78361127
  Ewald energy   TEWEN  =    123262.25634348
  -Hartree energ DENC   =   -174380.08493564
  -exchange      EXHF   =         0.00000000
  -V(xc)+E(xc)   XCENC  =       247.05801848
  PAW double counting   =     44550.55032729   -42740.70693553
  entropy T*S    EENTRO =        -0.02257184
  eigenvalues    EBANDS =       -41.67329154
  atomic energy  EATOM  =     46688.37031544
  Solvation  Ediel_sol  =         0.00000000
  ---------------------------------------------------
  free energy    TOTEN  =      -390.46911859 eV

  energy without entropy =     -390.44654675  energy(sigma->0) =     -390.46159464


--------------------------------------------------------------------------------------------------------




--------------------------------------- Iteration      1(   5)  ---------------------------------------


     EDDAV:  cpu time   44.5407: real time   44.6511
       DOS:  cpu time    0.0009: real time    0.0240
    CHARGE:  cpu time    2.7965: real time    2.8034
    MIXING:  cpu time    0.0095: real time    0.0098
    --------------------------------------------
      LOOP:  cpu time   47.3476: real time   47.4884

 eigenvalue-minimisations  :  8160
 total energy-change (2. order) :-0.1359820E+00  (-0.1359427E+00)
 number of electron     642.0000056 magnetization      59.8078314
 augmentation part      185.5718665 magnetization      47.0396297

 Broyden mixing:
  rms(total) = 0.10451E+02    rms(broyden)= 0.10451E+02
  rms(prec ) = 0.10557E+02
  weight for this iteration     100.00

 Free energy of the ion-electron system (eV)
  ---------------------------------------------------
  alpha Z        PSCENC =      2023.78361127
  Ewald energy   TEWEN  =    123262.25634348
  -Hartree energ DENC   =   -174380.08493564
  -exchange      EXHF   =         0.00000000
  -V(xc)+E(xc)   XCENC  =       247.05801848
  PAW double counting   =     44550.55032729   -42740.70693553
  entropy T*S    EENTRO =        -0.02266229
  eigenvalues    EBANDS =       -41.80918308
  atomic energy  EATOM  =     46688.37031544
  Solvation  Ediel_sol  =         0.00000000
  ---------------------------------------------------
  free energy    TOTEN  =      -390.60510057 eV

  energy without entropy =     -390.58243828  energy(sigma->0) =     -390.59754647


--------------------------------------------------------------------------------------------------------




--------------------------------------- Iteration      1(   6)  ---------------------------------------


    POTLOK:  cpu time    0.3979: real time    0.4015
    SETDIJ:  cpu time    0.0329: real time    0.0330
    EDDIAG:  cpu time    6.2597: real time    6.2751
  RMM-DIIS:  cpu time   25.9867: real time   26.0540
    ORTHCH:  cpu time    0.7273: real time    0.7313
       DOS:  cpu time    0.0008: real time    0.0008
    CHARGE:  cpu time    2.6456: real time    2.6519
    MIXING:  cpu time    0.0095: real time    0.0098
    --------------------------------------------
      LOOP:  cpu time   36.0604: real time   36.1574

 eigenvalue-minimisations  :  7074
 total energy-change (2. order) : 0.2737215E+02  (-0.6405618E+01)
 number of electron     642.0000059 magnetization      52.1193201
 augmentation part      195.3507826 magnetization      38.7080186

 Broyden mixing:
  rms(total) = 0.67221E+01    rms(broyden)= 0.67221E+01
  rms(prec ) = 0.70017E+01
  weight for this iteration     100.00

 eigenvalues of (default mixing * dielectric matrix)
  average eigenvalue GAMMA=   1.2470
  1.2470

 Free energy of the ion-electron system (eV)
  ---------------------------------------------------
  alpha Z        PSCENC =      2023.78361127
  Ewald energy   TEWEN  =    123262.25634348
  -Hartree energ DENC   =   -173699.73314871
  -exchange      EXHF   =         0.00000000
  -V(xc)+E(xc)   XCENC  =       237.58530641
  PAW double counting   =     50799.64491986   -49097.25842071
  entropy T*S    EENTRO =        -0.02924022
  eigenvalues    EBANDS =      -577.85263967
  atomic energy  EATOM  =     46688.37031544
  Solvation  Ediel_sol  =         0.00000000
  ---------------------------------------------------
  free energy    TOTEN  =      -363.23295285 eV

  energy without entropy =     -363.20371263  energy(sigma->0) =     -363.22320611


--------------------------------------------------------------------------------------------------------




--------------------------------------- Iteration      1(   7)  ---------------------------------------


    POTLOK:  cpu time    0.3968: real time    0.4004
    SETDIJ:  cpu time    0.0328: real time    0.0328
    EDDIAG:  cpu time    6.2641: real time    6.2790
  RMM-DIIS:  cpu time   25.1452: real time   25.2088
    ORTHCH:  cpu time    0.7335: real time    0.7378
       DOS:  cpu time    0.0008: real time    0.0008
    CHARGE:  cpu time    2.8303: real time    2.8370
    MIXING:  cpu time    0.0082: real time    0.0082
    --------------------------------------------
      LOOP:  cpu time   35.4115: real time   35.5048

 eigenvalue-minimisations  :  7043
 total energy-change (2. order) :-0.1027207E+03  (-0.1041862E+02)
 number of electron     642.0000064 magnetization      46.4222041
 augmentation part      192.9158555 magnetization      34.8199386

 Broyden mixing:
  rms(total) = 0.94196E+01    rms(broyden)= 0.94196E+01
  rms(prec ) = 0.11675E+02
  weight for this iteration     100.00

 eigenvalues of (default mixing * dielectric matrix)
  average eigenvalue GAMMA=   1.0394
  1.7406  0.3383

 Free energy of the ion-electron system (eV)
  ---------------------------------------------------
  alpha Z        PSCENC =      2023.78361127
  Ewald energy   TEWEN  =    123262.25634348
  -Hartree energ DENC   =   -174248.92014164
  -exchange      EXHF   =         0.00000000
  -V(xc)+E(xc)   XCENC  =       232.54351853
  PAW double counting   =     56379.31237742   -54737.60292103
  entropy T*S    EENTRO =        -0.00518186
  eigenvalues    EBANDS =       -65.69153836
  atomic energy  EATOM  =     46688.37031544
  Solvation  Ediel_sol  =         0.00000000
  ---------------------------------------------------
  free energy    TOTEN  =      -465.95361675 eV

  energy without entropy =     -465.94843489  energy(sigma->0) =     -465.95188946


--------------------------------------------------------------------------------------------------------




--------------------------------------- Iteration      1(   8)  ---------------------------------------


    POTLOK:  cpu time    0.3964: real time    0.3996
    SETDIJ:  cpu time    0.0329: real time    0.0330
    EDDIAG:  cpu time    6.5578: real time    6.5735
  RMM-DIIS:  cpu time   25.6269: real time   25.6923
    ORTHCH:  cpu time    0.7325: real time    0.7374
       DOS:  cpu time    0.0008: real time    0.0008
    CHARGE:  cpu time    2.5745: real time    2.5807
    MIXING:  cpu time    0.0096: real time    0.0096
    --------------------------------------------
      LOOP:  cpu time   35.9314: real time   36.0269

 eigenvalue-minimisations  :  7079
 total energy-change (2. order) : 0.1068177E+03  (-0.4998403E+01)
 number of electron     642.0000062 magnetization      43.5756751
 augmentation part      198.4949883 magnetization      33.0523605

 Broyden mixing:
  rms(total) = 0.32196E+01    rms(broyden)= 0.32196E+01
  rms(prec ) = 0.39134E+01
  weight for this iteration     100.00

 eigenvalues of (default mixing * dielectric matrix)
  average eigenvalue GAMMA=   1.0013
  2.0966  0.6021  0.3053

 Free energy of the ion-electron system (eV)
  ---------------------------------------------------
  alpha Z        PSCENC =      2023.78361127
  Ewald energy   TEWEN  =    123262.25634348
  -Hartree energ DENC   =   -173739.03324619
  -exchange      EXHF   =         0.00000000
  -V(xc)+E(xc)   XCENC  =       234.50068890
  PAW double counting   =     59788.39787605   -58187.43426818
  entropy T*S    EENTRO =        -0.01346934
  eigenvalues    EBANDS =      -429.96380641
  atomic energy  EATOM  =     46688.37031544
  Solvation  Ediel_sol  =         0.00000000
  ---------------------------------------------------
  free energy    TOTEN  =      -359.13595498 eV

  energy without entropy =     -359.12248564  energy(sigma->0) =     -359.13146520


--------------------------------------------------------------------------------------------------------




--------------------------------------- Iteration      1(   9)  ---------------------------------------


    POTLOK:  cpu time    0.3986: real time    0.4024
    SETDIJ:  cpu time    0.0330: real time    0.0331
    EDDIAG:  cpu time    6.2635: real time    6.2783
  RMM-DIIS:  cpu time   25.5080: real time   25.5777
    ORTHCH:  cpu time    0.7338: real time    0.7388
       DOS:  cpu time    0.0008: real time    0.0007
    CHARGE:  cpu time    2.6292: real time    2.6370
    MIXING:  cpu time    0.0102: real time    0.0102
    --------------------------------------------
      LOOP:  cpu time   35.5771: real time   35.6782

 eigenvalue-minimisations  :  7066
 total energy-change (2. order) :-0.2169591E+02  (-0.2334805E+01)
 number of electron     642.0000058 magnetization      41.1098234
 augmentation part      197.8909618 magnetization      33.2435053

 Broyden mixing:
  rms(total) = 0.53286E+01    rms(broyden)= 0.53286E+01
  rms(prec ) = 0.79066E+01
  weight for this iteration     100.00

 eigenvalues of (default mixing * dielectric matrix)
  average eigenvalue GAMMA=   0.8653
  2.2549  0.7164  0.3148  0.1751

 Free energy of the ion-electron system (eV)
  ---------------------------------------------------
  alpha Z        PSCENC =      2023.78361127
  Ewald energy   TEWEN  =    123262.25634348
  -Hartree energ DENC   =   -173699.95939045
  -exchange      EXHF   =         0.00000000
  -V(xc)+E(xc)   XCENC  =       233.48780705
  PAW double counting   =     60317.22909219   -58719.21345449
  entropy T*S    EENTRO =        -0.00146931
  eigenvalues    EBANDS =      -486.78471659
  atomic energy  EATOM  =     46688.37031544
  Solvation  Ediel_sol  =         0.00000000
  ---------------------------------------------------
  free energy    TOTEN  =      -380.83186141 eV

  energy without entropy =     -380.83039209  energy(sigma->0) =     -380.83137164


--------------------------------------------------------------------------------------------------------




--------------------------------------- Iteration      1(  10)  ---------------------------------------


    POTLOK:  cpu time    0.3985: real time    0.4020
    SETDIJ:  cpu time    0.0329: real time    0.0332
    EDDIAG:  cpu time    6.2690: real time    6.2872
  RMM-DIIS:  cpu time   25.5908: real time   25.6708
    ORTHCH:  cpu time    0.7257: real time    0.7307
       DOS:  cpu time    0.0008: real time    0.0008
    CHARGE:  cpu time    2.5814: real time    2.5888
    MIXING:  cpu time    0.0102: real time    0.0102
    --------------------------------------------
      LOOP:  cpu time   35.6095: real time   35.7237

 eigenvalue-minimisations  :  7076
 total energy-change (2. order) : 0.1352659E+02  (-0.8014246E+00)
 number of electron     642.0000063 magnetization      39.1508817
 augmentation part      197.5491593 magnetization      28.4827959

 Broyden mixing:
  rms(total) = 0.37286E+01    rms(broyden)= 0.37286E+01
  rms(prec ) = 0.50913E+01
  weight for this iteration     100.00

 eigenvalues of (default mixing * dielectric matrix)
  average eigenvalue GAMMA=   0.7472
  2.3025  0.7228  0.3331  0.2554  0.1220

 Free energy of the ion-electron system (eV)
  ---------------------------------------------------
  alpha Z        PSCENC =      2023.78361127
  Ewald energy   TEWEN  =    123262.25634348
  -Hartree energ DENC   =   -173759.85017947
  -exchange      EXHF   =         0.00000000
  -V(xc)+E(xc)   XCENC  =       232.87187851
  PAW double counting   =     60700.59993248   -59104.56840310
  entropy T*S    EENTRO =        -0.01370232
  eigenvalues    EBANDS =      -410.75506502
  atomic energy  EATOM  =     46688.37031544
  Solvation  Ediel_sol  =         0.00000000
  ---------------------------------------------------
  free energy    TOTEN  =      -367.30526872 eV

  energy without entropy =     -367.29156640  energy(sigma->0) =     -367.30070128


--------------------------------------------------------------------------------------------------------




--------------------------------------- Iteration      1(  11)  ---------------------------------------


    POTLOK:  cpu time    0.3978: real time    0.4011
    SETDIJ:  cpu time    0.0331: real time    0.0331
    EDDIAG:  cpu time    6.2658: real time    6.2839
  RMM-DIIS:  cpu time   25.5866: real time   25.6673
    ORTHCH:  cpu time    0.7354: real time    0.7397
       DOS:  cpu time    0.0008: real time    0.0008
    CHARGE:  cpu time    2.7349: real time    2.7430
    MIXING:  cpu time    0.0105: real time    0.0105
    --------------------------------------------
      LOOP:  cpu time   35.7649: real time   35.8796

 eigenvalue-minimisations  :  7076
 total energy-change (2. order) : 0.1080571E+02  (-0.4238753E+00)
 number of electron     642.0000059 magnetization      37.8396119
 augmentation part      197.6365494 magnetization      27.6203626

 Broyden mixing:
  rms(total) = 0.15283E+01    rms(broyden)= 0.15283E+01
  rms(prec ) = 0.17818E+01
  weight for this iteration     100.00

 eigenvalues of (default mixing * dielectric matrix)
  average eigenvalue GAMMA=   0.7027
  2.1848  0.6508  0.6508  0.3077  0.3077  0.1147

 Free energy of the ion-electron system (eV)
  ---------------------------------------------------
  alpha Z        PSCENC =      2023.78361127
  Ewald energy   TEWEN  =    123262.25634348
  -Hartree energ DENC   =   -173781.17034449
  -exchange      EXHF   =         0.00000000
  -V(xc)+E(xc)   XCENC  =       232.16552095
  PAW double counting   =     60939.23911896   -59345.16895973
  entropy T*S    EENTRO =        -0.00457097
  eigenvalues    EBANDS =      -375.97059166
  atomic energy  EATOM  =     46688.37031544
  Solvation  Ediel_sol  =         0.00000000
  ---------------------------------------------------
  free energy    TOTEN  =      -356.49955675 eV

  energy without entropy =     -356.49498578  energy(sigma->0) =     -356.49803310


--------------------------------------------------------------------------------------------------------




--------------------------------------- Iteration      1(  12)  ---------------------------------------


    POTLOK:  cpu time    0.3987: real time    0.4025
    SETDIJ:  cpu time    0.0335: real time    0.0335
    EDDIAG:  cpu time    6.2643: real time    6.2824
  RMM-DIIS:  cpu time   25.4653: real time   25.5482
    ORTHCH:  cpu time    0.7349: real time    0.7606
       DOS:  cpu time    0.0008: real time    0.0008
    CHARGE:  cpu time    2.7149: real time    2.7227
    MIXING:  cpu time    0.0106: real time    0.0106
    --------------------------------------------
      LOOP:  cpu time   35.6230: real time   35.7613

 eigenvalue-minimisations  :  7069
 total energy-change (2. order) :-0.1966393E+01  (-0.2126503E+00)
 number of electron     642.0000059 magnetization      36.2380796
 augmentation part      197.4880426 magnetization      26.6192944

 Broyden mixing:
  rms(total) = 0.13475E+01    rms(broyden)= 0.13475E+01
  rms(prec ) = 0.14811E+01
  weight for this iteration     100.00

 eigenvalues of (default mixing * dielectric matrix)
  average eigenvalue GAMMA=   0.6686
  2.1613  0.7105  0.7105  0.4439  0.2701  0.2701  0.1140

 Free energy of the ion-electron system (eV)
  ---------------------------------------------------
  alpha Z        PSCENC =      2023.78361127
  Ewald energy   TEWEN  =    123262.25634348
  -Hartree energ DENC   =   -173770.53309189
  -exchange      EXHF   =         0.00000000
  -V(xc)+E(xc)   XCENC  =       231.17186718
  PAW double counting   =     60644.26814715   -59047.20561994
  entropy T*S    EENTRO =         0.01920893
  eigenvalues    EBANDS =      -390.59673145
  atomic energy  EATOM  =     46688.37031544
  Solvation  Ediel_sol  =         0.00000000
  ---------------------------------------------------
  free energy    TOTEN  =      -358.46594982 eV

  energy without entropy =     -358.48515875  energy(sigma->0) =     -358.47235280


--------------------------------------------------------------------------------------------------------




--------------------------------------- Iteration      1(  13)  ---------------------------------------


    POTLOK:  cpu time    0.3926: real time    0.4027
    SETDIJ:  cpu time    0.0331: real time    0.0332
    EDDIAG:  cpu time    6.5367: real time    6.5559
  RMM-DIIS:  cpu time   25.6774: real time   25.7571
    ORTHCH:  cpu time    0.8055: real time    0.8129
       DOS:  cpu time    0.0008: real time    0.0008
    CHARGE:  cpu time    2.7264: real time    2.7341
    MIXING:  cpu time    0.0113: real time    0.0113
    --------------------------------------------
      LOOP:  cpu time   36.1839: real time   36.3081

 eigenvalue-minimisations  :  7077
 total energy-change (2. order) :-0.7497022E+00  (-0.6974045E-01)
 number of electron     642.0000059 magnetization      32.9331511
 augmentation part      197.4563239 magnetization      23.7074199

 Broyden mixing:
  rms(total) = 0.97097E+00    rms(broyden)= 0.97097E+00
  rms(prec ) = 0.10287E+01
  weight for this iteration     100.00

 eigenvalues of (default mixing * dielectric matrix)
  average eigenvalue GAMMA=   0.6869
  2.2072  0.7557  0.7557  0.8072  0.3023  0.3023  0.2508  0.1143

 Free energy of the ion-electron system (eV)
  ---------------------------------------------------
  alpha Z        PSCENC =      2023.78361127
  Ewald energy   TEWEN  =    123262.25634348
  -Hartree energ DENC   =   -173776.05616539
  -exchange      EXHF   =         0.00000000
  -V(xc)+E(xc)   XCENC  =       230.44256999
  PAW double counting   =     60567.16044373   -58969.47098038
  entropy T*S    EENTRO =         0.02939553
  eigenvalues    EBANDS =      -385.73118570
  atomic energy  EATOM  =     46688.37031544
  Solvation  Ediel_sol  =         0.00000000
  ---------------------------------------------------
  free energy    TOTEN  =      -359.21565203 eV

  energy without entropy =     -359.24504755  energy(sigma->0) =     -359.22545054


--------------------------------------------------------------------------------------------------------




--------------------------------------- Iteration      1(  14)  ---------------------------------------


    POTLOK:  cpu time    0.4036: real time    0.4078
    SETDIJ:  cpu time    0.0332: real time    0.0333
    EDDIAG:  cpu time    6.2754: real time    6.2937
  RMM-DIIS:  cpu time   25.6146: real time   25.6950
    ORTHCH:  cpu time    0.7294: real time    0.7352
       DOS:  cpu time    0.0008: real time    0.0008
    CHARGE:  cpu time    2.7223: real time    2.7303
    MIXING:  cpu time    0.0118: real time    0.0118
    --------------------------------------------
      LOOP:  cpu time   35.7910: real time   35.9080

 eigenvalue-minimisations  :  7070
 total energy-change (2. order) :-0.1928294E+01  (-0.5869793E-01)
 number of electron     642.0000059 magnetization      27.3478723
 augmentation part      197.3728349 magnetization      18.0783030

 Broyden mixing:
  rms(total) = 0.78774E+00    rms(broyden)= 0.78774E+00
  rms(prec ) = 0.83237E+00
  weight for this iteration     100.00

 eigenvalues of (default mixing * dielectric matrix)
  average eigenvalue GAMMA=   0.7419
  2.2544  1.0811  1.0811  0.7342  0.5608  0.2945  0.2945  0.2620  0.1142

 Free energy of the ion-electron system (eV)
  ---------------------------------------------------
  alpha Z        PSCENC =      2023.78361127
  Ewald energy   TEWEN  =    123262.25634348
  -Hartree energ DENC   =   -173786.54967230
  -exchange      EXHF   =         0.00000000
  -V(xc)+E(xc)   XCENC  =       229.25982889
  PAW double counting   =     60675.04296220   -59078.72787843
  entropy T*S    EENTRO =         0.00880404
  eigenvalues    EBANDS =      -374.58826100
  atomic energy  EATOM  =     46688.37031544
  Solvation  Ediel_sol  =         0.00000000
  ---------------------------------------------------
  free energy    TOTEN  =      -361.14394641 eV

  energy without entropy =     -361.15275044  energy(sigma->0) =     -361.14688109


--------------------------------------------------------------------------------------------------------




--------------------------------------- Iteration      1(  15)  ---------------------------------------


    POTLOK:  cpu time    0.3953: real time    0.3996
    SETDIJ:  cpu time    0.0333: real time    0.0334
    EDDIAG:  cpu time    6.2696: real time    6.2876
  RMM-DIIS:  cpu time   25.5965: real time   25.6746
    ORTHCH:  cpu time    0.7368: real time    0.7420
       DOS:  cpu time    0.0008: real time    0.0008
    CHARGE:  cpu time    2.5875: real time    2.5951
    MIXING:  cpu time    0.0118: real time    0.0119
    --------------------------------------------
      LOOP:  cpu time   35.6317: real time   35.7450

 eigenvalue-minimisations  :  7064
 total energy-change (2. order) :-0.4228302E+01  (-0.1678292E+00)
 number of electron     642.0000060 magnetization      23.6854231
 augmentation part      197.2323819 magnetization      15.1111969

 Broyden mixing:
  rms(total) = 0.83953E+00    rms(broyden)= 0.83953E+00
  rms(prec ) = 0.95039E+00
  weight for this iteration     100.00

 eigenvalues of (default mixing * dielectric matrix)
  average eigenvalue GAMMA=   0.7666
  2.1333  2.1333  0.8100  0.6758  0.6758  0.1142  0.2994  0.2994  0.2934  0.2314

 Free energy of the ion-electron system (eV)
  ---------------------------------------------------
  alpha Z        PSCENC =      2023.78361127
  Ewald energy   TEWEN  =    123262.25634348
  -Hartree energ DENC   =   -173806.13122163
  -exchange      EXHF   =         0.00000000
  -V(xc)+E(xc)   XCENC  =       226.78098387
  PAW double counting   =     60681.87209239   -59086.02837150
  entropy T*S    EENTRO =        -0.00791809
  eigenvalues    EBANDS =      -356.26808317
  atomic energy  EATOM  =     46688.37031544
  Solvation  Ediel_sol  =         0.00000000
  ---------------------------------------------------
  free energy    TOTEN  =      -365.37224793 eV

  energy without entropy =     -365.36432983  energy(sigma->0) =     -365.36960856


--------------------------------------------------------------------------------------------------------




--------------------------------------- Iteration      1(  16)  ---------------------------------------


    POTLOK:  cpu time    0.4009: real time    0.4053
    SETDIJ:  cpu time    0.0334: real time    0.0334
    EDDIAG:  cpu time    6.2618: real time    6.2801
  RMM-DIIS:  cpu time   25.7294: real time   25.7952
    ORTHCH:  cpu time    0.7347: real time    0.7394
       DOS:  cpu time    0.0008: real time    0.0008
    CHARGE:  cpu time    2.4642: real time    2.4701
    MIXING:  cpu time    0.0125: real time    0.0126
    --------------------------------------------
      LOOP:  cpu time   35.6377: real time   35.7370

 eigenvalue-minimisations  :  7064
 total energy-change (2. order) :-0.2772153E+01  (-0.1190254E+00)
 number of electron     642.0000059 magnetization      21.0105387
 augmentation part      197.1126276 magnetization      13.0892938

 Broyden mixing:
  rms(total) = 0.46613E+00    rms(broyden)= 0.46613E+00
  rms(prec ) = 0.50801E+00
  weight for this iteration     100.00

 eigenvalues of (default mixing * dielectric matrix)
  average eigenvalue GAMMA=   0.8126
  2.4511  2.4511  0.7463  0.7463  0.6498  0.6498  0.1142  0.2987  0.2987  0.2945
  0.2384

 Free energy of the ion-electron system (eV)
  ---------------------------------------------------
  alpha Z        PSCENC =      2023.78361127
  Ewald energy   TEWEN  =    123262.25634348
  -Hartree energ DENC   =   -173809.28313926
  -exchange      EXHF   =         0.00000000
  -V(xc)+E(xc)   XCENC  =       224.93377985
  PAW double counting   =     60563.62684946   -58966.70734925
  entropy T*S    EENTRO =        -0.01351285
  eigenvalues    EBANDS =      -355.11129918
  atomic energy  EATOM  =     46688.37031544
  Solvation  Ediel_sol  =         0.00000000
  ---------------------------------------------------
  free energy    TOTEN  =      -368.14440104 eV

  energy without entropy =     -368.13088819  energy(sigma->0) =     -368.13989676


--------------------------------------------------------------------------------------------------------




--------------------------------------- Iteration      1(  17)  ---------------------------------------


    POTLOK:  cpu time    0.3985: real time    0.4017
    SETDIJ:  cpu time    0.0330: real time    0.0331
    EDDIAG:  cpu time    6.2534: real time    6.2683
  RMM-DIIS:  cpu time   25.8499: real time   25.9142
    ORTHCH:  cpu time    0.7357: real time    0.7395
       DOS:  cpu time    0.0008: real time    0.0008
    CHARGE:  cpu time    2.4428: real time    2.4487
    MIXING:  cpu time    0.0125: real time    0.0125
    --------------------------------------------
      LOOP:  cpu time   35.7267: real time   35.8189

 eigenvalue-minimisations  :  7062
 total energy-change (2. order) :-0.2151124E+01  (-0.9287580E-01)
 number of electron     642.0000059 magnetization      17.7608107
 augmentation part      197.0659177 magnetization      10.5008599

 Broyden mixing:
  rms(total) = 0.44599E+00    rms(broyden)= 0.44599E+00
  rms(prec ) = 0.49810E+00
  weight for this iteration     100.00

 eigenvalues of (default mixing * dielectric matrix)
  average eigenvalue GAMMA=   0.8639
  3.2969  2.4307  0.7755  0.7755  0.7724  0.7724  0.1142  0.3345  0.3037  0.3037
  0.2614  0.2259

 Free energy of the ion-electron system (eV)
  ---------------------------------------------------
  alpha Z        PSCENC =      2023.78361127
  Ewald energy   TEWEN  =    123262.25634348
  -Hartree energ DENC   =   -173800.17024331
  -exchange      EXHF   =         0.00000000
  -V(xc)+E(xc)   XCENC  =       223.50146491
  PAW double counting   =     60452.38593453   -58854.51873299
  entropy T*S    EENTRO =         0.00823272
  eigenvalues    EBANDS =      -365.91245156
  atomic energy  EATOM  =     46688.37031544
  Solvation  Ediel_sol  =         0.00000000
  ---------------------------------------------------
  free energy    TOTEN  =      -370.29552550 eV

  energy without entropy =     -370.30375822  energy(sigma->0) =     -370.29826974


--------------------------------------------------------------------------------------------------------




--------------------------------------- Iteration      1(  18)  ---------------------------------------


    POTLOK:  cpu time    0.4100: real time    0.4110
    SETDIJ:  cpu time    0.0327: real time    0.0328
    EDDIAG:  cpu time    6.5601: real time    6.5757
  RMM-DIIS:  cpu time   25.7056: real time   25.7709
    ORTHCH:  cpu time    0.7321: real time    0.7369
       DOS:  cpu time    0.0010: real time    0.0010
    CHARGE:  cpu time    2.4196: real time    2.4253
    MIXING:  cpu time    0.0135: real time    0.0136
    --------------------------------------------
      LOOP:  cpu time   35.8747: real time   35.9671

 eigenvalue-minimisations  :  7057
 total energy-change (2. order) :-0.1645465E+01  (-0.8117970E-01)
 number of electron     642.0000059 magnetization      15.8181871
 augmentation part      197.0893761 magnetization       9.5326226

 Broyden mixing:
  rms(total) = 0.37405E+00    rms(broyden)= 0.37405E+00
  rms(prec ) = 0.41323E+00
  weight for this iteration     100.00

 eigenvalues of (default mixing * dielectric matrix)
  average eigenvalue GAMMA=   0.8938
  3.8878  2.3781  1.0575  1.0575  0.6417  0.6417  0.4698  0.1142  0.2954  0.2954
  0.3073  0.2486  0.2238

 Free energy of the ion-electron system (eV)
  ---------------------------------------------------
  alpha Z        PSCENC =      2023.78361127
  Ewald energy   TEWEN  =    123262.25634348
  -Hartree energ DENC   =   -173789.54096853
  -exchange      EXHF   =         0.00000000
  -V(xc)+E(xc)   XCENC  =       222.20769429
  PAW double counting   =     60398.39836502   -58800.33389442
  entropy T*S    EENTRO =        -0.01286331
  eigenvalues    EBANDS =      -377.06959384
  atomic energy  EATOM  =     46688.37031544
  Solvation  Ediel_sol  =         0.00000000
  ---------------------------------------------------
  free energy    TOTEN  =      -371.94099060 eV

  energy without entropy =     -371.92812729  energy(sigma->0) =     -371.93670283


--------------------------------------------------------------------------------------------------------




--------------------------------------- Iteration      1(  19)  ---------------------------------------


    POTLOK:  cpu time    0.3990: real time    0.4000
    SETDIJ:  cpu time    0.0329: real time    0.0330
    EDDIAG:  cpu time    6.2844: real time    6.2993
  RMM-DIIS:  cpu time   25.9016: real time   25.9677
    ORTHCH:  cpu time    0.7265: real time    0.7311
       DOS:  cpu time    0.0008: real time    0.0008
    CHARGE:  cpu time    2.4432: real time    2.4490
    MIXING:  cpu time    0.0147: real time    0.0147
    --------------------------------------------
      LOOP:  cpu time   35.8030: real time   35.8956

 eigenvalue-minimisations  :  7064
 total energy-change (2. order) :-0.5758420E+00  (-0.3016775E-01)
 number of electron     642.0000059 magnetization      13.2134809
 augmentation part      197.1208238 magnetization       7.3842695

 Broyden mixing:
  rms(total) = 0.30558E+00    rms(broyden)= 0.30558E+00
  rms(prec ) = 0.33576E+00
  weight for this iteration     100.00

 eigenvalues of (default mixing * dielectric matrix)
  average eigenvalue GAMMA=   0.9436
  4.6819  2.2829  1.2669  1.2669  0.6384  0.6384  0.6001  0.1142  0.3924  0.2971
  0.2971  0.2849  0.2362  0.2125

 Free energy of the ion-electron system (eV)
  ---------------------------------------------------
  alpha Z        PSCENC =      2023.78361127
  Ewald energy   TEWEN  =    123262.25634348
  -Hartree energ DENC   =   -173777.45696657
  -exchange      EXHF   =         0.00000000
  -V(xc)+E(xc)   XCENC  =       221.62847878
  PAW double counting   =     60395.71764680   -58797.80024820
  entropy T*S    EENTRO =        -0.01348250
  eigenvalues    EBANDS =      -389.00253105
  atomic energy  EATOM  =     46688.37031544
  Solvation  Ediel_sol  =         0.00000000
  ---------------------------------------------------
  free energy    TOTEN  =      -372.51683256 eV

  energy without entropy =     -372.50335006  energy(sigma->0) =     -372.51233839


--------------------------------------------------------------------------------------------------------




--------------------------------------- Iteration      1(  20)  ---------------------------------------


    POTLOK:  cpu time    0.4137: real time    0.4147
    SETDIJ:  cpu time    0.0332: real time    0.0333
    EDDIAG:  cpu time    6.2598: real time    6.2748
  RMM-DIIS:  cpu time   25.7950: real time   25.8598
    ORTHCH:  cpu time    0.7342: real time    0.7377
       DOS:  cpu time    0.0008: real time    0.0008
    CHARGE:  cpu time    2.4950: real time    2.5009
    MIXING:  cpu time    0.0121: real time    0.0121
    --------------------------------------------
      LOOP:  cpu time   35.7439: real time   35.8341

 eigenvalue-minimisations  :  7060
 total energy-change (2. order) :-0.3429353E+00  (-0.2250705E-01)
 number of electron     642.0000059 magnetization      10.8921712
 augmentation part      197.1781484 magnetization       5.8055384

 Broyden mixing:
  rms(total) = 0.24358E+00    rms(broyden)= 0.24358E+00
  rms(prec ) = 0.26347E+00
  weight for this iteration     100.00

 eigenvalues of (default mixing * dielectric matrix)
  average eigenvalue GAMMA=   1.0317
  5.9811  2.1895  1.4657  1.4657  0.7019  0.7019  0.6314  0.5786  0.1142  0.2997
  0.2997  0.3244  0.2734  0.2376  0.2112

 Free energy of the ion-electron system (eV)
  ---------------------------------------------------
  alpha Z        PSCENC =      2023.78361127
  Ewald energy   TEWEN  =    123262.25634348
  -Hartree energ DENC   =   -173761.34658875
  -exchange      EXHF   =         0.00000000
  -V(xc)+E(xc)   XCENC  =       221.12208124
  PAW double counting   =     60428.12391593   -58830.68233994
  entropy T*S    EENTRO =        -0.02511196
  eigenvalues    EBANDS =      -404.46199453
  atomic energy  EATOM  =     46688.37031544
  Solvation  Ediel_sol  =         0.00000000
  ---------------------------------------------------
  free energy    TOTEN  =      -372.85976783 eV

  energy without entropy =     -372.83465587  energy(sigma->0) =     -372.85139718


--------------------------------------------------------------------------------------------------------




--------------------------------------- Iteration      1(  21)  ---------------------------------------


    POTLOK:  cpu time    0.3986: real time    0.4024
[...]
   -.129E+02 -.466E+01 0.230E+04   0.130E+02 0.475E+01 -.230E+04   -.387E-01 -.368E-01 0.282E-01   0.134E-01 0.608E-02 0.101E-01
   -.127E+00 0.230E+00 0.673E+03   0.143E+00 -.235E+00 -.672E+03   -.367E-01 0.231E-01 -.124E+01   0.121E-01 -.128E-01 0.151E-01
   0.410E+00 -.117E+02 -.796E+03   -.341E+00 0.124E+02 0.797E+03   -.684E-01 -.700E+00 -.172E-01   0.170E-02 0.553E-01 -.283E-01
   0.322E+02 0.139E+02 -.226E+04   -.318E+02 -.138E+02 0.226E+04   -.404E+00 -.114E+00 0.148E+00   -.711E-02 -.541E-02 -.148E-01
   0.479E+00 -.180E+02 0.228E+04   -.461E+00 0.182E+02 -.228E+04   -.184E-01 0.155E-02 0.110E+00   -.620E-02 0.610E-02 0.263E-01
   -.192E+02 0.664E+01 0.771E+03   0.194E+02 -.665E+01 -.771E+03   -.253E+00 0.190E-01 -.392E+00   0.402E-01 -.185E-01 -.670E-02
   0.238E+01 -.595E+00 -.745E+03   -.254E+01 0.780E+00 0.745E+03   0.172E+00 -.226E+00 0.308E+00   0.554E-02 0.445E-01 -.197E-01
   0.269E+02 0.790E+02 -.239E+04   -.269E+02 -.796E+02 0.239E+04   0.537E-01 0.616E+00 -.292E+00   0.417E-02 0.137E-01 -.193E-01
   0.146E+00 -.144E+02 0.231E+04   -.238E+00 0.144E+02 -.231E+04   0.650E-01 0.698E-01 -.202E+00   -.954E-03 0.106E-01 0.113E-01
   -.585E+01 -.172E+02 0.757E+03   0.598E+01 0.174E+02 -.756E+03   -.172E+00 -.211E+00 -.486E+00   0.198E-01 0.290E-01 0.461E-02
   0.139E+02 -.635E+01 -.895E+03   -.142E+02 0.647E+01 0.895E+03   0.258E+00 -.139E+00 0.931E-01   -.469E-02 0.126E-01 -.332E-01
   -.650E+01 0.314E+02 -.225E+04   0.622E+01 -.312E+02 0.225E+04   0.277E+00 -.248E+00 -.651E-01   0.154E-01 0.312E-01 -.722E-02
   -.152E+01 -.151E+00 0.231E+04   0.149E+01 0.147E+00 -.231E+04   0.689E-02 -.123E-01 -.235E+00   -.371E-02 -.551E-04 0.118E-01
   -.502E+01 -.242E+01 0.789E+03   0.515E+01 0.249E+01 -.788E+03   -.146E+00 -.791E-01 -.425E+00   0.660E-02 -.744E-03 0.603E-02
   0.145E+01 -.162E+01 -.741E+03   -.169E+01 0.165E+01 0.741E+03   0.278E+00 -.227E-01 0.323E+00   -.350E-01 -.193E-01 -.125E-01
   -.228E+01 0.379E+01 -.227E+04   0.221E+01 -.383E+01 0.227E+04   0.674E-01 0.234E-01 0.124E+00   0.177E-01 0.215E-01 -.115E-01
   0.128E+02 -.689E+01 0.230E+04   -.129E+02 0.699E+01 -.230E+04   0.503E-01 -.273E-01 0.544E-01   -.115E-01 -.340E-02 0.229E-01
   -.660E-01 0.695E+01 0.802E+03   0.536E-01 -.691E+01 -.802E+03   0.238E-01 -.129E-01 -.355E+00   -.111E-01 -.276E-01 -.309E-02
   -.357E+00 0.692E-01 -.747E+03   0.329E+00 -.678E-01 0.747E+03   0.274E-01 -.561E-02 0.479E+00   0.146E-02 0.266E-02 -.353E-02
   -.298E+02 0.170E+02 -.222E+04   0.304E+02 -.173E+02 0.222E+04   -.594E+00 0.335E+00 0.516E+00   0.485E-03 0.149E-02 -.306E-01
   -.481E+00 0.202E+01 0.231E+04   0.472E+00 -.199E+01 -.231E+04   0.126E-01 -.591E-02 -.245E+00   0.432E-02 -.409E-02 0.634E-02
   0.196E+02 0.278E+01 0.765E+03   -.197E+02 -.274E+01 -.765E+03   0.214E+00 -.231E-01 -.358E+00   -.388E-01 -.202E-01 0.232E-01
   -.264E+01 -.152E+01 -.746E+03   0.276E+01 0.163E+01 0.746E+03   -.110E+00 -.126E+00 0.399E+00   -.829E-02 0.143E-01 -.119E-01
   -.464E+01 -.932E+00 -.227E+04   0.464E+01 0.991E+00 0.227E+04   0.170E-01 -.437E-01 0.124E+00   -.409E-02 -.214E-01 -.151E-01
   0.966E+00 -.324E+00 0.231E+04   -.938E+00 0.299E+00 -.231E+04   -.151E-01 0.112E-01 -.243E+00   0.975E-03 0.733E-02 0.472E-02
   0.406E+01 -.191E+01 0.793E+03   -.420E+01 0.199E+01 -.793E+03   0.167E+00 -.884E-01 -.349E+00   -.195E-01 0.347E-02 0.109E-01
   -.241E+01 -.132E+01 -.742E+03   0.259E+01 0.126E+01 0.741E+03   -.180E+00 0.691E-01 0.315E+00   0.782E-02 -.321E-01 -.683E-02
   0.693E+00 -.859E+00 -.227E+04   -.527E+00 0.771E+00 0.227E+04   -.141E+00 0.771E-01 0.106E+00   -.144E-01 0.952E-02 -.138E-01
   -.110E+02 0.808E+01 0.231E+04   0.110E+02 -.803E+01 -.231E+04   0.311E-01 -.804E-01 -.286E+00   0.184E-01 -.729E-02 -.311E-02
   -.152E+02 0.128E+02 0.771E+03   0.153E+02 -.130E+02 -.771E+03   -.145E+00 0.213E+00 -.400E+00   0.295E-01 -.199E-01 -.593E-02
   0.827E-01 0.672E-01 -.706E+03   -.573E-01 0.276E-01 0.706E+03   -.266E-01 -.121E+00 0.436E+00   0.137E-01 0.281E-01 -.191E-01
   0.258E+02 -.137E+02 -.225E+04   -.255E+02 0.135E+02 0.225E+04   -.309E+00 0.141E+00 0.107E+00   0.896E-02 -.294E-01 -.256E-02
   0.165E+01 -.124E+01 0.232E+04   -.161E+01 0.121E+01 -.232E+04   -.401E-01 0.234E-01 -.367E+00   0.844E-02 0.736E-02 -.776E-02
   -.597E+01 -.348E+01 0.799E+03   0.593E+01 0.347E+01 -.799E+03   0.326E-01 -.116E-01 -.372E+00   0.125E-01 0.248E-01 -.120E-01
   -.236E+01 0.147E+01 -.751E+03   0.280E+01 -.171E+01 0.751E+03   -.444E+00 0.251E+00 0.285E+00   0.423E-01 -.290E-01 -.173E-01
   -.263E+01 0.214E+01 -.222E+04   0.253E+01 -.206E+01 0.222E+04   0.105E+00 -.819E-01 0.192E+00   -.446E-02 0.207E-02 0.282E-02
   -.127E+02 0.484E+01 0.231E+04   0.126E+02 -.487E+01 -.231E+04   0.853E-01 0.172E-01 -.277E+00   0.864E-02 -.453E-02 0.136E-02
   0.115E+01 -.124E+02 0.803E+03   -.119E+01 0.126E+02 -.803E+03   0.315E-01 -.210E+00 -.200E+00   0.313E-02 0.414E-01 -.150E-01
   -.854E+01 0.982E+01 -.888E+03   0.873E+01 -.101E+02 0.888E+03   -.214E+00 0.377E+00 0.386E-01   0.270E-01 -.284E-01 -.302E-01
   0.252E+02 -.149E+02 -.225E+04   -.249E+02 0.147E+02 0.225E+04   -.282E+00 0.211E+00 0.102E+00   0.228E-01 0.263E-02 -.125E-03
   -.181E+02 0.102E+02 0.228E+04   0.183E+02 -.103E+02 -.228E+04   0.888E-02 -.781E-02 0.367E-01   0.330E-02 -.948E-02 0.166E-01
   -.852E+01 0.447E+01 0.811E+03   0.865E+01 -.455E+01 -.811E+03   -.147E+00 0.766E-01 -.175E+00   0.227E-01 -.327E-02 -.256E-01
   0.158E+00 0.269E+01 -.743E+03   -.213E-01 -.280E+01 0.743E+03   -.149E+00 0.116E+00 0.318E+00   0.361E-01 0.772E-02 -.171E-01
   0.436E+02 -.245E+02 -.231E+04   -.445E+02 0.251E+02 0.231E+04   0.908E+00 -.546E+00 0.214E+00   0.134E-01 -.121E-01 -.173E-01
   0.162E+02 0.828E+01 0.228E+04   -.163E+02 -.835E+01 -.228E+04   -.136E-01 0.189E-01 0.111E+00   -.174E-01 -.115E-01 0.242E-01
   0.114E+02 0.487E+01 0.803E+03   -.115E+02 -.493E+01 -.803E+03   0.205E+00 0.689E-01 -.212E+00   -.304E-01 -.124E-01 -.281E-02
   -.205E+00 0.264E+01 -.748E+03   0.158E+00 -.278E+01 0.748E+03   0.536E-01 0.145E+00 0.404E+00   -.119E-01 -.626E-02 -.105E-01
   -.519E+02 -.572E+02 -.239E+04   0.527E+02 0.580E+02 0.239E+04   -.711E+00 -.737E+00 0.273E-01   -.197E-02 -.127E-01 -.191E-01
   -.231E+01 0.134E+02 0.230E+04   0.231E+01 -.136E+02 -.230E+04   0.152E-01 0.496E-01 0.312E-01   -.884E-02 -.900E-02 0.126E-01
   0.492E+01 -.280E+01 0.804E+03   -.487E+01 0.276E+01 -.804E+03   -.490E-01 0.309E-01 -.248E+00   -.121E-01 0.133E-01 0.472E-02
   0.919E+01 0.493E+01 -.795E+03   -.973E+01 -.531E+01 0.795E+03   0.563E+00 0.402E+00 0.170E-01   -.465E-01 -.305E-01 -.215E-01
   0.443E+01 -.357E+02 -.227E+04   -.434E+01 0.353E+02 0.227E+04   -.867E-01 0.411E+00 0.138E+00   0.103E-01 0.591E-02 -.172E-01
   0.133E+02 0.699E+01 0.231E+04   -.133E+02 -.706E+01 -.231E+04   -.692E-01 0.808E-02 -.179E+00   -.821E-02 0.241E-02 0.305E-02
   -.246E+00 0.580E+01 0.788E+03   0.247E+00 -.595E+01 -.788E+03   0.423E-02 0.167E+00 -.420E+00   -.336E-02 -.315E-02 0.902E-02
   -.207E+00 0.162E-01 -.703E+03   0.155E+00 -.742E-01 0.703E+03   0.795E-01 0.767E-01 0.462E+00   -.223E-01 -.312E-01 -.111E-01
   -.273E+02 -.259E+02 -.225E+04   0.268E+02 0.253E+02 0.225E+04   0.467E+00 0.630E+00 -.101E+00   -.300E-01 0.297E-02 -.150E-01
   0.128E+02 0.675E+01 0.231E+04   -.129E+02 -.666E+01 -.231E+04   -.259E-01 -.879E-01 -.220E+00   -.424E-02 -.979E-02 0.426E-02
   0.122E+02 0.133E+02 0.755E+03   -.123E+02 -.135E+02 -.755E+03   0.990E-01 0.257E+00 -.512E+00   -.207E-01 -.282E-01 0.197E-01
   0.120E+00 -.408E+00 -.707E+03   -.248E+00 0.486E+00 0.706E+03   0.153E+00 -.839E-01 0.315E+00   -.376E-01 0.142E-01 -.145E-01
   -.320E+02 -.948E+01 -.224E+04   0.317E+02 0.961E+01 0.224E+04   0.350E+00 -.106E+00 -.490E-01   -.201E-01 -.303E-01 -.165E-01
   0.129E+02 -.912E+01 -.285E+03   -.139E+02 0.982E+01 0.286E+03   0.515E+00 -.453E+00 -.144E+01   0.352E-03 0.991E-04 -.136E-03
   -.193E+02 0.913E+01 -.284E+03   0.204E+02 -.963E+01 0.285E+03   -.875E+00 0.329E+00 -.150E+01   0.570E-03 -.142E-03 -.463E-03
 -----------------------------------------------------------------------------------------------
   0.104E+01 0.197E+00 0.644E+01   0.547E-12 -.471E-12 0.290E-11   -.103E+01 -.190E+00 -.614E+01   -.888E-03 -.740E-03 -.312E+00
 
 
 POSITION                                       TOTAL-FORCE (eV/Angst)
 -----------------------------------------------------------------------------------
     10.55998      0.00001      1.11585         0.025505      0.083596     -0.082308
      2.63322      1.53833      3.59056        -0.003992      0.005506     -0.000945
      0.02650      3.05001      6.15864         0.019784      0.007352      0.062771
      0.01498      0.02417      8.33757         0.027352      0.025260      0.012399
      9.23998      2.28632      1.11585         0.129072      0.066615      0.168722
      1.32207      3.80901      3.76557        -0.003270      0.002415      0.062885
      1.32841      0.79733      6.00466         0.000210      0.012459     -0.003228
     -1.30797      2.28567      8.41257         0.025599     -0.000276      0.008315
      1.31998      2.28632      1.11585        -0.005152      0.135162      0.177241
     -1.29982      3.80660      3.57543         0.003772      0.002755      0.013265
      3.95408      0.77206      5.93467        -0.005609      0.006927     -0.003532
      1.32491      2.25576      9.01485         0.025652     -0.029373      0.394716
      2.63998      0.00001      1.11585        -0.032592      0.076121     -0.113734
      0.01415      1.53817      3.60323         0.001107      0.005774      0.013765
      2.62746      3.05686      6.14417        -0.003278      0.000141      0.021390
      2.63385      0.00248      8.34770        -0.001734      0.002345     -0.039021
      5.27998      0.00001      1.11585        -0.027062     -0.017973     -0.007406
      7.92884      1.52360      3.54600         0.002496      0.000314     -0.002865
      5.26879      3.04857      5.92795        -0.008326      0.000048     -0.000567
      5.28130      0.00030      8.35635         0.003505     -0.000804     -0.007655
      3.95998      2.28632      1.11585        -0.133776      0.070746      0.124622
      6.60040      3.80794      3.51579        -0.003399      0.005459     -0.001535
      6.59972      0.76253      5.93239         0.003156     -0.002361     -0.003368
      3.96116      2.28784      8.38602         0.005043     -0.001233      0.016595
      6.59998      2.28632      1.11585         0.006053      0.021209     -0.017679
      3.94390      3.80899      3.58685        -0.005510      0.000136      0.001372
      9.25137      0.76867      5.93706         0.016016      0.005276      0.006741
      6.60167      2.28747      8.35269         0.005634      0.000356     -0.010345
      7.91998      0.00001      1.11585         0.020187     -0.010645     -0.011556
      5.27523      1.52615      3.53666        -0.003223      0.001276      0.000905
      7.93359      3.03997      5.92910         0.007108     -0.006903      0.004708
      2.64718      9.14408      8.34482         0.017501     -0.006193     -0.030614
      7.91998      4.57263      1.11585         0.046905     -0.032267     -0.140871
      0.01368      6.08082      3.57628        -0.001018     -0.003683      0.015171
     -2.63029      7.62755      5.85897         0.006837     -0.003049     -0.019271
     -2.63154      4.57105      8.30749         0.025053     -0.005844     -0.008393
      6.59998      6.85894      1.11585         0.003738     -0.001695     -0.195066
     -1.31775      8.38391      3.52094        -0.005633      0.000245     -0.005930
     -1.28456      5.31561      5.94510         0.022819     -0.013051      0.022801
      6.59790      6.86303      8.20775         0.006987      0.000531     -0.035785
     -1.32002      6.85894      1.11585         0.052080     -0.019784     -0.131632
     -3.95847      8.39573      3.50479        -0.002174      0.002254     -0.014203
      1.33196      5.31106      6.15923         0.003508     -0.020339      0.063869
     -1.31247      6.85478      8.31411         0.019517     -0.013657     -0.015342
     -0.00002      4.57263      1.11585         0.157941     -0.094704      0.163013
     -2.62967      6.09128      3.49031         0.004842     -0.001941     -0.007367
      0.01473      7.61457      5.93208         0.011406     -0.002396      0.004091
     -0.01346      4.58301      8.64212         0.006249      0.000976      0.204488
      2.63998      4.57263      1.11585        -0.121848     -0.062199      0.179755
      5.26914      6.08941      3.50423        -0.002603      0.001211     -0.013540
      2.64099      7.61027      5.93975         0.001872     -0.012456      0.005362
      2.67362      4.59293      8.97856         0.045446      0.002887      0.362317
      1.31998      6.85894      1.11585         0.007306     -0.145502      0.175735
      3.95970      8.38303      3.51346         0.004072     -0.002223      0.004515
      3.93328      5.31215      6.00436        -0.009540     -0.006221     -0.005617
      1.32905      6.85277      8.41231         0.014576     -0.015434      0.008822
      3.95998      6.85894      1.11585        -0.064817     -0.063740     -0.080358
      1.32438      8.37532      3.54668         0.000750     -0.001356     -0.001492
      6.60040      5.32512      5.85358         0.006046     -0.004963     -0.015693
      3.95098      6.84064      8.34597        -0.004912     -0.029112      0.009815
      5.27998      4.57263      1.11585        -0.082891     -0.005353     -0.128203
      2.63445      6.07752      3.60654        -0.002688     -0.001464      0.012506
      5.27120      7.62619      5.85867        -0.001558      0.002587      0.003549
      5.27701      4.57992      8.33684         0.001353      0.008430     -0.036079
      1.30543      3.79613     10.03290        -0.509130      0.253045     -0.613839
      2.50574      3.10897     10.08536         0.251678     -0.171223     -0.521179
 -----------------------------------------------------------------------------------
    total drift:                                0.012283      0.006642     -0.008360


--------------------------------------------------------------------------------------------------------



  FREE ENERGIE OF THE ION-ELECTRON SYSTEM (eV)
  ---------------------------------------------------
  free  energy   TOTEN  =      -412.15782090 eV

  energy  without entropy=     -412.10521363  energy(sigma->0) =     -412.14028514
 
 d Force = 0.7403368E-03[ 0.804E-03, 0.677E-03]  d Energy = 0.7251198E-03 0.152E-04
 d Force =-0.1307518E+01[-0.131E+01,-0.131E+01]  d Ewald  =-0.1307518E+01-0.245E-06


--------------------------------------------------------------------------------------------------------


    POTLOK:  cpu time    0.4301: real time    0.4360


--------------------------------------------------------------------------------------------------------


 NEB: the previous image is higher in energy: F
 NEB: the next image is higher in energy    : T
 NEB: only next energy greater

 NEB: Tangent
 ----------------------------------------------
      0.00000      0.00000      0.00000
      0.00362     -0.00242     -0.00096
     -0.01484     -0.00597     -0.05548
     -0.02248     -0.02455     -0.01101
      0.00000      0.00000      0.00000
      0.00368     -0.00171     -0.05076
     -0.00038     -0.00884      0.00067
     -0.02101     -0.00191     -0.01250
      0.00000      0.00000      0.00000
     -0.00134     -0.00158     -0.01453
      0.00405     -0.00517     -0.00039
     -0.02307      0.02016     -0.33068
      0.00000      0.00000      0.00000
     -0.00017     -0.00262     -0.01186
      0.00086     -0.00104     -0.01649
      0.00201     -0.00463      0.02746
      0.00000      0.00000      0.00000
     -0.00208      0.00052      0.00149
      0.00643     -0.00012      0.00138
     -0.00283     -0.00087      0.00697
      0.00000      0.00000      0.00000
      0.00132     -0.00365      0.00188
     -0.00272      0.00110      0.00425
     -0.00357     -0.00272     -0.01264
      0.00000      0.00000      0.00000
      0.00427     -0.00088      0.00037
     -0.01181     -0.00512     -0.00619
     -0.00428     -0.00287      0.01134
      0.00000      0.00000      0.00000
      0.00085      0.00033     -0.00051
     -0.00584      0.00605     -0.00559
     -0.01516      0.00332      0.02638
      0.00000      0.00000      0.00000
      0.00116      0.00334     -0.01390
     -0.00598      0.00148      0.01304
     -0.01969      0.00344      0.00569
      0.00000      0.00000      0.00000
      0.00442      0.00165      0.00174
     -0.01881      0.01046     -0.02191
     -0.00542     -0.00295      0.02671
      0.00000      0.00000      0.00000
      0.00221     -0.00021      0.01072
     -0.00285      0.01648     -0.05200
     -0.01698      0.00944      0.00862
      0.00000      0.00000      0.00000
     -0.00305      0.00254      0.00384
     -0.00874      0.00073     -0.00405
     -0.00548     -0.00316     -0.17062
      0.00000      0.00000      0.00000
      0.00143     -0.00124      0.01102
     -0.00244      0.00909     -0.00274
     -0.04055     -0.00619     -0.28460
      0.00000      0.00000      0.00000
     -0.00351      0.00183     -0.00451
      0.00768      0.00373      0.00588
     -0.01338      0.01138     -0.00462
      0.00000      0.00000      0.00000
     -0.00099      0.00128      0.00194
     -0.00525      0.00326      0.01286
      0.00346      0.02093     -0.00689
      0.00000      0.00000      0.00000
      0.00254      0.00138     -0.00879
      0.00138     -0.00169     -0.00421
     -0.00036     -0.00704      0.03345
      0.43670     -0.18081      0.51315
     -0.23207      0.12469      0.44919

 NEB: forces: par spring, perp REAL, dneb     0.013955    0.063240    0.000000
 NEB: distance to prev, next image, angle between     0.747710    0.750501  128.689674
 NEB: projections on to tangent (spring, REAL)     0.013955   -1.192630

 stress matrix after NEB project (eV)
     75.17485     -0.23854     -0.34187
     -0.23854     74.99515      0.10380
     -0.34187      0.10380     -4.31561
  FORCES: max atom, RMS     0.040837    0.007972
  FORCE total and by dimension    0.064762    0.034882
  Stress total and by dimension  106.275701   75.174852
 Quasi-Newton relaxation of ions (Broydens 2nd method)
  g(Force)  = 0.773E-03   g(Stress)= 0.000E+00

 retain information from N=  1 steps
 eigenvalues of (default step * inverse Hessian matrix)
  average eigenvalue of G=   6.4376
 eigenvalue spectrum of G is  6.4376


--------------------------------------------------------------------------------------------------------


  
 reached required accuracy - stopping structural energy minimisation
     LOOP+:  cpu time  291.7053: real time  292.7117
    4ORBIT:  cpu time    0.0000: real time    0.0000

 total amount of memory used by VASP MPI-rank0   328564. kBytes
=======================================================================

   base      :      30000. kBytes
   nonlr-proj:      89586. kBytes
   fftplans  :      13334. kBytes
   grid      :     112154. kBytes
   one-center:       2052. kBytes
   wavefun   :      81438. kBytes
 
  
  
 General timing and accounting informations for this job:
 ========================================================
  
                  Total CPU time used (sec):     4198.073
                            User time (sec):     4172.837
                          System time (sec):       25.236
                         Elapsed time (sec):     4232.121
  
                   Maximum memory used (kb):      622740.
                   Average memory used (kb):           0.
  
                          Minor page faults:      1141464
                          Major page faults:            0
                 Voluntary context switches:        20134
