 vasp.5.4.4.18Apr17-6-g9f103f2a35 (build Nov 30 2020 22:55:02) complex          
  
 executed on             LinuxIFC date 2023.09.08  21:34:53
 running on   40 total cores
 distrk:  each k-point on   40 cores,    1 groups
 distr:  one band on NCORES_PER_BAND=   4 cores,   10 groups


--------------------------------------------------------------------------------------------------------


 INCAR:
 POTCAR:    PAW_PBE Pt 04Feb2005                  
 POTCAR:    PAW_PBE Pt 04Feb2005                  
   VRHFIN =Pt: s1d9                                                             
   LEXCH  = PE                                                                  
   EATOM  =   729.1176 eV,   53.5886 Ry                                         
                                                                                
   TITEL  = PAW_PBE Pt 04Feb2005                                                
   LULTRA =        F    use ultrasoft PP ?                                      
   IUNSCR =        1    unscreen: 0-lin 1-nonlin 2-no                           
   RPACOR =    2.330    partial core radius                                     
   POMASS =  195.080; ZVAL   =   10.000    mass and valenz                      
   RCORE  =    2.600    outmost cutoff radius                                   
   RWIGS  =    2.750; RWIGS  =    1.455    wigner-seitz radius (au A)           
   ENMAX  =  230.283; ENMIN  =  172.712 eV                                      
   ICORE  =        3    local potential                                         
   LCOR   =        T    correct aug charges                                     
   LPAW   =        T    paw PP                                                  
   EAUG   =  358.966                                                            
   DEXC   =    0.000                                                            
   RMAX   =    2.658    core radius for proj-oper                               
   RAUG   =    1.300    factor for augmentation sphere                          
   RDEP   =    2.761    radius for radial grids                                 
   RDEPT  =    2.203    core radius for aug-charge                              
                                                                                
   Atomic configuration                                                         
   16 entries                                                                   
     n  l   j            E        occ.                                          
     1  0  0.50    -78401.1885   2.0000                                         
     2  0  0.50    -13770.7750   2.0000                                         
     2  1  1.50    -11931.0468   6.0000                                         
     3  0  0.50     -3234.7234   2.0000                                         
     3  1  1.50     -2699.2216   6.0000                                         
     3  2  2.50     -2119.5714  10.0000                                         
     4  0  0.50      -695.1528   2.0000                                         
     4  1  1.50      -519.6034   6.0000                                         
     4  2  2.50      -306.6786  10.0000                                         
     4  3  3.50       -70.1041  14.0000                                         
     5  0  0.50      -101.7747   2.0000                                         
     5  1  1.50       -55.9873   6.0000                                         
     5  2  2.50        -6.1423   9.0000                                         
     6  0  0.50        -5.6573   1.0000                                         
     6  1  1.50        -6.8029   0.0000                                         
     5  3  2.50        -1.3606   0.0000                                         
   Description                                                                  
     l       E           TYP  RCUT    TYP  RCUT                                 
     2     -6.1423404     23  2.500                                             
     2     -7.5029230     23  2.500                                             
     0     -5.6573207     23  2.500                                             
     0      0.7416693     23  2.500                                             
     1     -2.7211652     23  2.600                                             
     1     20.4087390     23  2.600                                             
     3     -1.3605826     23  2.500                                             
  local pseudopotential read in
  partial core-charges read in
  partial kinetic energy density read in
  atomic valenz-charges read in
  non local Contribution for L=           2  read in
    real space projection operators read in
  non local Contribution for L=           2  read in
    real space projection operators read in
  non local Contribution for L=           0  read in
    real space projection operators read in
  non local Contribution for L=           0  read in
    real space projection operators read in
  non local Contribution for L=           1  read in
    real space projection operators read in
  non local Contribution for L=           1  read in
    real space projection operators read in
    PAW grid and wavefunctions read in
 
   number of l-projection  operators is LMAX  =           6
   number of lm-projection operators is LMMAX =          18
 
 Optimization of the real space projectors (new method)

 maximal supplied QI-value         = 14.36
 optimisation between [QCUT,QGAM] = [ 11.92, 23.98] = [ 39.79,161.09] Ry 
 Optimized for a Real-space Cutoff    1.49 Angstroem

   l    n(q)    QCUT    max X(q) W(low)/X(q) W(high)/X(q)  e(spline) 
   2     10    11.920    66.195    0.79E-04    0.18E-03    0.24E-06
   2     10    11.920    64.643    0.81E-04    0.19E-03    0.24E-06
   0     11    11.920    95.520    0.28E-04    0.54E-04    0.18E-06
   0     11    11.920    63.403    0.27E-04    0.52E-04    0.17E-06
   1     10    11.920    19.961    0.18E-04    0.11E-03    0.23E-06
   1     10    11.920    13.289    0.25E-04    0.87E-04    0.19E-06
  PAW_PBE Pt 04Feb2005                  :
 energy of atom  1       EATOM= -729.1176
 kinetic energy error for atom=    0.0021 (will be added to EATOM!!)
 
 
 POSCAR: Pt111                                   
  positions in direct lattice
  velocities in cartesian coordinates
 exchange correlation table for  LEXCH =        8
   RHO(1)=    0.500       N(1)  =     2000
   RHO(2)=  100.500       N(2)  =     4000
 


--------------------------------------------------------------------------------------------------------


 ion  position               nearest neighbor table
   1  0.785  0.869  0.331-   3 2.71   2 2.71  73 2.72  72 2.72  56 2.72  43 2.72  71 2.78  20 2.78
                            55 2.78  27 2.82  35 2.82  34 2.83
   2  0.035  0.869  0.331-  57 2.71   3 2.71  23 2.71   1 2.71  47 2.72  72 2.72  55 2.78  65 2.78
                            68 2.78  29 2.82  27 2.82  39 2.83
   3  0.034  0.619  0.331-   2 2.71   1 2.71  56 2.72   9 2.72  15 2.72  57 2.72  12 2.78  55 2.78
                            76 2.79  39 2.82  35 2.83  28 2.83
   4  0.787  0.867  0.015-  58 2.71   5 2.71  75 2.71   6 2.71  74 2.72  44 2.72  21 2.82  78 2.82
                            19 2.83
   5  0.037  0.868  0.015-  48 2.71  74 2.71   4 2.71  24 2.72   6 2.72  59 2.72  70 2.82  49 2.82
                            78 2.83
   6  0.037  0.618  0.015-  18 2.71  59 2.71   4 2.71  58 2.72   5 2.72  10 2.72  46 2.82  70 2.82
                            21 2.83
   7  0.619  0.202  0.122-  78 2.71  19 2.71  11 2.71  61 2.71  53 2.72  22 2.72  71 2.78  79 2.78
                            80 2.79  42 2.82  44 2.82  74 2.83
   8  0.369  0.952  0.122-  54 2.71  49 2.71  60 2.72  25 2.72  19 2.72  53 2.72  66 2.78  69 2.78
                            26 2.79  16 2.82  24 2.82  75 2.83
   9  0.034  0.369  0.331-  47 2.71  13 2.71  15 2.71   3 2.72  56 2.72  63 2.72  12 2.78  77 2.78
                            62 2.78  33 2.82  30 2.82  28 2.83
  10  0.037  0.367  0.016-  64 2.71  48 2.71  16 2.72  18 2.72  58 2.72   6 2.72  54 2.82  46 2.83
                            45 2.83
  11  0.869  0.202  0.122-  22 2.71   7 2.71  54 2.72  78 2.72  49 2.72  45 2.72  65 2.78  77 2.78
                            79 2.79  64 2.82  74 2.83  48 2.83
  12  0.952  0.536  0.227-  62 2.71  76 2.71  55 2.71  20 2.72  67 2.72  77 2.72  45 2.78  21 2.78
                             9 2.78   3 2.78  46 2.78  56 2.78
  13  0.284  0.119  0.331-  15 2.71   9 2.71  47 2.71  23 2.72  43 2.72  73 2.72  62 2.78  26 2.78
                            69 2.79  36 2.82  31 2.82  33 2.83
  14  0.534  0.620  0.331-  56 2.71  23 2.71  63 2.71  73 2.71  57 2.72  41 2.72  66 2.78  51 2.78
                            67 2.79  52 2.82  38 2.82  37 2.83
  15  0.284  0.369  0.331-  41 2.71  13 2.71  43 2.71   9 2.71   3 2.72  57 2.72  62 2.78  76 2.78
                            80 2.79  36 2.82  50 2.82  28 2.83
  16  0.287  0.118  0.016-  44 2.71  75 2.71  10 2.72  18 2.72  48 2.72  24 2.72   8 2.82  53 2.82
                            54 2.83
  17  0.537  0.618  0.015-  24 2.71  59 2.71  64 2.72  42 2.72  58 2.72  75 2.72  22 2.82  25 2.82
                            60 2.83
  18  0.287  0.368  0.016-   6 2.71  59 2.71  44 2.72  10 2.72  16 2.72  42 2.72  53 2.82  61 2.82
                            46 2.83
  19  0.619  0.952  0.122-  78 2.71  25 2.71  21 2.71   7 2.71   8 2.72  53 2.72  20 2.78  71 2.78
                            69 2.79  44 2.82  75 2.82   4 2.83
  20  0.702  0.786  0.227-  71 2.71  66 2.71  69 2.72  55 2.72  67 2.72  12 2.72  19 2.78  25 2.78
                            56 2.78   1 2.78  21 2.78  73 2.79
  21  0.869  0.702  0.122-  25 2.71  78 2.71  19 2.71  45 2.71  46 2.72  70 2.72  12 2.78  55 2.78
                            20 2.78   4 2.82  58 2.82   6 2.83
  22  0.620  0.452  0.122-  11 2.71  45 2.71  61 2.71  25 2.72  60 2.72   7 2.72  79 2.78  67 2.78
                            51 2.79  17 2.82  42 2.82  64 2.83
  23  0.285  0.869  0.331-  14 2.71  57 2.71  73 2.71   2 2.71  13 2.72  47 2.72  68 2.78  26 2.78
                            66 2.79  31 2.82  37 2.82  29 2.83
  24  0.287  0.867  0.015-  17 2.71  59 2.71  48 2.72   5 2.72  16 2.72  75 2.72  60 2.82   8 2.82
                            49 2.83
  25  0.619  0.702  0.122-  19 2.71  45 2.71  21 2.71   8 2.72  22 2.72  60 2.72  20 2.78  67 2.78
                            66 2.79  17 2.82  75 2.82  58 2.83
  26  0.202  0.036  0.227-  77 2.71  68 2.71  65 2.71  62 2.71  69 2.72  66 2.72  54 2.78  49 2.78
                            23 2.78  13 2.78  47 2.79   8 2.79
  27  0.868  0.953  0.438-  29 2.71  32 2.72  39 2.72  34 2.72  35 2.72  40 2.72   1 2.82  72 2.82
                             2 2.82
  28  0.117  0.453  0.438-  39 2.71  50 2.71  30 2.71  33 2.72  35 2.72  36 2.72   3 2.83   9 2.83
                            15 2.83
  29  0.117  0.953  0.438-  27 2.71  31 2.71  39 2.71  37 2.72  32 2.72  33 2.72   2 2.82  47 2.82
                            23 2.83
  30  0.868  0.453  0.438-  32 2.71  33 2.71  35 2.71  28 2.71  52 2.72  38 2.72   9 2.82  63 2.83
                            56 2.83
  31  0.367  0.953  0.438-  36 2.71  37 2.71  33 2.71  29 2.71  52 2.72  34 2.72  23 2.82  13 2.82
                            73 2.83
  32  0.867  0.203  0.438-  30 2.71  38 2.71  27 2.72  40 2.72  33 2.72  29 2.72  63 2.82  72 2.83
                            47 2.83
  33  0.117  0.203  0.438-  30 2.71  31 2.71  36 2.71  28 2.72  32 2.72  29 2.72   9 2.82  47 2.82
                            13 2.83
  34  0.618  0.953  0.438-  35 2.71  36 2.71  40 2.71  27 2.72  52 2.72  31 2.72  73 2.82  43 2.82
                             1 2.83
  35  0.867  0.703  0.438-  52 2.71  34 2.71  30 2.71  28 2.72  27 2.72  39 2.72  56 2.82   1 2.82
                             3 2.83
  36  0.367  0.203  0.438-  31 2.71  34 2.71  33 2.71  40 2.71  50 2.72  28 2.72  13 2.82  15 2.82
                            43 2.83
  37  0.368  0.703  0.438-  52 2.71  38 2.71  31 2.71  29 2.72  50 2.72  39 2.72  57 2.82  23 2.82
                            14 2.83
  38  0.617  0.453  0.438-  40 2.71  37 2.71  32 2.71  50 2.72  52 2.72  30 2.72  41 2.82  14 2.82
                            63 2.83
  39  0.117  0.703  0.438-  50 2.71  28 2.71  29 2.71  27 2.72  35 2.72  37 2.72   3 2.82  57 2.83
                             2 2.83
  40  0.617  0.203  0.438-  38 2.71  34 2.71  36 2.71  50 2.72  32 2.72  27 2.72  41 2.82  43 2.82
                            72 2.83
  41  0.534  0.370  0.331-  57 2.71  15 2.71  43 2.71  63 2.72  72 2.72  14 2.72  80 2.78  51 2.78
                            79 2.79  40 2.82  38 2.82  50 2.83
  42  0.538  0.367  0.015-  74 2.71  44 2.71  64 2.71  17 2.72  59 2.72  18 2.72   7 2.82  22 2.82
                            61 2.83
  43  0.534  0.120  0.331-  41 2.71  15 2.71  72 2.71  13 2.72  73 2.72   1 2.72  80 2.78  69 2.78
                            71 2.79  40 2.82  34 2.82  36 2.83
  44  0.537  0.118  0.015-  16 2.71  42 2.71  75 2.71  74 2.71  18 2.72   4 2.72  19 2.82   7 2.82
                            53 2.83
  45  0.869  0.452  0.122-  22 2.71  25 2.71  21 2.71  46 2.72  11 2.72  54 2.72  77 2.78  12 2.78
                            67 2.78  58 2.82  64 2.82  10 2.83
  46  0.119  0.452  0.122-  53 2.71  45 2.72  21 2.72  54 2.72  61 2.72  70 2.72  62 2.78  76 2.78
                            12 2.78   6 2.82  10 2.83  18 2.83
  47  0.034  0.119  0.331-   9 2.71  13 2.71  72 2.72  63 2.72  23 2.72   2 2.72  77 2.78  65 2.78
                            26 2.79  29 2.82  33 2.82  32 2.83
  48  0.037  0.118  0.015-   5 2.71  10 2.71  24 2.72  74 2.72  64 2.72  16 2.72  49 2.82  54 2.83
                            11 2.83
  49  0.119  0.952  0.122-  70 2.71  54 2.71   8 2.71  60 2.71  11 2.72  78 2.72  68 2.78  26 2.78
                            65 2.79  48 2.82   5 2.82  24 2.83
  50  0.367  0.453  0.438-  39 2.71  28 2.71  38 2.72  40 2.72  37 2.72  36 2.72  15 2.82  57 2.83
                            41 2.83
  51  0.452  0.536  0.227-  79 2.71  80 2.71  76 2.71  67 2.72  68 2.72  66 2.72  41 2.78  60 2.78
                            61 2.78  14 2.78  22 2.79  57 2.79
  52  0.617  0.703  0.438-  35 2.71  37 2.71  38 2.72  30 2.72  34 2.72  31 2.72  14 2.82  73 2.82
                            56 2.83
  53  0.369  0.202  0.122-  46 2.71  54 2.71   7 2.72   8 2.72  61 2.72  19 2.72  69 2.78  80 2.78
                            62 2.79  18 2.82  16 2.82  44 2.83
  54  0.119  0.202  0.122-  49 2.71   8 2.71  53 2.71  11 2.72  46 2.72  45 2.72  26 2.78  62 2.78
                            77 2.79  10 2.82  48 2.83  16 2.83
  55  0.952  0.786  0.227-  76 2.71  12 2.71  65 2.71  68 2.71  20 2.72  71 2.72   2 2.78  78 2.78
                             3 2.78  21 2.78   1 2.78  70 2.79
  56  0.784  0.619  0.331-  14 2.71  73 2.71   3 2.72  63 2.72   9 2.72   1 2.72  67 2.78  20 2.78
                            12 2.78  35 2.82  30 2.83  52 2.83
  57  0.284  0.619  0.331-   2 2.71  41 2.71  23 2.71  14 2.72   3 2.72  15 2.72  68 2.78  76 2.78
                            51 2.79  37 2.82  50 2.83  39 2.83
  58  0.787  0.618  0.015-   4 2.71  75 2.71  64 2.71   6 2.72  17 2.72  10 2.72  21 2.82  45 2.82
                            25 2.83
  59  0.287  0.618  0.015-  17 2.71  24 2.71  18 2.71   6 2.71  42 2.72   5 2.72  61 2.82  60 2.82
                            70 2.83
  60  0.369  0.702  0.122-  70 2.71  61 2.71  49 2.71   8 2.72  22 2.72  25 2.72  51 2.78  66 2.78
                            68 2.79  24 2.82  59 2.82  17 2.83
  61  0.370  0.452  0.122-  60 2.71  22 2.71   7 2.71  70 2.72  53 2.72  46 2.72  51 2.78  80 2.78
                            76 2.79  59 2.82  18 2.82  42 2.83
  62  0.202  0.286  0.227-  12 2.71  77 2.71  26 2.71  76 2.72  80 2.72  69 2.72  46 2.78  13 2.78
                            54 2.78  15 2.78   9 2.78  53 2.79
  63  0.784  0.369  0.331-  72 2.71  14 2.71  56 2.72  41 2.72  47 2.72   9 2.72  67 2.78  79 2.78
                            77 2.79  32 2.82  30 2.83  38 2.83
  64  0.787  0.368  0.015-  10 2.71  58 2.71  42 2.71  17 2.72  48 2.72  74 2.72  11 2.82  45 2.82
                            22 2.83
  65  0.952  0.036  0.227-  26 2.71  77 2.71  55 2.71  68 2.72  79 2.72  71 2.72   2 2.78  11 2.78
                            47 2.78  78 2.78  72 2.78  49 2.79
  66  0.452  0.786  0.227-  69 2.71  20 2.71  67 2.72  68 2.72  26 2.72  51 2.72   8 2.78  14 2.78
                            60 2.78  73 2.78  23 2.79  25 2.79
  67  0.702  0.536  0.227-  77 2.71  51 2.72  20 2.72  66 2.72  12 2.72  79 2.72  63 2.78  22 2.78
                            56 2.78  25 2.78  45 2.78  14 2.79
  68  0.202  0.786  0.227-  26 2.71  55 2.71  65 2.72  76 2.72  51 2.72  66 2.72  49 2.78  23 2.78
                            70 2.78  57 2.78   2 2.78  60 2.79
  69  0.452  0.036  0.227-  66 2.71  71 2.71  26 2.72  20 2.72  80 2.72  62 2.72  53 2.78  73 2.78
                            43 2.78   8 2.78  13 2.79  19 2.79
  70  0.120  0.702  0.122-  60 2.71  49 2.71  61 2.72  21 2.72  46 2.72  78 2.72  68 2.78  76 2.78
                            55 2.79   6 2.82   5 2.82  59 2.83
  71  0.702  0.036  0.227-  20 2.71  69 2.71  79 2.71  80 2.72  65 2.72  55 2.72   7 2.78   1 2.78
                            19 2.78  72 2.78  78 2.79  43 2.79
  72  0.784  0.120  0.331-  63 2.71  43 2.71  47 2.72   1 2.72  41 2.72   2 2.72  79 2.78  71 2.78
                            65 2.78  27 2.82  32 2.83  40 2.83
  73  0.535  0.869  0.331-  56 2.71  14 2.71  23 2.71  43 2.72   1 2.72  13 2.72  69 2.78  66 2.78
                            20 2.79  34 2.82  52 2.82  31 2.83
  74  0.787  0.118  0.015-  42 2.71   5 2.71  44 2.71   4 2.72  48 2.72  64 2.72  78 2.82  11 2.83
                             7 2.83
  75  0.537  0.868  0.015-  16 2.71  44 2.71  58 2.71   4 2.71  17 2.72  24 2.72  19 2.82  25 2.82
                             8 2.83
  76  0.202  0.536  0.227-  80 2.71  12 2.71  55 2.71  51 2.71  62 2.72  68 2.72  46 2.78  70 2.78
                            57 2.78  15 2.78   3 2.79  61 2.79
  77  0.952  0.286  0.227-  62 2.71  26 2.71  67 2.71  65 2.71  79 2.72  12 2.72  45 2.78  47 2.78
                             9 2.78  11 2.78  63 2.79  54 2.79
  78  0.869  0.952  0.122-   7 2.71  19 2.71  21 2.71  11 2.72  49 2.72  70 2.72  55 2.78  65 2.78
                            71 2.79  74 2.82   4 2.82   5 2.83
  79  0.702  0.286  0.227-  51 2.71  80 2.71  71 2.71  65 2.72  77 2.72  67 2.72  22 2.78  72 2.78
                             7 2.78  63 2.78  41 2.79  11 2.79
  80  0.452  0.286  0.227-  76 2.71  79 2.71  51 2.71  71 2.72  69 2.72  62 2.72  43 2.78  41 2.78
                            61 2.78  53 2.78  15 2.79   7 2.79
 
  LATTYP: Found a hexagonal cell.
 ALAT       =    10.8599870232
 C/A-ratio  =     2.0257851094
  
  Lattice vectors:
  
 A1 = (  -5.4299998282,  -9.4050210000,   0.0000000000)
 A2 = (  -5.4299998278,   9.4050210000,   0.0000000000)
 A3 = (   0.0000000000,   0.0000000000, -22.0000000000)


Analysis of symmetry for initial positions (statically):
=====================================================================
 Subroutine PRICEL returns:
 Original cell was already a primitive cell.
 

 Routine SETGRP: Setting up the symmetry group for a 
 hexagonal supercell.


 Subroutine GETGRP returns: Found  1 space group operations
 (whereof  1 operations were pure point group operations)
 out of a pool of 24 trial point group operations.


The static configuration has the point symmetry C_1 .


Analysis of symmetry for dynamics (positions and initial velocities):
=====================================================================
 Subroutine PRICEL returns:
 Original cell was already a primitive cell.
 

 Routine SETGRP: Setting up the symmetry group for a 
 hexagonal supercell.


 Subroutine GETGRP returns: Found  1 space group operations
 (whereof  1 operations were pure point group operations)
 out of a pool of 24 trial point group operations.


The dynamic configuration has the point symmetry C_1 .


 Subroutine INISYM returns: Found  1 space group operations
 (whereof  1 operations are pure point group operations),
 and found     1 'primitive' translations

 
 
 KPOINTS: mesh auto                               

Automatic generation of k-mesh.
Space group operators:
 irot       det(A)        alpha          n_x          n_y          n_z        tau_x        tau_y        tau_z
    1     1.000000     0.000001     1.000000     0.000000     0.000000     0.000000     0.000000     0.000000
 
 Subroutine IBZKPT returns following result:
 ===========================================
 
 Found      4 irreducible k-points:
 
 Following reciprocal coordinates:
            Coordinates               Weight
  0.000000  0.000000  0.000000      1.000000
  0.500000  0.000000  0.000000      1.000000
  0.000000  0.500000  0.000000      1.000000
  0.500000  0.500000  0.000000      1.000000
 
 Following cartesian coordinates:
            Coordinates               Weight
  0.000000  0.000000  0.000000      1.000000
  0.046041 -0.026582  0.000000      1.000000
  0.000000  0.053163  0.000000      1.000000
  0.046041  0.026582  0.000000      1.000000
 


--------------------------------------------------------------------------------------------------------




 Dimension of arrays:
   k-points           NKPTS =      4   k-points in BZ     NKDIM =      4   number of bands    NBANDS=    480
   number of dos      NEDOS =    301   number of ions     NIONS =     80
   non local maximal  LDIM  =      6   non local SUM 2l+1 LMDIM =     18
   total plane-waves  NPLWV = ******
   max r-space proj   IRMAX =   7380   max aug-charges    IRDMAX=  32148
   dimension x,y,z NGX =    84 NGY =   84 NGZ =  168
   dimension x,y,z NGXF=   168 NGYF=  168 NGZF=  336
   support grid    NGXF=   168 NGYF=  168 NGZF=  336
   ions per type =              80
   NGX,Y,Z   is equivalent  to a cutoff of  12.86, 12.86, 12.70 a.u.
   NGXF,Y,Z  is equivalent  to a cutoff of  25.72, 25.72, 25.39 a.u.

 SYSTEM =  Pt111                                   
 POSCAR =  Pt111                                   

 Startparameter for this run:
   NWRITE =      2    write-flag & timer
   PREC   = accura    normal or accurate (medium, high low for compatibility)
   ISTART =      0    job   : 0-new  1-cont  2-samecut
   ICHARG =      2    charge: 1-file 2-atom 10-const
   ISPIN  =      1    spin polarized calculation?
   LNONCOLLINEAR =      F non collinear calculations
   LSORBIT =      F    spin-orbit coupling
   INIWAV =      1    electr: 0-lowe 1-rand  2-diag
   LASPH  =      F    aspherical Exc in radial PAW
   METAGGA=      F    non-selfconsistent MetaGGA calc.

 Electronic Relaxation 1
   ENCUT  =  550.0 eV  40.42 Ry    6.36 a.u.  20.77 20.77 42.07*2*pi/ulx,y,z
   ENINI  =  550.0     initial cutoff
   ENAUG  =  359.0 eV  augmentation charge cutoff
   NELM   =    200;   NELMIN=  2; NELMDL= -5     # of ELM steps 
   EDIFF  = 0.1E-04   stopping-criterion for ELM
   LREAL  =      T    real-space projection
   NLSPLINE    = F    spline interpolate recip. space projectors
   LCOMPAT=      F    compatible to vasp.4.4
   GGA_COMPAT  = T    GGA compatible to vasp.4.4-vasp.4.6
   LMAXPAW     = -100 max onsite density
   LMAXMIX     =    2 max onsite mixed and CHGCAR
   VOSKOWN=      0    Vosko Wilk Nusair interpolation
   ROPT   =   -0.00025
 Ionic relaxation
   EDIFFG = -.5E-01   stopping-criterion for IOM
   NSW    =    300    number of steps for IOM
   NBLOCK =      1;   KBLOCK =    300    inner block; outer block 
   IBRION =      2    ionic relax: 0-MD 1-quasi-New 2-CG
   NFREE  =      1    steps in history (QN), initial steepest desc. (CG)
   ISIF   =      2    stress and relaxation
   IWAVPR =     11    prediction:  0-non 1-charg 2-wave 3-comb
   ISYM   =      2    0-nonsym 1-usesym 2-fastsym
   LCORR  =      T    Harris-Foulkes like correction to forces

   POTIM  = 0.5000    time-step for ionic-motion
   TEIN   =    0.0    initial temperature
   TEBEG  =    0.0;   TEEND  =   0.0 temperature during run
   SMASS  =  -3.00    Nose mass-parameter (am)
   estimated Nose-frequenzy (Omega)   =  0.10E-29 period in steps =****** mass=  -0.270E-26a.u.
   SCALEE = 1.0000    scale energy and forces
   NPACO  =    256;   APACO  = 16.0  distance and # of slots for P.C.
   PSTRESS=    0.0 pullay stress

  Mass of Ions in am
   POMASS = 195.08
  Ionic Valenz
   ZVAL   =  10.00
  Atomic Wigner-Seitz radii
   RWIGS  =  -1.00
  virtual crystal weights 
   VCA    =   1.00
   NELECT =     800.0000    total number of electrons
   NUPDOWN=      -1.0000    fix difference up-down

 DOS related values:
   EMIN   =  10.00;   EMAX   =-10.00  energy-range for DOS
   EFERMI =   0.00
   ISMEAR =     1;   SIGMA  =   0.10  broadening in eV -4-tet -1-fermi 0-gaus

 Electronic relaxation 2 (details)
   IALGO  =     68    algorithm
   LDIAG  =      T    sub-space diagonalisation (order eigenvalues)
   LSUBROT=      F    optimize rotation matrix (better conditioning)
   TURBO    =      0    0=normal 1=particle mesh
   IRESTART =      0    0=no restart 2=restart with 2 vectors
   NREBOOT  =      0    no. of reboots
   NMIN     =      0    reboot dimension
   EREF     =   0.00    reference energy to select bands
   IMIX   =      4    mixing-type and parameters
     AMIX     =   0.40;   BMIX     =  1.00
     AMIX_MAG =   1.60;   BMIX_MAG =  1.00
     AMIN     =   0.10
     WC   =   100.;   INIMIX=   1;  MIXPRE=   1;  MAXMIX= -45

 Intra band minimization:
   WEIMIN = 0.0010     energy-eigenvalue tresh-hold
   EBREAK =  0.52E-08  absolut break condition
   DEPER  =   0.30     relativ break condition  

   TIME   =   0.40     timestep for ELM

  volume/ion in A,a.u.               =      28.09       189.55
  Fermi-wavevector in a.u.,A,eV,Ry     =   1.160292  2.192634 18.317227  1.346278
  Thomas-Fermi vector in A             =   2.296876
 
 Write flags
   LWAVE        =      F    write WAVECAR
   LDOWNSAMPLE  =      F    k-point downsampling of WAVECAR
   LCHARG       =      F    write CHGCAR
   LVTOT        =      F    write LOCPOT, total local potential
   LVHAR        =      F    write LOCPOT, Hartree potential only
   LELF         =      F    write electronic localiz. function (ELF)
   LORBIT       =      0    0 simple, 1 ext, 2 COOP (PROOUT), +10 PAW based schemes


 Dipole corrections
   LMONO  =      F    monopole corrections only (constant potential shift)
   LDIPOL =      F    correct potential (dipole corrections)
   IDIPOL =      0    1-x, 2-y, 3-z, 4-all directions 
   EPSILON=  1.0000000 bulk dielectric constant

 Exchange correlation treatment:
   GGA     =    --    GGA type
   LEXCH   =     8    internal setting for exchange type
   VOSKOWN=      0    Vosko Wilk Nusair interpolation
   LHFCALC =     F    Hartree Fock is set to
   LHFONE  =     F    Hartree Fock one center treatment
   AEXX    =    0.0000 exact exchange contribution

 Linear response parameters
   LEPSILON=     F    determine dielectric tensor
   LRPA    =     F    only Hartree local field effects (RPA)
   LNABLA  =     F    use nabla operator in PAW spheres
   LVEL    =     F    velocity operator in full k-point grid
   LINTERFAST=   F  fast interpolation
   KINTER  =     0    interpolate to denser k-point grid
   CSHIFT  =0.1000    complex shift for real part using Kramers Kronig
   OMEGAMAX=  -1.0    maximum frequency
   DEG_THRESHOLD= 0.2000000E-02 threshold for treating states as degnerate
   RTIME   =   -0.100 relaxation time in fs
  (WPLASMAI=    0.000 imaginary part of plasma frequency in eV, 0.658/RTIME)
   DFIELD  = 0.0000000 0.0000000 0.0000000 field for delta impulse in time
 
 Orbital magnetization related:
   ORBITALMAG=     F  switch on orbital magnetization
   LCHIMAG   =     F  perturbation theory with respect to B field
   DQ        =  0.001000  dq finite difference perturbation B field
   LLRAUG    =     F  two centre corrections for induced B field



--------------------------------------------------------------------------------------------------------


 conjugate gradient relaxation of ions
 charge density and potential will be updated during run
 non-spin polarized calculation
 RMM-DIIS sequential band-by-band and
  variant of blocked Davidson during initial phase
 perform sub-space diagonalisation
    before iterative eigenvector-optimisation
 modified Broyden-mixing scheme, WC =      100.0
 initial mixing is a Kerker type mixing with AMIX =  0.4000 and BMIX =      1.0000
 Hartree-type preconditioning will be used
 using additional bands           80
 real space projection scheme for non local part
 use partial core corrections
 calculate Harris-corrections to forces 
   (improved forces if not selfconsistent)
 use gradient corrections 
 use of overlap-Matrix (Vanderbilt PP)
 Methfessel and Paxton  Order N= 1 SIGMA  =   0.10


--------------------------------------------------------------------------------------------------------


  energy-cutoff  :      550.00
  volume of cell :     2247.05
      direct lattice vectors                 reciprocal lattice vectors
    10.859999656  0.000000000  0.000000000     0.092081034 -0.053163092  0.000000000
     5.429999828  9.405021000  0.000000000     0.000000000  0.106326185  0.000000000
     0.000000000  0.000000000 22.000000000     0.000000000  0.000000000  0.045454545

  length of vectors
    10.859999656 10.859987023 22.000000000     0.106326061  0.106326185  0.045454545


 
 k-points in units of 2pi/SCALE and weight: mesh auto                               
   0.00000000  0.00000000  0.00000000       0.250
   0.04604052 -0.02658155  0.00000000       0.250
   0.00000000  0.05316309  0.00000000       0.250
   0.04604052  0.02658155  0.00000000       0.250
 
 k-points in reciprocal lattice and weights: mesh auto                               
   0.00000000  0.00000000  0.00000000       0.250
   0.50000000  0.00000000  0.00000000       0.250
   0.00000000  0.50000000  0.00000000       0.250
   0.50000000  0.50000000  0.00000000       0.250
 
 position of ions in fractional coordinates (direct lattice) 
   0.78460202  0.86942437  0.33104184
   0.03471948  0.86917484  0.33108799
   0.03439059  0.61948091  0.33121490
   0.78733492  0.86749523  0.01523082
   0.03673208  0.86815209  0.01535276
   0.03739891  0.61764094  0.01549949
   0.61941900  0.20169904  0.12217373
   0.36938093  0.95174631  0.12221038
   0.03444223  0.36941535  0.33118907
   0.03702010  0.36745839  0.01555774
   0.86934911  0.20181162  0.12209130
   0.95194317  0.53567909  0.22670486
   0.28443060  0.11948387  0.33117809
   0.53449229  0.61952214  0.33111408
   0.28443401  0.36937314  0.33130768
   0.28737660  0.11753303  0.01550924
   0.53702832  0.61771822  0.01545760
   0.28693064  0.36792243  0.01556465
   0.61943497  0.95173808  0.12211587
   0.70189911  0.78570574  0.22657695
   0.86940703  0.70182631  0.12219375
   0.61953607  0.45176385  0.12219931
   0.28459524  0.86939772  0.33114715
   0.28717383  0.86744177  0.01548949
   0.61948838  0.70181040  0.12212616
   0.20178829  0.03574092  0.22667984
   0.86767668  0.95299131  0.43777763
   0.11736206  0.45313614  0.43827748
   0.11723202  0.95275797  0.43791956
   0.86757311  0.45276928  0.43795304
   0.36693159  0.95312888  0.43801396
   0.86718872  0.20324097  0.43796057
   0.11735535  0.20308942  0.43802247
   0.61754911  0.95307824  0.43784474
   0.86687908  0.70304668  0.43793629
   0.36744480  0.20259011  0.43807574
   0.36768544  0.70299363  0.43803073
   0.61712526  0.45292902  0.43793947
   0.11743416  0.70267144  0.43804613
   0.61715128  0.20317097  0.43781026
   0.53421501  0.36954015  0.33109870
   0.53764747  0.36735834  0.01540351
   0.53441732  0.11957078  0.33106874
   0.53692745  0.11791937  0.01532902
   0.86937812  0.45188028  0.12227324
   0.11945845  0.45174610  0.12236839
   0.03446423  0.11946648  0.33115538
   0.03719573  0.11752701  0.01532315
   0.11937961  0.95178010  0.12226301
   0.36700341  0.45310033  0.43822921
   0.45191114  0.53564090  0.22669547
   0.61739361  0.70295653  0.43792788
   0.36931205  0.20184145  0.12230993
   0.11943486  0.20165645  0.12227422
   0.95194788  0.78565151  0.22667928
   0.78438758  0.61946645  0.33107937
   0.28448596  0.61947638  0.33125801
   0.78708788  0.61795672  0.01535737
   0.28732088  0.61755253  0.01548736
   0.36933846  0.70176128  0.12228077
   0.36953671  0.45180494  0.12225763
   0.20168847  0.28577337  0.22678364
   0.78430361  0.36947623  0.33108987
   0.78727762  0.36795144  0.01528027
   0.95185159  0.03567865  0.22665351
   0.45193983  0.78576622  0.22664798
   0.70190929  0.53567046  0.22663250
   0.20190143  0.78572194  0.22671908
   0.45183620  0.03565355  0.22671015
   0.11950185  0.70185892  0.12225235
   0.70180079  0.03566071  0.22659523
   0.78440120  0.11958257  0.33101055
   0.53454362  0.86947422  0.33114800
   0.78695369  0.11773815  0.01518417
   0.53723470  0.86788574  0.01524724
   0.20188755  0.53568865  0.22674779
   0.95183615  0.28565814  0.22669890
   0.86917361  0.95187802  0.12216451
   0.70178288  0.28565615  0.22659797
   0.45178423  0.28574503  0.22674386
 
 position of ions in cartesian coordinates  (Angst):
  13.24175181  8.17695443  7.28292057
   5.09667279  8.17460764  7.28393585
   3.73726306  5.82623093  7.28672790
  13.26095590  8.15881083  0.33507807
   5.11297611  8.16498862  0.33776072
   3.75994234  5.80892606  0.34098870
   7.82211584  1.89698371  2.68782199
   9.17945909  8.95119401  2.68862835
   2.37996793  3.47435910  7.28615957
   2.39733730  3.45595385  0.34227027
  10.53696807  1.89804252  2.68600860
  13.24683992  5.03807311  4.98750688
   3.73771357  1.12374833  7.28591805
   9.16859121  5.82661874  7.28450976
   5.09464929  3.47396214  7.28876892
   3.75911407  1.10540064  0.34120328
   9.18633719  5.80965284  0.34006724
   5.11388541  3.46031814  0.34242222
  11.89500118  8.95111664  2.68654907
  11.88900611  7.38957897  4.98469300
  13.25267678  6.60069121  2.68826241
   9.18123914  4.24884848  2.68838491
   7.81153375  8.17670385  7.28523724
   7.82891632  8.15830809  0.34076870
  10.53847399  6.60054159  2.68677561
   2.38549393  0.33614409  4.98695642
  14.59771113  8.96290325  9.63110792
   3.73508114  4.26175492  9.64210463
   6.44661533  8.96070876  9.63423030
  11.88038077  4.25830458  9.63496697
   9.16036653  8.96419710  9.63630720
  10.52126767  1.91148560  9.63513246
   2.37725453  1.91006022  9.63649440
  11.88179786  8.96372088  9.63258428
  13.23184987  6.61216875  9.63459831
   5.09051466  1.90536427  9.63766629
   7.81031902  6.61166988  9.63667613
   9.16138455  4.25980690  9.63466838
   5.09084072  6.60863965  9.63701483
   7.80548095  1.91082719  9.63182582
   7.80817780  3.47553292  7.28417139
   7.83360705  3.45501291  0.33887725
   6.45304117  1.12456566  7.28351236
   6.47133404  1.10903416  0.33723846
  11.89515588  4.24994352  2.69001121
   3.75030003  4.24868158  2.69210459
   1.02298444  1.12358471  7.28541834
   1.04211725  1.10534403  0.33710926
   6.46462835  8.95151184  2.68978619
   6.44599168  4.26141814  9.64104264
   7.81628483  5.03771389  4.98730032
  10.52194820  6.61132088  9.63441329
   5.10672776  1.89832305  2.69081852
   2.39205696  1.89658310  2.69003282
  14.60424121  7.38906892  4.98694409
  11.88215154  5.82609499  7.28374611
   6.45327406  5.82618837  7.28767631
  11.90327900  5.81189588  0.33786219
   6.47361485  5.80809453  0.34072184
   7.82157922  6.60007959  2.69017696
   6.46646926  4.24923491  2.68966790
   3.74208601  2.68770452  4.98924002
  10.52379285  3.47493174  7.28397716
  10.54781091  3.46059099  0.33616588
  10.53084302  0.33555845  4.98637729
   9.17477681  7.39014776  4.98625546
  10.53142512  5.03799195  4.98591494
   6.45911949  7.38973130  4.98781975
   5.10053980  0.33532240  4.98762324
   5.10888391  6.60099788  2.68955175
   7.81519403  0.33538974  4.98509504
   9.16793009  1.12467659  7.28223219
  10.52638836  8.17742329  7.28525606
   9.18563496  1.10732978  0.33405177
  10.54698811  8.16248359  0.33543937
   5.10128798  5.03816298  4.98845147
  11.88806395  2.68662085  4.98737589
  14.60792265  8.95243280  2.68761932
   9.17247466  2.68660211  4.98515524
   6.45797200  2.68743802  4.98836492
 


--------------------------------------------------------------------------------------------------------


 k-point  1 :   0.0000 0.0000 0.0000  plane waves:   65767
 k-point  2 :   0.5000 0.0000 0.0000  plane waves:   65808
 k-point  3 :   0.0000 0.5000 0.0000  plane waves:   65808
 k-point  4 :   0.5000 0.5000 0.0000  plane waves:   65808

 maximum and minimum number of plane-waves per node :     16481    16415

 maximum number of plane-waves:     65808
 maximum index in each direction: 
   IXMAX=   20   IYMAX=   20   IZMAX=   42
   IXMIN=  -21   IYMIN=  -21   IZMIN=  -42


 real space projection operators:
  total allocation   :      79822.83 KBytes
  max/ min on nodes  :      19957.78      19953.42


 parallel 3D FFT for wavefunctions:
    minimum data exchange during FFTs selected (reduces bandwidth)
 parallel 3D FFT for charge:
    minimum data exchange during FFTs selected (reduces bandwidth)


 total amount of memory used by VASP MPI-rank0   160016. kBytes
=======================================================================

   base      :      30000. kBytes
   nonlr-proj:      34577. kBytes
   fftplans  :      17974. kBytes
   grid      :      25483. kBytes
   one-center:        311. kBytes
   wavefun   :      51671. kBytes
 
     INWAV:  cpu time    0.0000: real time    0.0000
 Broyden mixing: mesh for mixing (old mesh)
   NGX = 41   NGY = 41   NGZ = 85
  (NGX  =168   NGY  =168   NGZ  =336)
  gives a total of 142885 points

 initial charge density was supplied:
 charge density of overlapping atoms calculated
 number of electron     800.0000000 magnetization 
 keeping initial charge density in first step


--------------------------------------------------------------------------------------------------------


 Maximum index for non-local projection operator         1794
 Maximum index for augmentation-charges         2011 (set IRDMAX)


--------------------------------------------------------------------------------------------------------


 First call to EWALD:  gamma=   0.135
 Maximum number of real-space cells 4x 4x 2
 Maximum number of reciprocal cells 2x 2x 4

    FEWALD:  cpu time    0.0204: real time    0.0204


--------------------------------------- Iteration      1(   1)  ---------------------------------------


    POTLOK:  cpu time    0.1855: real time    0.1886
    SETDIJ:  cpu time    0.0167: real time    0.0174
     EDDAV:  cpu time   27.4528: real time   27.5366
       DOS:  cpu time    0.0010: real time    0.0011
    --------------------------------------------
      LOOP:  cpu time   27.6562: real time   27.7436

 eigenvalue-minimisations  :  3840
 total energy-change (2. order) : 0.5699226E+04  (-0.3954016E+05)
 number of electron     800.0000000 magnetization 
 augmentation part      800.0000000 magnetization 

 Free energy of the ion-electron system (eV)
  ---------------------------------------------------
  alpha Z        PSCENC =      2707.43229196
  Ewald energy   TEWEN  =    175175.60590310
  -Hartree energ DENC   =   -239754.42914352
  -exchange      EXHF   =         0.00000000
  -V(xc)+E(xc)   XCENC  =       291.15897414
  PAW double counting   =     55689.88283425   -53427.22359852
  entropy T*S    EENTRO =         0.00290238
  eigenvalues    EBANDS =      6687.55205606
  atomic energy  EATOM  =     58329.24398462
  Solvation  Ediel_sol  =         0.00000000
  ---------------------------------------------------
  free energy    TOTEN  =      5699.22620448 eV

  energy without entropy =     5699.22330210  energy(sigma->0) =     5699.22523702


--------------------------------------------------------------------------------------------------------




--------------------------------------- Iteration      1(   2)  ---------------------------------------


     EDDAV:  cpu time   29.8827: real time   29.9661
       DOS:  cpu time    0.0011: real time    0.0011
    --------------------------------------------
      LOOP:  cpu time   29.8838: real time   29.9672

 eigenvalue-minimisations  :  4280
 total energy-change (2. order) :-0.5844310E+04  (-0.5436833E+04)
 number of electron     800.0000000 magnetization 
 augmentation part      800.0000000 magnetization 

 Free energy of the ion-electron system (eV)
  ---------------------------------------------------
  alpha Z        PSCENC =      2707.43229196
  Ewald energy   TEWEN  =    175175.60590310
  -Hartree energ DENC   =   -239754.42914352
  -exchange      EXHF   =         0.00000000
  -V(xc)+E(xc)   XCENC  =       291.15897414
  PAW double counting   =     55689.88283425   -53427.22359852
  entropy T*S    EENTRO =         0.01093037
  eigenvalues    EBANDS =       843.23367451
  atomic energy  EATOM  =     58329.24398462
  Solvation  Ediel_sol  =         0.00000000
  ---------------------------------------------------
  free energy    TOTEN  =      -145.08414907 eV

  energy without entropy =     -145.09507944  energy(sigma->0) =     -145.08779253


--------------------------------------------------------------------------------------------------------




--------------------------------------- Iteration      1(   3)  ---------------------------------------


     EDDAV:  cpu time   31.3675: real time   31.4533
       DOS:  cpu time    0.0012: real time    0.0012
    --------------------------------------------
      LOOP:  cpu time   31.3687: real time   31.4545

 eigenvalue-minimisations  :  4590
 total energy-change (2. order) :-0.3370738E+03  (-0.3028606E+03)
 number of electron     800.0000000 magnetization 
 augmentation part      800.0000000 magnetization 

 Free energy of the ion-electron system (eV)
  ---------------------------------------------------
  alpha Z        PSCENC =      2707.43229196
  Ewald energy   TEWEN  =    175175.60590310
  -Hartree energ DENC   =   -239754.42914352
  -exchange      EXHF   =         0.00000000
  -V(xc)+E(xc)   XCENC  =       291.15897414
  PAW double counting   =     55689.88283425   -53427.22359852
  entropy T*S    EENTRO =        -0.07249760
  eigenvalues    EBANDS =       506.24327051
  atomic energy  EATOM  =     58329.24398462
  Solvation  Ediel_sol  =         0.00000000
  ---------------------------------------------------
  free energy    TOTEN  =      -482.15798105 eV

  energy without entropy =     -482.08548345  energy(sigma->0) =     -482.13381518


--------------------------------------------------------------------------------------------------------




--------------------------------------- Iteration      1(   4)  ---------------------------------------


     EDDAV:  cpu time   32.6907: real time   32.7799
       DOS:  cpu time    0.0011: real time    0.0011
    --------------------------------------------
      LOOP:  cpu time   32.6918: real time   32.7810

 eigenvalue-minimisations  :  4810
 total energy-change (2. order) :-0.1476500E+02  (-0.1414714E+02)
 number of electron     800.0000000 magnetization 
 augmentation part      800.0000000 magnetization 

 Free energy of the ion-electron system (eV)
  ---------------------------------------------------
  alpha Z        PSCENC =      2707.43229196
  Ewald energy   TEWEN  =    175175.60590310
  -Hartree energ DENC   =   -239754.42914352
  -exchange      EXHF   =         0.00000000
  -V(xc)+E(xc)   XCENC  =       291.15897414
  PAW double counting   =     55689.88283425   -53427.22359852
  entropy T*S    EENTRO =        -0.07098324
  eigenvalues    EBANDS =       491.47675760
  atomic energy  EATOM  =     58329.24398462
  Solvation  Ediel_sol  =         0.00000000
  ---------------------------------------------------
  free energy    TOTEN  =      -496.92297960 eV

  energy without entropy =     -496.85199636  energy(sigma->0) =     -496.89931852


--------------------------------------------------------------------------------------------------------




--------------------------------------- Iteration      1(   5)  ---------------------------------------


     EDDAV:  cpu time   32.2018: real time   32.2896
       DOS:  cpu time    0.0012: real time    0.0012
    CHARGE:  cpu time    2.1504: real time    2.1564
    MIXING:  cpu time    0.0066: real time    0.0070
    --------------------------------------------
      LOOP:  cpu time   34.3601: real time   34.4543

 eigenvalue-minimisations  :  4720
 total energy-change (2. order) :-0.3955078E+00  (-0.3939446E+00)
 number of electron     800.0000034 magnetization 
 augmentation part      231.9798202 magnetization 

 Broyden mixing:
  rms(total) = 0.10926E+02    rms(broyden)= 0.10926E+02
  rms(prec ) = 0.11053E+02
  weight for this iteration     100.00

 Free energy of the ion-electron system (eV)
  ---------------------------------------------------
  alpha Z        PSCENC =      2707.43229196
  Ewald energy   TEWEN  =    175175.60590310
  -Hartree energ DENC   =   -239754.42914352
  -exchange      EXHF   =         0.00000000
  -V(xc)+E(xc)   XCENC  =       291.15897414
  PAW double counting   =     55689.88283425   -53427.22359852
  entropy T*S    EENTRO =        -0.07098140
  eigenvalues    EBANDS =       491.08124792
  atomic energy  EATOM  =     58329.24398462
  Solvation  Ediel_sol  =         0.00000000
  ---------------------------------------------------
  free energy    TOTEN  =      -497.31848743 eV

  energy without entropy =     -497.24750603  energy(sigma->0) =     -497.29482697


--------------------------------------------------------------------------------------------------------




--------------------------------------- Iteration      1(   6)  ---------------------------------------


    POTLOK:  cpu time    0.1688: real time    0.1692
    SETDIJ:  cpu time    0.0151: real time    0.0151
    EDDIAG:  cpu time    4.7285: real time    4.7419
  RMM-DIIS:  cpu time   16.7073: real time   16.7528
    ORTHCH:  cpu time    0.4530: real time    0.4543
       DOS:  cpu time    0.0012: real time    0.0012
    CHARGE:  cpu time    2.1740: real time    2.1800
    MIXING:  cpu time    0.0071: real time    0.0073
    --------------------------------------------
      LOOP:  cpu time   24.2549: real time   24.3217

 eigenvalue-minimisations  :  3855
 total energy-change (2. order) : 0.8832759E+01  (-0.7654974E+01)
 number of electron     800.0000034 magnetization 
 augmentation part      244.9743560 magnetization 

 Broyden mixing:
  rms(total) = 0.81740E+01    rms(broyden)= 0.81740E+01
  rms(prec ) = 0.89683E+01
  weight for this iteration     100.00

 eigenvalues of (default mixing * dielectric matrix)
  average eigenvalue GAMMA=   1.3219
  1.3219

 Free energy of the ion-electron system (eV)
  ---------------------------------------------------
  alpha Z        PSCENC =      2707.43229196
  Ewald energy   TEWEN  =    175175.60590310
  -Hartree energ DENC   =   -238732.61985509
  -exchange      EXHF   =         0.00000000
  -V(xc)+E(xc)   XCENC  =       270.96808809
  PAW double counting   =     62864.65054217   -60732.06556703
  entropy T*S    EENTRO =        -0.17480447
  eigenvalues    EBANDS =      -371.52631197
  atomic energy  EATOM  =     58329.24398462
  Solvation  Ediel_sol  =         0.00000000
  ---------------------------------------------------
  free energy    TOTEN  =      -488.48572861 eV

  energy without entropy =     -488.31092415  energy(sigma->0) =     -488.42746046


--------------------------------------------------------------------------------------------------------




--------------------------------------- Iteration      1(   7)  ---------------------------------------


    POTLOK:  cpu time    0.1627: real time    0.1631
    SETDIJ:  cpu time    0.0147: real time    0.0148
    EDDIAG:  cpu time    4.7302: real time    4.7431
  RMM-DIIS:  cpu time   16.5075: real time   16.5527
    ORTHCH:  cpu time    0.4520: real time    0.4531
       DOS:  cpu time    0.0012: real time    0.0012
    CHARGE:  cpu time    2.1487: real time    2.1545
    MIXING:  cpu time    0.0067: real time    0.0067
    --------------------------------------------
      LOOP:  cpu time   24.0239: real time   24.0892

 eigenvalue-minimisations  :  3869
 total energy-change (2. order) :-0.1690346E+03  (-0.2451849E+02)
 number of electron     800.0000032 magnetization 
 augmentation part      238.0622255 magnetization 

 Broyden mixing:
  rms(total) = 0.11282E+02    rms(broyden)= 0.11282E+02
  rms(prec ) = 0.14525E+02
  weight for this iteration     100.00

 eigenvalues of (default mixing * dielectric matrix)
  average eigenvalue GAMMA=   1.2387
  2.2601  0.2174

 Free energy of the ion-electron system (eV)
  ---------------------------------------------------
  alpha Z        PSCENC =      2707.43229196
  Ewald energy   TEWEN  =    175175.60590310
  -Hartree energ DENC   =   -239881.69656863
  -exchange      EXHF   =         0.00000000
  -V(xc)+E(xc)   XCENC  =       265.90996120
  PAW double counting   =     67194.40401950   -65108.35725943
  entropy T*S    EENTRO =        -0.15704252
  eigenvalues    EBANDS =       660.09434640
  atomic energy  EATOM  =     58329.24398462
  Solvation  Ediel_sol  =         0.00000000
  ---------------------------------------------------
  free energy    TOTEN  =      -657.52036379 eV

  energy without entropy =     -657.36332127  energy(sigma->0) =     -657.46801628


--------------------------------------------------------------------------------------------------------




--------------------------------------- Iteration      1(   8)  ---------------------------------------


    POTLOK:  cpu time    0.1645: real time    0.1649
    SETDIJ:  cpu time    0.0150: real time    0.0151
    EDDIAG:  cpu time    4.7340: real time    4.7469
  RMM-DIIS:  cpu time   16.5666: real time   16.6097
    ORTHCH:  cpu time    0.4544: real time    0.4555
       DOS:  cpu time    0.0011: real time    0.0011
    CHARGE:  cpu time    2.1545: real time    2.1596
    MIXING:  cpu time    0.0063: real time    0.0063
    --------------------------------------------
      LOOP:  cpu time   24.0963: real time   24.1590

 eigenvalue-minimisations  :  3860
 total energy-change (2. order) : 0.1294970E+03  (-0.8438966E+01)
 number of electron     800.0000035 magnetization 
 augmentation part      247.0682749 magnetization 

 Broyden mixing:
  rms(total) = 0.59515E+01    rms(broyden)= 0.59514E+01
  rms(prec ) = 0.73584E+01
  weight for this iteration     100.00

 eigenvalues of (default mixing * dielectric matrix)
  average eigenvalue GAMMA=   0.9601
  2.2215  0.3294  0.3294

 Free energy of the ion-electron system (eV)
  ---------------------------------------------------
  alpha Z        PSCENC =      2707.43229196
  Ewald energy   TEWEN  =    175175.60590310
  -Hartree energ DENC   =   -239025.49303293
  -exchange      EXHF   =         0.00000000
  -V(xc)+E(xc)   XCENC  =       258.25583066
  PAW double counting   =     73942.52284891   -71941.59018535
  entropy T*S    EENTRO =        -0.01911192
  eigenvalues    EBANDS =        26.01811808
  atomic energy  EATOM  =     58329.24398462
  Solvation  Ediel_sol  =         0.00000000
  ---------------------------------------------------
  free energy    TOTEN  =      -528.02335287 eV

  energy without entropy =     -528.00424094  energy(sigma->0) =     -528.01698222


--------------------------------------------------------------------------------------------------------




--------------------------------------- Iteration      1(   9)  ---------------------------------------


    POTLOK:  cpu time    0.1637: real time    0.1642
    SETDIJ:  cpu time    0.0149: real time    0.0149
    EDDIAG:  cpu time    4.7230: real time    4.7343
  RMM-DIIS:  cpu time   16.6043: real time   16.6436
    ORTHCH:  cpu time    0.4550: real time    0.4561
       DOS:  cpu time    0.0011: real time    0.0011
    CHARGE:  cpu time    2.1483: real time    2.1535
    MIXING:  cpu time    0.0061: real time    0.0061
    --------------------------------------------
      LOOP:  cpu time   24.1164: real time   24.1737

 eigenvalue-minimisations  :  3860
 total energy-change (2. order) : 0.4025487E+02  (-0.7330685E+01)
 number of electron     800.0000034 magnetization 
 augmentation part      248.2794131 magnetization 

 Broyden mixing:
  rms(total) = 0.45234E+01    rms(broyden)= 0.45234E+01
  rms(prec ) = 0.64420E+01
  weight for this iteration     100.00

 eigenvalues of (default mixing * dielectric matrix)
  average eigenvalue GAMMA=   0.8365
  2.1355  0.6806  0.2185  0.3114

 Free energy of the ion-electron system (eV)
  ---------------------------------------------------
  alpha Z        PSCENC =      2707.43229196
  Ewald energy   TEWEN  =    175175.60590310
  -Hartree energ DENC   =   -238851.53392987
  -exchange      EXHF   =         0.00000000
  -V(xc)+E(xc)   XCENC  =       259.58042860
  PAW double counting   =     74158.79842453   -72157.57460275
  entropy T*S    EENTRO =        -0.07374147
  eigenvalues    EBANDS =      -109.24724614
  atomic energy  EATOM  =     58329.24398462
  Solvation  Ediel_sol  =         0.00000000
  ---------------------------------------------------
  free energy    TOTEN  =      -487.76848742 eV

  energy without entropy =     -487.69474595  energy(sigma->0) =     -487.74390693


--------------------------------------------------------------------------------------------------------




--------------------------------------- Iteration      1(  10)  ---------------------------------------


    POTLOK:  cpu time    0.1679: real time    0.1683
    SETDIJ:  cpu time    0.0149: real time    0.0150
    EDDIAG:  cpu time    4.7304: real time    4.7417
  RMM-DIIS:  cpu time   16.4585: real time   16.4974
    ORTHCH:  cpu time    0.4556: real time    0.4567
       DOS:  cpu time    0.0011: real time    0.0011
    CHARGE:  cpu time    2.1423: real time    2.1474
    MIXING:  cpu time    0.0065: real time    0.0066
    --------------------------------------------
      LOOP:  cpu time   23.9774: real time   24.0342

 eigenvalue-minimisations  :  3863
 total energy-change (2. order) :-0.3480678E+02  (-0.2920574E+01)
 number of electron     800.0000033 magnetization 
 augmentation part      247.1167263 magnetization 

 Broyden mixing:
  rms(total) = 0.61252E+01    rms(broyden)= 0.61252E+01
  rms(prec ) = 0.99929E+01
  weight for this iteration     100.00

 eigenvalues of (default mixing * dielectric matrix)
  average eigenvalue GAMMA=   0.7448
  2.1568  0.9069  0.2673  0.2673  0.1255

 Free energy of the ion-electron system (eV)
  ---------------------------------------------------
  alpha Z        PSCENC =      2707.43229196
  Ewald energy   TEWEN  =    175175.60590310
  -Hartree energ DENC   =   -238779.82806337
  -exchange      EXHF   =         0.00000000
  -V(xc)+E(xc)   XCENC  =       261.09788975
  PAW double counting   =     74071.06267253   -72064.64073171
  entropy T*S    EENTRO =        -0.22097114
  eigenvalues    EBANDS =      -222.32824047
  atomic energy  EATOM  =     58329.24398462
  Solvation  Ediel_sol  =         0.00000000
  ---------------------------------------------------
  free energy    TOTEN  =      -522.57526472 eV

  energy without entropy =     -522.35429358  energy(sigma->0) =     -522.50160768


--------------------------------------------------------------------------------------------------------




--------------------------------------- Iteration      1(  11)  ---------------------------------------


    POTLOK:  cpu time    0.1704: real time    0.1708
    SETDIJ:  cpu time    0.0150: real time    0.0151
    EDDIAG:  cpu time    4.7161: real time    4.7274
  RMM-DIIS:  cpu time   16.6195: real time   16.6589
    ORTHCH:  cpu time    0.4557: real time    0.4568
       DOS:  cpu time    0.0011: real time    0.0011
    CHARGE:  cpu time    2.1679: real time    2.1731
    MIXING:  cpu time    0.0073: real time    0.0073
    --------------------------------------------
      LOOP:  cpu time   24.1532: real time   24.2105

 eigenvalue-minimisations  :  3863
 total energy-change (2. order) : 0.4834750E+02  (-0.1058518E+01)
 number of electron     800.0000036 magnetization 
 augmentation part      248.3783199 magnetization 

 Broyden mixing:
  rms(total) = 0.30040E+01    rms(broyden)= 0.30040E+01
  rms(prec ) = 0.39449E+01
  weight for this iteration     100.00

 eigenvalues of (default mixing * dielectric matrix)
  average eigenvalue GAMMA=   0.6638
  2.1736  0.9084  0.2771  0.2771  0.2476  0.0991

 Free energy of the ion-electron system (eV)
  ---------------------------------------------------
  alpha Z        PSCENC =      2707.43229196
  Ewald energy   TEWEN  =    175175.60590310
  -Hartree energ DENC   =   -238764.10843794
  -exchange      EXHF   =         0.00000000
  -V(xc)+E(xc)   XCENC  =       261.87559960
  PAW double counting   =     74216.69856262   -72209.17542492
  entropy T*S    EENTRO =         0.12556394
  eigenvalues    EBANDS =      -191.92580753
  atomic energy  EATOM  =     58329.24398462
  Solvation  Ediel_sol  =         0.00000000
  ---------------------------------------------------
  free energy    TOTEN  =      -474.22776455 eV

  energy without entropy =     -474.35332849  energy(sigma->0) =     -474.26961920


--------------------------------------------------------------------------------------------------------




--------------------------------------- Iteration      1(  12)  ---------------------------------------


    POTLOK:  cpu time    0.1696: real time    0.1700
    SETDIJ:  cpu time    0.0148: real time    0.0149
    EDDIAG:  cpu time    4.7260: real time    4.7373
  RMM-DIIS:  cpu time   16.6888: real time   16.7282
    ORTHCH:  cpu time    0.4596: real time    0.4607
       DOS:  cpu time    0.0011: real time    0.0011
    CHARGE:  cpu time    2.1673: real time    2.1724
    MIXING:  cpu time    0.0068: real time    0.0068
    --------------------------------------------
      LOOP:  cpu time   24.2341: real time   24.2916

 eigenvalue-minimisations  :  3860
 total energy-change (2. order) : 0.5877617E+01  (-0.3184677E+00)
 number of electron     800.0000036 magnetization 
 augmentation part      248.1917224 magnetization 

 Broyden mixing:
  rms(total) = 0.18416E+01    rms(broyden)= 0.18416E+01
  rms(prec ) = 0.20279E+01
  weight for this iteration     100.00

 eigenvalues of (default mixing * dielectric matrix)
  average eigenvalue GAMMA=   0.6412
  2.1785  0.5924  0.5924  0.5170  0.2824  0.2273  0.0985

 Free energy of the ion-electron system (eV)
  ---------------------------------------------------
  alpha Z        PSCENC =      2707.43229196
  Ewald energy   TEWEN  =    175175.60590310
  -Hartree energ DENC   =   -238780.72660939
  -exchange      EXHF   =         0.00000000
  -V(xc)+E(xc)   XCENC  =       261.95735031
  PAW double counting   =     74309.00091746   -72301.74721922
  entropy T*S    EENTRO =        -0.13061084
  eigenvalues    EBANDS =      -168.98615556
  atomic energy  EATOM  =     58329.24398462
  Solvation  Ediel_sol  =         0.00000000
  ---------------------------------------------------
  free energy    TOTEN  =      -468.35014756 eV

  energy without entropy =     -468.21953671  energy(sigma->0) =     -468.30661061


--------------------------------------------------------------------------------------------------------




--------------------------------------- Iteration      1(  13)  ---------------------------------------


    POTLOK:  cpu time    0.1703: real time    0.1707
    SETDIJ:  cpu time    0.0149: real time    0.0149
    EDDIAG:  cpu time    4.7400: real time    4.7514
  RMM-DIIS:  cpu time   16.5702: real time   16.6163
    ORTHCH:  cpu time    0.4574: real time    0.4584
       DOS:  cpu time    0.0011: real time    0.0011
    CHARGE:  cpu time    2.1395: real time    2.1453
    MIXING:  cpu time    0.0068: real time    0.0068
    --------------------------------------------
      LOOP:  cpu time   24.1002: real time   24.1649

 eigenvalue-minimisations  :  3863
 total energy-change (2. order) : 0.1878381E+01  (-0.2671608E+00)
 number of electron     800.0000036 magnetization 
 augmentation part      248.0441295 magnetization 

 Broyden mixing:
  rms(total) = 0.10077E+01    rms(broyden)= 0.10077E+01
  rms(prec ) = 0.11867E+01
  weight for this iteration     100.00

 eigenvalues of (default mixing * dielectric matrix)
  average eigenvalue GAMMA=   0.6577
  2.1642  0.6809  0.6809  0.7191  0.3431  0.3431  0.2323  0.0984

 Free energy of the ion-electron system (eV)
  ---------------------------------------------------
  alpha Z        PSCENC =      2707.43229196
  Ewald energy   TEWEN  =    175175.60590310
  -Hartree energ DENC   =   -238801.57083034
  -exchange      EXHF   =         0.00000000
  -V(xc)+E(xc)   XCENC  =       262.11186240
  PAW double counting   =     74279.73123052   -72271.41386104
  entropy T*S    EENTRO =        -0.10760049
  eigenvalues    EBANDS =      -147.50474710
  atomic energy  EATOM  =     58329.24398462
  Solvation  Ediel_sol  =         0.00000000
  ---------------------------------------------------
  free energy    TOTEN  =      -466.47176636 eV

  energy without entropy =     -466.36416587  energy(sigma->0) =     -466.43589953


--------------------------------------------------------------------------------------------------------




--------------------------------------- Iteration      1(  14)  ---------------------------------------


    POTLOK:  cpu time    0.1657: real time    0.1661
    SETDIJ:  cpu time    0.0147: real time    0.0147
    EDDIAG:  cpu time    4.7306: real time    4.7437
  RMM-DIIS:  cpu time   16.5410: real time   16.5860
    ORTHCH:  cpu time    0.4555: real time    0.4566
       DOS:  cpu time    0.0011: real time    0.0011
    CHARGE:  cpu time    2.1647: real time    2.1705
    MIXING:  cpu time    0.0081: real time    0.0081
    --------------------------------------------
      LOOP:  cpu time   24.0813: real time   24.1468

 eigenvalue-minimisations  :  3864
 total energy-change (2. order) :-0.5744229E+00  (-0.1188950E+00)
 number of electron     800.0000036 magnetization 
 augmentation part      247.8712220 magnetization 

 Broyden mixing:
  rms(total) = 0.13323E+01    rms(broyden)= 0.13323E+01
  rms(prec ) = 0.16464E+01
  weight for this iteration     100.00

 eigenvalues of (default mixing * dielectric matrix)
  average eigenvalue GAMMA=   0.6479
  2.0819  0.8853  0.8286  0.8286  0.3485  0.3485  0.2356  0.0983  0.1757

 Free energy of the ion-electron system (eV)
  ---------------------------------------------------
  alpha Z        PSCENC =      2707.43229196
  Ewald energy   TEWEN  =    175175.60590310
  -Hartree energ DENC   =   -238827.85437247
  -exchange      EXHF   =         0.00000000
  -V(xc)+E(xc)   XCENC  =       262.33040433
  PAW double counting   =     74283.70551302   -72274.65452845
  entropy T*S    EENTRO =        -0.05459207
  eigenvalues    EBANDS =      -122.80079325
  atomic energy  EATOM  =     58329.24398462
  Solvation  Ediel_sol  =         0.00000000
  ---------------------------------------------------
  free energy    TOTEN  =      -467.04618921 eV

  energy without entropy =     -466.99159714  energy(sigma->0) =     -467.02799186


--------------------------------------------------------------------------------------------------------




--------------------------------------- Iteration      1(  15)  ---------------------------------------


    POTLOK:  cpu time    0.1663: real time    0.1670
    SETDIJ:  cpu time    0.0151: real time    0.0152
    EDDIAG:  cpu time    4.7337: real time    4.7464
  RMM-DIIS:  cpu time   16.5948: real time   16.6404
    ORTHCH:  cpu time    0.4553: real time    0.4564
       DOS:  cpu time    0.0011: real time    0.0011
    CHARGE:  cpu time    2.1565: real time    2.1626
    MIXING:  cpu time    0.0076: real time    0.0076
    --------------------------------------------
      LOOP:  cpu time   24.1304: real time   24.1967

 eigenvalue-minimisations  :  3866
 total energy-change (2. order) : 0.1592546E+00  (-0.6473409E-01)
 number of electron     800.0000036 magnetization 
 augmentation part      247.6124332 magnetization 

 Broyden mixing:
  rms(total) = 0.12781E+01    rms(broyden)= 0.12781E+01
  rms(prec ) = 0.20003E+01
  weight for this iteration     100.00

 eigenvalues of (default mixing * dielectric matrix)
  average eigenvalue GAMMA=   0.6227
  1.9629  1.0511  1.0511  0.6009  0.4820  0.2940  0.2940  0.2320  0.0984  0.1604

 Free energy of the ion-electron system (eV)
  ---------------------------------------------------
  alpha Z        PSCENC =      2707.43229196
  Ewald energy   TEWEN  =    175175.60590310
  -Hartree energ DENC   =   -238845.29825289
  -exchange      EXHF   =         0.00000000
  -V(xc)+E(xc)   XCENC  =       262.69002723
  PAW double counting   =     74214.27587191   -72203.34946709
  entropy T*S    EENTRO =        -0.14927333
  eigenvalues    EBANDS =      -107.33802010
  atomic energy  EATOM  =     58329.24398462
  Solvation  Ediel_sol  =         0.00000000
  ---------------------------------------------------
  free energy    TOTEN  =      -466.88693459 eV

  energy without entropy =     -466.73766125  energy(sigma->0) =     -466.83717681


--------------------------------------------------------------------------------------------------------




--------------------------------------- Iteration      1(  16)  ---------------------------------------


    POTLOK:  cpu time    0.1690: real time    0.1694
    SETDIJ:  cpu time    0.0150: real time    0.0150
    EDDIAG:  cpu time    4.7289: real time    4.7415
  RMM-DIIS:  cpu time   16.6354: real time   16.6807
    ORTHCH:  cpu time    0.4523: real time    0.4537
       DOS:  cpu time    0.0011: real time    0.0011
    CHARGE:  cpu time    2.1371: real time    2.1430
    MIXING:  cpu time    0.0097: real time    0.0097
    --------------------------------------------
      LOOP:  cpu time   24.1485: real time   24.2141

 eigenvalue-minimisations  :  3863
 total energy-change (2. order) : 0.7725373E+00  (-0.2344556E-01)
 number of electron     800.0000036 magnetization 
 augmentation part      247.6818905 magnetization 

 Broyden mixing:
  rms(total) = 0.66485E+00    rms(broyden)= 0.66485E+00
  rms(prec ) = 0.83649E+00
  weight for this iteration     100.00

 eigenvalues of (default mixing * dielectric matrix)
  average eigenvalue GAMMA=   0.6494
  1.7447  1.4858  1.4858  0.4900  0.4900  0.3566  0.3566  0.2750  0.2117  0.0984
  0.1484

 Free energy of the ion-electron system (eV)
  ---------------------------------------------------
  alpha Z        PSCENC =      2707.43229196
  Ewald energy   TEWEN  =    175175.60590310
  -Hartree energ DENC   =   -238843.35417065
  -exchange      EXHF   =         0.00000000
  -V(xc)+E(xc)   XCENC  =       262.95459488
  PAW double counting   =     74112.52271759   -72099.72292453
  entropy T*S    EENTRO =        -0.12469157
  eigenvalues    EBANDS =      -110.67210267
  atomic energy  EATOM  =     58329.24398462
  Solvation  Ediel_sol  =         0.00000000
  ---------------------------------------------------
  free energy    TOTEN  =      -466.11439727 eV

  energy without entropy =     -465.98970570  energy(sigma->0) =     -466.07283342


--------------------------------------------------------------------------------------------------------




--------------------------------------- Iteration      1(  17)  ---------------------------------------


    POTLOK:  cpu time    0.1704: real time    0.1708
    SETDIJ:  cpu time    0.0148: real time    0.0149
    EDDIAG:  cpu time    4.7529: real time    4.7661
  RMM-DIIS:  cpu time   16.6600: real time   16.7212
    ORTHCH:  cpu time    0.4587: real time    0.4598
       DOS:  cpu time    0.0012: real time    0.0012
    CHARGE:  cpu time    2.1418: real time    2.1469
    MIXING:  cpu time    0.0091: real time    0.0091
    --------------------------------------------
      LOOP:  cpu time   24.2090: real time   24.2900

 eigenvalue-minimisations  :  3869
 total energy-change (2. order) : 0.3827255E-01  (-0.1656460E-01)
 number of electron     800.0000036 magnetization 
 augmentation part      247.6289291 magnetization 

 Broyden mixing:
  rms(total) = 0.63695E+00    rms(broyden)= 0.63695E+00
  rms(prec ) = 0.90300E+00
  weight for this iteration     100.00

 eigenvalues of (default mixing * dielectric matrix)
  average eigenvalue GAMMA=   0.6266
  1.8586  1.4661  1.4661  0.5194  0.4488  0.4488  0.3164  0.3164  0.0984  0.2154
  0.2154  0.1489

 Free energy of the ion-electron system (eV)
  ---------------------------------------------------
  alpha Z        PSCENC =      2707.43229196
  Ewald energy   TEWEN  =    175175.60590310
  -Hartree energ DENC   =   -238851.03367107
  -exchange      EXHF   =         0.00000000
  -V(xc)+E(xc)   XCENC  =       263.23028941
  PAW double counting   =     74052.05723966   -72037.62418630
  entropy T*S    EENTRO =        -0.10600012
  eigenvalues    EBANDS =      -104.88197600
  atomic energy  EATOM  =     58329.24398462
  Solvation  Ediel_sol  =         0.00000000
  ---------------------------------------------------
  free energy    TOTEN  =      -466.07612473 eV

  energy without entropy =     -465.97012461  energy(sigma->0) =     -466.04079135


--------------------------------------------------------------------------------------------------------




--------------------------------------- Iteration      1(  18)  ---------------------------------------


    POTLOK:  cpu time    0.1703: real time    0.1708
    SETDIJ:  cpu time    0.0149: real time    0.0149
    EDDIAG:  cpu time    4.7466: real time    4.7579
  RMM-DIIS:  cpu time   16.7919: real time   16.8315
    ORTHCH:  cpu time    0.4582: real time    0.4593
       DOS:  cpu time    0.0012: real time    0.0012
    CHARGE:  cpu time    2.1396: real time    2.1447
    MIXING:  cpu time    0.0074: real time    0.0074
    --------------------------------------------
      LOOP:  cpu time   24.3301: real time   24.3878

 eigenvalue-minimisations  :  3872
 total energy-change (2. order) : 0.1695940E+00  (-0.4563725E-02)
 number of electron     800.0000036 magnetization 
 augmentation part      247.6224473 magnetization 

 Broyden mixing:
  rms(total) = 0.34390E+00    rms(broyden)= 0.34390E+00
  rms(prec ) = 0.47524E+00
  weight for this iteration     100.00

 eigenvalues of (default mixing * dielectric matrix)
  average eigenvalue GAMMA=   0.6229
  1.9448  1.4429  1.4429  0.5620  0.5620  0.4408  0.4408  0.2953  0.2953  0.2318
  0.0984  0.1945  0.1464

 Free energy of the ion-electron system (eV)
  ---------------------------------------------------
  alpha Z        PSCENC =      2707.43229196
  Ewald energy   TEWEN  =    175175.60590310
  -Hartree energ DENC   =   -238859.86669644
  -exchange      EXHF   =         0.00000000
  -V(xc)+E(xc)   XCENC  =       263.19819067
  PAW double counting   =     74113.08084549   -72099.21469666
  entropy T*S    EENTRO =        -0.11993718
  eigenvalues    EBANDS =       -95.26641625
  atomic energy  EATOM  =     58329.24398462
  Solvation  Ediel_sol  =         0.00000000
  ---------------------------------------------------
  free energy    TOTEN  =      -465.90653069 eV

  energy without entropy =     -465.78659350  energy(sigma->0) =     -465.86655163


--------------------------------------------------------------------------------------------------------




--------------------------------------- Iteration      1(  19)  ---------------------------------------


    POTLOK:  cpu time    0.1678: real time    0.1683
    SETDIJ:  cpu time    0.0146: real time    0.0147
    EDDIAG:  cpu time    4.7317: real time    4.7430
  RMM-DIIS:  cpu time   16.7030: real time   16.7425
    ORTHCH:  cpu time    0.4535: real time    0.4546
       DOS:  cpu time    0.0012: real time    0.0012
    CHARGE:  cpu time    2.1402: real time    2.1453
    MIXING:  cpu time    0.0083: real time    0.0083
    --------------------------------------------
      LOOP:  cpu time   24.2203: real time   24.2777

 eigenvalue-minimisations  :  3883
 total energy-change (2. order) : 0.1749019E-01  (-0.3167433E-02)
 number of electron     800.0000036 magnetization 
 augmentation part      247.6087567 magnetization 

 Broyden mixing:
  rms(total) = 0.24420E+00    rms(broyden)= 0.24420E+00
  rms(prec ) = 0.30761E+00
  weight for this iteration     100.00

 eigenvalues of (default mixing * dielectric matrix)
  average eigenvalue GAMMA=   0.6607
  1.9347  1.5949  1.5949  0.8975  0.8975  0.4365  0.4365  0.3081  0.3081  0.0984
  0.2182  0.2170  0.1611  0.1457

 Free energy of the ion-electron system (eV)
  ---------------------------------------------------
  alpha Z        PSCENC =      2707.43229196
  Ewald energy   TEWEN  =    175175.60590310
  -Hartree energ DENC   =   -238866.18988005
  -exchange      EXHF   =         0.00000000
  -V(xc)+E(xc)   XCENC  =       263.20161236
  PAW double counting   =     74157.10895555   -72143.50305488
  entropy T*S    EENTRO =        -0.12958841
  eigenvalues    EBANDS =       -88.65926476
  atomic energy  EATOM  =     58329.24398462
  Solvation  Ediel_sol  =         0.00000000
  ---------------------------------------------------
  free energy    TOTEN  =      -465.88904050 eV

  energy without entropy =     -465.75945209  energy(sigma->0) =     -465.84584437


--------------------------------------------------------------------------------------------------------




--------------------------------------- Iteration      1(  20)  ---------------------------------------


    POTLOK:  cpu time    0.1691: real time    0.1695
    SETDIJ:  cpu time    0.0149: real time    0.0149
    EDDIAG:  cpu time    4.7248: real time    4.7361
  RMM-DIIS:  cpu time   16.6737: real time   16.7174
    ORTHCH:  cpu time    0.4566: real time    0.4580
       DOS:  cpu time    0.0011: real time    0.0011
    CHARGE:  cpu time    2.1405: real time    2.1463
    MIXING:  cpu time    0.0096: real time    0.0096
    --------------------------------------------
      LOOP:  cpu time   24.1902: real time   24.2529

 eigenvalue-minimisations  :  3873
 total energy-change (2. order) :-0.3552398E-01  (-0.3511769E-02)
 number of electron     800.0000036 magnetization 
 augmentation part      247.5523715 magnetization 

 Broyden mixing:
  rms(total) = 0.35783E+00    rms(broyden)= 0.35783E+00
  rms(prec ) = 0.54927E+00
  weight for this iteration     100.00

 eigenvalues of (default mixing * dielectric matrix)
  average eigenvalue GAMMA=   0.6324
  1.7873  1.7012  1.7012  0.8741  0.8741  0.4288  0.4288  0.3045  0.3045  0.0984
  0.2392  0.2392  0.2066  0.1527  0.1453

 Free energy of the ion-electron system (eV)
  ---------------------------------------------------
  alpha Z        PSCENC =      2707.43229196
  Ewald energy   TEWEN  =    175175.60590310
  -Hartree energ DENC   =   -238875.54765065
  -exchange      EXHF   =         0.00000000
  -V(xc)+E(xc)   XCENC  =       263.34707224
  PAW double counting   =     74191.58259192   -72177.45595250
  entropy T*S    EENTRO =        -0.12605143
  eigenvalues    EBANDS =       -80.00675374
  atomic energy  EATOM  =     58329.24398462
  Solvation  Ediel_sol  =         0.00000000
  ---------------------------------------------------
  free energy    TOTEN  =      -465.92456448 eV

  energy without entropy =     -465.79851305  energy(sigma->0) =     -465.88254734


--------------------------------------------------------------------------------------------------------




--------------------------------------- Iteration      1(  21)  ---------------------------------------


    POTLOK:  cpu time    0.1702: real time    0.1706
    SETDIJ:  cpu time    0.0149: real time    0.0149
    EDDIAG:  cpu time    4.7323: real time    4.7454
  RMM-DIIS:  cpu time   16.6210: real time   16.6667
    ORTHCH:  cpu time    0.4554: real time    0.4565
       DOS:  cpu time    0.0012: real time    0.0012
    CHARGE:  cpu time    2.1353: real time    2.1410
    MIXING:  cpu time    0.0093: real time    0.0093
    --------------------------------------------
      LOOP:  cpu time   24.1394: real time   24.2055

 eigenvalue-minimisations  :  3866
 total energy-change (2. order) : 0.5445751E-01  (-0.9797133E-03)
 number of electron     800.0000036 magnetization 
 augmentation part      247.5466031 magnetization 

 Broyden mixing:
  rms(total) = 0.17179E+00    rms(broyden)= 0.17179E+00
  rms(prec ) = 0.25981E+00
  weight for this iteration     100.00

 eigenvalues of (default mixing * dielectric matrix)
  average eigenvalue GAMMA=   0.6473
  2.1000  1.5867  1.5867  0.8922  0.8922  0.6613  0.4668  0.4668  0.3197  0.3197
  0.0984  0.2363  0.2310  0.2070  0.1488  0.1432

 Free energy of the ion-electron system (eV)
  ---------------------------------------------------
  alpha Z        PSCENC =      2707.43229196
  Ewald energy   TEWEN  =    175175.60590310
  -Hartree energ DENC   =   -238875.99884508
  -exchange      EXHF   =         0.00000000
  -V(xc)+E(xc)   XCENC  =       263.39236328
  PAW double counting   =     74185.81331806   -72171.42317521
  entropy T*S    EENTRO =        -0.12881804
  eigenvalues    EBANDS =       -79.80712968
  atomic energy  EATOM  =     58329.24398462
  Solvation  Ediel_sol  =         0.00000000
  ---------------------------------------------------
  free energy    TOTEN  =      -465.87010697 eV

  energy without entropy =     -465.74128894  energy(sigma->0) =     -465.82716763


--------------------------------------------------------------------------------------------------------




--------------------------------------- Iteration      1(  22)  ---------------------------------------


    POTLOK:  cpu time    0.1707: real time    0.1711
    SETDIJ:  cpu time    0.0149: real time    0.0149
    EDDIAG:  cpu time    4.7302: real time    4.7433
  RMM-DIIS:  cpu time   16.6440: real time   16.6895
    ORTHCH:  cpu time    0.4542: real time    0.4553
       DOS:  cpu time    0.0012: real time    0.0012
    CHARGE:  cpu time    2.1575: real time    2.1633
    MIXING:  cpu time    0.0096: real time    0.0096
    --------------------------------------------
      LOOP:  cpu time   24.1823: real time   24.2483

 eigenvalue-minimisations  :  3862
 total energy-change (2. order) : 0.9653179E-02  (-0.7928192E-03)
 number of electron     800.0000036 magnetization 
 augmentation part      247.5477157 magnetization 

 Broyden mixing:
  rms(total) = 0.12862E+00    rms(broyden)= 0.12862E+00
  rms(prec ) = 0.16002E+00
  weight for this iteration     100.00

 eigenvalues of (default mixing * dielectric matrix)
  average eigenvalue GAMMA=   0.6583
  2.2569  1.6233  1.6233  0.9865  0.9865  0.7607  0.4729  0.4729  0.3559  0.3114
  0.3114  0.0984  0.2243  0.2120  0.2033  0.1483  0.1432

 Free energy of the ion-electron system (eV)
  ---------------------------------------------------
  alpha Z        PSCENC =      2707.43229196
  Ewald energy   TEWEN  =    175175.60590310
  -Hartree energ DENC   =   -238879.01998747
  -exchange      EXHF   =         0.00000000
  -V(xc)+E(xc)   XCENC  =       263.38395176
  PAW double counting   =     74216.70697669   -72202.53434985
  entropy T*S    EENTRO =        -0.13256022
  eigenvalues    EBANDS =       -76.54666438
  atomic energy  EATOM  =     58329.24398462
  Solvation  Ediel_sol  =         0.00000000
  ---------------------------------------------------
  free energy    TOTEN  =      -465.86045379 eV

  energy without entropy =     -465.72789357  energy(sigma->0) =     -465.81626705


--------------------------------------------------------------------------------------------------------




--------------------------------------- Iteration      1(  23)  ---------------------------------------


    POTLOK:  cpu time    0.1718: real time    0.1724
[...]
   -.102E+00 -.357E+00 -.134E+04   0.103E+00 0.316E+00 0.134E+04   0.914E-02 0.632E-03 0.513E+00   -.605E-02 0.447E-01 -.558E-01
   -.782E-01 0.472E+00 0.266E+04   0.802E-01 -.428E+00 -.265E+04   -.555E-02 -.912E-02 -.664E+00   0.984E-02 -.421E-01 0.300E-01
   -.125E+00 -.950E-01 0.265E+04   0.157E+00 0.964E-01 -.265E+04   -.149E-01 0.350E-01 -.662E+00   -.139E-01 -.273E-01 0.313E-01
   -.250E+00 0.508E+00 0.265E+04   0.275E+00 -.506E+00 -.265E+04   0.109E-03 0.601E-03 -.657E+00   -.186E-01 -.771E-02 0.430E-01
   -.201E+00 -.994E-01 0.134E+04   0.191E+00 0.899E-01 -.134E+04   0.356E-02 0.889E-03 -.507E+00   0.186E-01 0.461E-02 -.315E-01
   0.279E-01 -.232E+00 0.134E+04   -.758E-02 0.254E+00 -.134E+04   -.325E-02 0.778E-02 -.520E+00   -.142E-01 -.235E-01 -.659E-02
   0.194E+00 0.249E+00 -.134E+04   -.195E+00 -.267E+00 0.134E+04   0.215E-02 -.137E-01 0.513E+00   -.378E-02 0.225E-01 -.471E-01
   -.179E+00 0.628E-01 0.265E+04   0.210E+00 -.109E+00 -.265E+04   -.231E-01 -.202E-02 -.661E+00   -.870E-02 0.414E-01 0.335E-01
   0.276E+00 -.550E-01 0.134E+04   -.283E+00 0.319E-01 -.134E+04   -.132E-01 0.477E-02 -.508E+00   0.110E-01 0.168E-01 -.219E-01
   0.318E-01 0.938E-01 -.571E+00   -.368E-01 -.130E+00 0.635E+00   -.486E-03 -.405E-02 -.397E-02   0.390E-02 0.358E-01 -.576E-01
   0.101E+00 -.329E-01 -.134E+04   -.832E-01 0.585E-01 0.134E+04   0.531E-02 -.101E-02 0.512E+00   -.260E-01 -.193E-01 -.146E-01
   -.241E+00 -.366E+00 -.134E+04   0.231E+00 0.329E+00 0.134E+04   0.666E-02 0.585E-02 0.523E+00   0.591E-02 0.412E-01 -.409E-01
   -.829E-01 0.361E-01 -.135E+04   0.102E+00 -.622E-01 0.135E+04   0.775E-02 -.549E-02 0.513E+00   -.264E-01 0.303E-01 -.314E-01
   -.422E-02 -.447E+00 0.265E+04   0.209E-01 0.414E+00 -.265E+04   -.134E-02 0.846E-02 -.657E+00   -.933E-02 0.223E-01 0.151E-01
   0.457E+00 0.440E-02 0.265E+04   -.444E+00 -.142E-02 -.265E+04   -.265E-01 0.114E-01 -.662E+00   0.138E-01 -.173E-01 0.287E-01
   0.649E+00 -.465E+00 0.265E+04   -.607E+00 0.406E+00 -.265E+04   -.286E-01 0.301E-01 -.656E+00   -.178E-01 0.332E-01 0.231E-01
   0.157E+00 0.266E-01 0.135E+04   -.175E+00 0.203E-01 -.134E+04   -.180E-02 0.133E-02 -.506E+00   0.216E-01 -.508E-01 -.993E-02
   0.270E+00 0.134E+00 0.104E+01   -.297E+00 -.870E-01 -.101E+01   -.132E-01 -.349E-02 0.712E-02   0.270E-01 -.455E-01 -.378E-01
   0.883E-01 0.339E+00 0.134E+04   -.875E-01 -.309E+00 -.134E+04   -.932E-02 -.299E-02 -.519E+00   0.537E-02 -.331E-01 -.195E-02
   -.661E-01 0.354E-01 0.134E+04   0.469E-01 -.720E-01 -.134E+04   0.758E-03 0.166E-02 -.513E+00   0.251E-01 0.305E-01 -.299E-01
   -.182E+00 0.242E+00 -.134E+04   0.198E+00 -.223E+00 0.134E+04   0.122E-01 -.153E-01 0.524E+00   -.229E-01 -.124E-01 -.263E-01
   0.397E+00 0.735E-01 0.265E+04   -.369E+00 -.514E-01 -.265E+04   -.208E-01 -.877E-03 -.662E+00   -.852E-02 -.259E-01 0.246E-01
   -.141E+00 0.152E+00 0.134E+04   0.120E+00 -.118E+00 -.134E+04   0.253E-02 -.416E-02 -.517E+00   0.274E-01 -.376E-01 -.100E-01
   -.503E-01 -.181E+00 -.443E+00   0.708E-01 0.209E+00 0.473E+00   0.761E-02 -.189E-03 -.303E-02   -.240E-01 -.238E-01 -.257E-01
   -.290E+00 -.138E-02 -.265E+04   0.249E+00 0.425E-01 0.265E+04   0.336E-01 -.100E-01 0.664E+00   0.132E-01 -.311E-01 -.231E-01
   -.227E-01 -.219E+00 -.266E+04   0.904E-02 0.195E+00 0.266E+04   0.232E-01 0.726E-02 0.667E+00   -.714E-02 0.237E-01 -.138E-01
   0.430E+00 0.205E+00 -.265E+04   -.425E+00 -.161E+00 0.265E+04   -.104E-01 -.233E-01 0.665E+00   -.485E-02 -.240E-01 -.239E-01
   -.171E-01 0.385E+00 -.265E+04   -.158E-01 -.380E+00 0.265E+04   0.238E-01 -.289E-01 0.667E+00   0.128E-01 0.156E-01 -.148E-01
   0.343E+00 0.636E-01 -.265E+04   -.323E+00 -.483E-01 0.265E+04   -.223E-01 0.469E-02 0.665E+00   -.153E-01 -.131E-01 -.130E-01
   0.215E+00 -.112E+00 -.265E+04   -.233E+00 0.143E+00 0.265E+04   0.445E-02 0.905E-02 0.658E+00   0.110E-01 -.314E-01 -.762E-02
   0.113E+00 -.122E-01 -.265E+04   -.130E+00 0.403E-01 0.265E+04   0.166E-01 0.381E-02 0.665E+00   -.163E-02 -.223E-01 -.116E-01
   -.694E+00 0.181E-01 -.265E+04   0.658E+00 0.800E-02 0.265E+04   0.313E-01 -.120E-02 0.661E+00   0.907E-02 -.196E-01 -.111E-01
   0.611E+00 -.529E+00 -.265E+04   -.611E+00 0.513E+00 0.265E+04   -.268E-01 0.476E-02 0.664E+00   0.144E-01 0.168E-01 -.315E-01
   -.421E+00 0.796E+00 -.265E+04   0.415E+00 -.743E+00 0.265E+04   0.143E-01 -.381E-01 0.669E+00   -.104E-01 -.204E-01 0.126E-02
   -.966E+00 -.259E+00 -.265E+04   0.934E+00 0.232E+00 0.265E+04   0.545E-01 0.166E-02 0.669E+00   -.118E-01 0.326E-01 -.196E-01
   -.429E-01 0.331E+00 -.265E+04   0.338E-01 -.338E+00 0.265E+04   -.457E-02 -.150E-01 0.668E+00   0.518E-02 0.199E-01 -.107E-02
   0.157E+00 -.310E+00 -.265E+04   -.166E+00 0.294E+00 0.265E+04   0.591E-02 -.163E-01 0.666E+00   -.453E-02 0.316E-01 -.316E-01
   -.142E+00 0.189E+00 -.265E+04   0.132E+00 -.154E+00 0.265E+04   -.443E-03 0.348E-02 0.664E+00   0.268E-02 -.292E-01 0.227E-02
   -.114E+00 0.279E+00 -.134E+04   0.105E+00 -.292E+00 0.134E+04   0.562E-02 -.116E-01 0.521E+00   0.185E-02 0.163E-01 -.282E-01
   0.115E+00 0.109E+00 0.265E+04   -.115E+00 -.135E+00 -.265E+04   0.347E-02 -.125E-01 -.663E+00   0.975E-02 0.261E-01 0.151E-01
   -.276E+00 -.283E-01 -.134E+04   0.266E+00 0.665E-01 0.134E+04   0.104E-01 0.246E-02 0.526E+00   0.369E-02 -.338E-01 -.105E-01
   0.543E+00 -.556E+00 0.265E+04   -.525E+00 0.528E+00 -.265E+04   -.230E-01 0.229E-01 -.665E+00   0.618E-02 0.621E-02 0.701E-02
   -.438E-01 -.249E+00 0.134E+04   0.315E-01 0.206E+00 -.134E+04   -.462E-02 0.109E-01 -.515E+00   0.177E-01 0.397E-01 -.210E-01
   -.171E+00 0.588E-01 0.134E+04   0.203E+00 -.107E+00 -.134E+04   0.554E-03 -.782E-03 -.528E+00   -.267E-01 0.448E-01 -.160E-01
   0.522E-01 -.183E+00 -.134E+04   -.621E-01 0.222E+00 0.134E+04   0.891E-02 -.116E-02 0.518E+00   0.346E-02 -.325E-01 -.258E-01
   -.466E+00 0.678E-01 0.265E+04   0.478E+00 -.943E-01 -.265E+04   -.251E-02 0.103E-02 -.657E+00   -.318E-02 0.189E-01 0.192E-01
   0.128E-01 0.157E+00 0.134E+04   0.646E-02 -.130E+00 -.134E+04   -.261E-02 -.320E-02 -.515E+00   -.149E-01 -.287E-01 0.519E-02
   -.185E+00 0.164E+00 -.266E+04   0.187E+00 -.187E+00 0.266E+04   -.496E-02 -.126E-02 0.666E+00   -.948E-02 0.268E-01 -.689E-03
   0.957E-01 0.322E-01 -.371E+00   -.937E-01 -.792E-01 0.429E+00   0.714E-03 -.281E-02 -.388E-02   -.409E-02 0.475E-01 -.545E-01
   -.124E+00 0.433E-01 -.265E+04   0.107E+00 -.492E-01 0.265E+04   0.108E-01 -.839E-02 0.664E+00   0.363E-02 0.168E-01 -.199E-01
   0.429E+00 -.179E+00 0.134E+04   -.401E+00 0.148E+00 -.134E+04   -.119E-01 0.235E-02 -.522E+00   -.223E-01 0.280E-01 -.305E-01
   -.437E+00 -.369E-01 0.134E+04   0.449E+00 -.200E-02 -.134E+04   0.103E-01 0.107E-02 -.526E+00   -.887E-02 0.357E-01 -.177E-01
   -.380E+00 -.240E-01 0.338E+00   0.376E+00 0.567E-01 -.313E+00   0.971E-02 -.652E-03 0.844E-02   0.521E-02 -.310E-01 -.311E-01
   0.147E+00 -.304E+00 -.134E+04   -.176E+00 0.283E+00 0.134E+04   0.130E-02 0.197E-02 0.517E+00   0.244E-01 0.238E-01 -.542E-01
   0.127E+00 -.235E+00 -.134E+04   -.111E+00 0.180E+00 0.134E+04   0.292E-02 0.639E-03 0.509E+00   -.239E-01 0.591E-01 -.405E-01
   -.750E-01 0.104E+00 0.265E+04   0.815E-01 -.102E+00 -.265E+04   -.175E-01 0.224E-01 -.662E+00   0.133E-01 -.203E-01 0.421E-01
   0.255E+00 0.346E-01 0.265E+04   -.235E+00 -.392E-01 -.265E+04   -.716E-02 0.636E-02 -.657E+00   -.911E-02 -.454E-02 0.336E-01
   0.280E+00 0.136E-01 0.134E+04   -.264E+00 -.645E-02 -.134E+04   -.621E-02 0.807E-02 -.525E+00   -.134E-01 -.125E-01 -.690E-02
   0.323E+00 -.252E+00 0.134E+04   -.302E+00 0.201E+00 -.134E+04   -.641E-02 0.101E-01 -.522E+00   -.167E-01 0.465E-01 -.265E-01
   0.220E+00 0.636E-01 -.152E+01   -.188E+00 -.103E+00 0.158E+01   -.347E-02 -.700E-02 -.108E-01   -.347E-01 0.416E-01 -.495E-01
   -.695E-01 0.160E+00 -.134E+04   0.387E-01 -.171E+00 0.134E+04   0.419E-02 -.439E-02 0.523E+00   0.277E-01 0.120E-01 -.394E-01
   -.230E+00 -.580E+00 0.265E+04   0.222E+00 0.516E+00 -.265E+04   -.206E-02 0.338E-01 -.660E+00   0.159E-01 0.357E-01 0.266E-01
   0.575E-01 0.229E+00 0.120E+01   -.686E-01 -.174E+00 -.118E+01   0.353E-02 -.111E-01 0.726E-02   0.732E-02 -.513E-01 -.270E-01
   -.269E+00 0.667E-01 0.738E-01   0.273E+00 -.446E-01 -.429E-01   0.834E-02 -.468E-02 0.523E-02   -.316E-02 -.201E-01 -.313E-01
   -.135E+00 -.150E+00 0.648E+00   0.101E+00 0.119E+00 -.595E+00   0.536E-03 0.523E-02 0.486E-02   0.343E-01 0.309E-01 -.595E-01
   0.398E+00 0.975E-01 -.451E+00   -.374E+00 -.894E-01 0.482E+00   -.522E-02 -.461E-02 -.108E-02   -.282E-01 -.677E-02 -.280E-01
   0.779E-01 0.169E+00 0.327E+00   -.702E-01 -.126E+00 -.300E+00   -.243E-03 -.115E-01 0.109E-02   -.915E-02 -.390E-01 -.292E-01
   -.168E+00 0.302E+00 0.134E+04   0.193E+00 -.294E+00 -.134E+04   0.192E-02 -.329E-03 -.522E+00   -.201E-01 -.113E-01 0.430E-02
   -.190E+00 -.947E-02 0.170E+01   0.166E+00 0.727E-01 -.168E+01   0.422E-03 -.280E-02 0.688E-02   0.255E-01 -.596E-01 -.328E-01
   -.293E-02 0.300E-01 -.134E+04   -.200E-01 0.242E-01 0.134E+04   0.556E-03 -.195E-02 0.521E+00   0.194E-01 -.502E-01 -.194E-01
   -.300E-02 0.493E+00 -.134E+04   -.209E-02 -.458E+00 0.134E+04   0.824E-03 -.194E-01 0.522E+00   0.437E-03 -.298E-01 -.280E-01
   0.347E+00 -.164E+00 0.266E+04   -.325E+00 0.147E+00 -.265E+04   -.289E-01 0.140E-01 -.663E+00   0.475E-02 0.209E-02 0.166E-01
   0.116E+00 -.346E+00 0.266E+04   -.115E+00 0.362E+00 -.265E+04   -.230E-02 0.236E-01 -.658E+00   0.114E-01 -.383E-01 0.187E-01
   -.345E-01 -.222E+00 -.171E+01   0.666E-01 0.166E+00 0.178E+01   0.511E-02 0.206E-02 -.168E-01   -.336E-01 0.594E-01 -.537E-01
   -.200E+00 -.768E-02 0.103E-01   0.181E+00 -.181E-01 0.376E-01   0.937E-02 -.236E-02 0.759E-02   0.170E-01 0.273E-01 -.493E-01
   -.116E+00 -.164E+00 0.135E+04   0.116E+00 0.206E+00 -.134E+04   -.135E-02 0.877E-02 -.504E+00   0.540E-02 -.454E-01 -.126E-02
   -.716E-02 0.111E+00 0.104E+01   -.200E-01 -.122E+00 -.999E+00   -.208E-03 -.159E-02 0.232E-03   0.244E-01 0.108E-01 -.523E-01
   -.164E+00 -.435E-01 -.435E+00   0.169E+00 0.199E-01 0.485E+00   0.965E-02 -.202E-02 -.183E-02   -.724E-02 0.258E-01 -.487E-01
 -----------------------------------------------------------------------------------------------
   0.152E-01 -.202E-01 0.125E+01   -.395E-12 -.319E-12 0.907E-11   0.273E-01 -.131E-01 0.119E+00   -.705E-03 0.129E-02 -.124E+01
 
 
 POSITION                                       TOTAL-FORCE (eV/Angst)
 -----------------------------------------------------------------------------------
     13.23969      8.17737      7.29756         0.002547     -0.004374      0.006591
      5.09501      8.17753      7.29973        -0.004524     -0.008057      0.000831
      3.73730      5.82569      7.30242         0.003791      0.005019      0.002738
     13.26042      8.16134      0.31667         0.005520     -0.006178     -0.008372
      5.11649      8.15909      0.31839         0.001929      0.009329     -0.008733
      3.75819      5.80963      0.31980         0.005845     -0.005157     -0.003801
      7.82334      1.89673      2.67176         0.011160     -0.003535      0.001117
      9.18116      8.95035      2.67423         0.002026      0.006528     -0.003833
      2.37985      3.47502      7.30252        -0.003899     -0.009433      0.003070
      2.40218      3.45877      0.32098        -0.001518     -0.005869     -0.007617
     10.53902      1.89647      2.67167        -0.010172     -0.001188     -0.001918
     13.24604      5.03787      4.98826        -0.001923     -0.003846      0.000705
      3.73724      1.12315      7.30236        -0.003589      0.005846     -0.000236
      9.16734      5.82558      7.29988         0.001991      0.010008      0.002203
      5.09472      3.47477      7.30382        -0.000528     -0.000906      0.004837
      3.75811      1.10708      0.32026         0.004883     -0.001550     -0.004669
      9.18924      5.80934      0.31864        -0.000496     -0.002328     -0.007885
      5.11690      3.45728      0.32078        -0.005070      0.005240     -0.003296
     11.89577      8.95030      2.67127         0.001849     -0.002008      0.000861
     11.88911      7.38907      4.98503        -0.012817     -0.001869     -0.000191
     13.25379      6.59953      2.67345        -0.003660     -0.005670     -0.007102
      9.18097      4.24783      2.67283         0.005812     -0.004203     -0.001792
      7.80973      8.17759      7.30055         0.003733     -0.007726      0.005815
      7.83157      8.16109      0.32005        -0.001625     -0.003821     -0.010205
     10.53842      6.59955      2.67284         0.008306     -0.007652     -0.002756
      2.38588      0.33508      4.98799         0.003436      0.005056     -0.001251
     14.59079      8.96482      9.65270         0.004819      0.000323      0.009288
      3.73136      4.26147      9.65853         0.001733      0.006319      0.008881
      6.44843      8.96546      9.65475        -0.010543     -0.002559      0.009576
     11.87599      4.26342      9.65478         0.003049     -0.007973      0.011749
      9.16426      8.96349      9.65538        -0.017465      0.006888      0.008619
     10.51980      1.90996      9.65537        -0.002102      0.008339      0.002871
      2.37428      1.91006      9.65665        -0.002256      0.009739      0.006798
     11.87624      8.96408      9.65400         0.004131      0.005422      0.007024
     13.23635      6.61310      9.65453        -0.011636      0.006078      0.009053
      5.08981      1.91220      9.65622        -0.003217     -0.003977      0.010696
      7.80255      6.61306      9.65517         0.010189      0.007729      0.011199
      9.16296      4.26248      9.65384        -0.008401     -0.001646      0.012923
      5.08980      6.61422      9.65684        -0.008142     -0.000467      0.007055
      7.80548      1.91005      9.65301        -0.007578      0.008832      0.010038
      7.80964      3.47489      7.30023        -0.001668     -0.008210      0.004673
      7.82994      3.45980      0.31830         0.012203     -0.010966     -0.007470
      6.45205      1.12299      7.29922         0.003924      0.007211      0.006306
      6.47383      1.10635      0.31857         0.000681      0.001068     -0.011519
     11.89604      4.24766      2.67379         0.000383      0.007538     -0.003689
      3.75118      4.24830      2.67702         0.004593     -0.003466     -0.009184
      1.02204      1.12338      7.30011         0.002022      0.005917      0.004126
      1.04364      1.10731      0.31742         0.005254     -0.005797     -0.004268
      6.46625      8.95072      2.67364         0.000703     -0.004468     -0.003696
      6.44829      4.26165      9.65806        -0.012203      0.002737      0.007607
      7.81623      5.03796      4.98799        -0.001888     -0.002301     -0.002127
     10.51952      6.61352      9.65439        -0.003301      0.002728      0.006954
      5.10887      1.89684      2.67537        -0.007627     -0.000091     -0.006008
      2.39304      1.89691      2.67586         0.012826     -0.001288     -0.009202
     14.60331      7.38885      4.98614         0.010177      0.001388      0.001382
     11.88241      5.82579      7.29988        -0.003547      0.005207     -0.001387
      6.45243      5.82563      7.30299        -0.006201      0.005250     -0.002037
     11.90381      5.80851      0.31838         0.001728      0.004036     -0.004722
      6.47335      5.80965      0.31986         0.002272     -0.002096     -0.003421
      7.82384      6.59885      2.67488        -0.003953      0.003273     -0.006827
      6.46627      4.24782      2.67582        -0.002974      0.006351     -0.002629
      3.74364      2.68673      4.99011        -0.006605     -0.004169     -0.002870
     10.52480      3.47441      7.29929         0.001081     -0.003262      0.004247
     10.54553      3.45693      0.31721         0.005199      0.006117     -0.004781
     10.53070      0.33551      4.98488        -0.000878     -0.007427     -0.001628
      9.17352      7.38912      4.98672         0.008701     -0.002273      0.003261
     10.53095      5.03762      4.98588         0.000876      0.005289     -0.002976
      6.45927      7.38908      4.98791        -0.010508     -0.002802     -0.000202
      5.10097      0.33563      4.98666        -0.002111     -0.006887     -0.003499
      5.10866      6.59928      2.67547         0.005881     -0.003312     -0.005148
      7.81574      0.33538      4.98414         0.001844      0.001261     -0.004917
      9.16754      1.12336      7.29790        -0.003175      0.002208      0.001933
     10.52513      8.17770      7.29894        -0.004026     -0.014195      0.000209
      9.18941      1.10673      0.31596        -0.001990      0.000169     -0.005575
     10.54520      8.15978      0.31597         0.009156      0.001549     -0.001965
      5.10117      5.03768      4.99063         0.002836      0.005206     -0.004974
     11.88795      2.68660      4.98676         0.006861     -0.000611      0.004448
     14.61097      8.94997      2.67086         0.004120      0.006457      0.000459
      9.17307      2.68667      4.98550        -0.003224     -0.002355     -0.007845
      6.45806      2.68664      4.98811         0.006967      0.000311     -0.001919
 -----------------------------------------------------------------------------------
    total drift:                                0.041763     -0.032031      0.135543


--------------------------------------------------------------------------------------------------------



  FREE ENERGIE OF THE ION-ELECTRON SYSTEM (eV)
  ---------------------------------------------------
  free  energy   TOTEN  =      -515.62563752 eV

  energy  without entropy=     -515.52297145  energy(sigma->0) =     -515.59141550
 
 d Force = 0.5296505E-02[ 0.865E-03, 0.973E-02]  d Energy = 0.5340243E-02-0.437E-04
 d Force = 0.4970399E+03[ 0.497E+03, 0.497E+03]  d Ewald  = 0.4970399E+03-0.604E-05


--------------------------------------------------------------------------------------------------------


    POTLOK:  cpu time    0.1895: real time    0.1900


--------------------------------------------------------------------------------------------------------


 Conjugate gradient step on ions:
 trial-energy change:   -0.005340  1 .order   -0.005297   -0.009728   -0.000865
  (g-gl).g = 0.638E-02      g.g   = 0.743E-02  gl.gl    = 0.918E-02
 g(Force)  = 0.743E-02   g(Stress)= 0.000E+00 ortho     = 0.879E-03
 gamma     =   0.69487
 trial     =   1.20982
 opt step  =   1.32422  (harmonic =   1.32793) maximal distance =0.00695360
 next E    =  -515.625678   (d E  =  -0.00538)


--------------------------------------------------------------------------------------------------------


  
 reached required accuracy - stopping structural energy minimisation
     LOOP+:  cpu time  293.2582: real time  293.9608
    4ORBIT:  cpu time    0.0000: real time    0.0000

 total amount of memory used by VASP MPI-rank0   160016. kBytes
=======================================================================

   base      :      30000. kBytes
   nonlr-proj:      34577. kBytes
   fftplans  :      17974. kBytes
   grid      :      25483. kBytes
   one-center:        311. kBytes
   wavefun   :      51671. kBytes
 
  
  
 General timing and accounting informations for this job:
 ========================================================
  
                  Total CPU time used (sec):     2612.197
                            User time (sec):     2609.142
                          System time (sec):        3.055
                         Elapsed time (sec):     2619.742
  
                   Maximum memory used (kb):      564108.
                   Average memory used (kb):           0.
  
                          Minor page faults:       805157
                          Major page faults:            0
                 Voluntary context switches:         5232
