 vasp.5.4.4.18Apr17-6-g9f103f2a35 (build Nov 30 2020 22:55:02) complex          
  
 executed on             LinuxIFC date 2023.09.08  21:37:34
 running on   40 total cores
 distrk:  each k-point on   40 cores,    1 groups
 distr:  one band on NCORES_PER_BAND=   4 cores,   10 groups


--------------------------------------------------------------------------------------------------------


 INCAR:
 POTCAR:    PAW_PBE Pt 04Feb2005                  
 POTCAR:    PAW_PBE Pt 04Feb2005                  
   VRHFIN =Pt: s1d9                                                             
   LEXCH  = PE                                                                  
   EATOM  =   729.1176 eV,   53.5886 Ry                                         
                                                                                
   TITEL  = PAW_PBE Pt 04Feb2005                                                
   LULTRA =        F    use ultrasoft PP ?                                      
   IUNSCR =        1    unscreen: 0-lin 1-nonlin 2-no                           
   RPACOR =    2.330    partial core radius                                     
   POMASS =  195.080; ZVAL   =   10.000    mass and valenz                      
   RCORE  =    2.600    outmost cutoff radius                                   
   RWIGS  =    2.750; RWIGS  =    1.455    wigner-seitz radius (au A)           
   ENMAX  =  230.283; ENMIN  =  172.712 eV                                      
   ICORE  =        3    local potential                                         
   LCOR   =        T    correct aug charges                                     
   LPAW   =        T    paw PP                                                  
   EAUG   =  358.966                                                            
   DEXC   =    0.000                                                            
   RMAX   =    2.658    core radius for proj-oper                               
   RAUG   =    1.300    factor for augmentation sphere                          
   RDEP   =    2.761    radius for radial grids                                 
   RDEPT  =    2.203    core radius for aug-charge                              
                                                                                
   Atomic configuration                                                         
   16 entries                                                                   
     n  l   j            E        occ.                                          
     1  0  0.50    -78401.1885   2.0000                                         
     2  0  0.50    -13770.7750   2.0000                                         
     2  1  1.50    -11931.0468   6.0000                                         
     3  0  0.50     -3234.7234   2.0000                                         
     3  1  1.50     -2699.2216   6.0000                                         
     3  2  2.50     -2119.5714  10.0000                                         
     4  0  0.50      -695.1528   2.0000                                         
     4  1  1.50      -519.6034   6.0000                                         
     4  2  2.50      -306.6786  10.0000                                         
     4  3  3.50       -70.1041  14.0000                                         
     5  0  0.50      -101.7747   2.0000                                         
     5  1  1.50       -55.9873   6.0000                                         
     5  2  2.50        -6.1423   9.0000                                         
     6  0  0.50        -5.6573   1.0000                                         
     6  1  1.50        -6.8029   0.0000                                         
     5  3  2.50        -1.3606   0.0000                                         
   Description                                                                  
     l       E           TYP  RCUT    TYP  RCUT                                 
     2     -6.1423404     23  2.500                                             
     2     -7.5029230     23  2.500                                             
     0     -5.6573207     23  2.500                                             
     0      0.7416693     23  2.500                                             
     1     -2.7211652     23  2.600                                             
     1     20.4087390     23  2.600                                             
     3     -1.3605826     23  2.500                                             
  local pseudopotential read in
  partial core-charges read in
  partial kinetic energy density read in
  atomic valenz-charges read in
  non local Contribution for L=           2  read in
    real space projection operators read in
  non local Contribution for L=           2  read in
    real space projection operators read in
  non local Contribution for L=           0  read in
    real space projection operators read in
  non local Contribution for L=           0  read in
    real space projection operators read in
  non local Contribution for L=           1  read in
    real space projection operators read in
  non local Contribution for L=           1  read in
    real space projection operators read in
    PAW grid and wavefunctions read in
 
   number of l-projection  operators is LMAX  =           6
   number of lm-projection operators is LMMAX =          18
 
 Optimization of the real space projectors (new method)

 maximal supplied QI-value         = 14.36
 optimisation between [QCUT,QGAM] = [ 11.92, 23.98] = [ 39.79,161.09] Ry 
 Optimized for a Real-space Cutoff    1.49 Angstroem

   l    n(q)    QCUT    max X(q) W(low)/X(q) W(high)/X(q)  e(spline) 
   2     10    11.920    66.195    0.79E-04    0.18E-03    0.24E-06
   2     10    11.920    64.643    0.81E-04    0.19E-03    0.24E-06
   0     11    11.920    95.520    0.28E-04    0.54E-04    0.18E-06
   0     11    11.920    63.403    0.27E-04    0.52E-04    0.17E-06
   1     10    11.920    19.961    0.18E-04    0.11E-03    0.23E-06
   1     10    11.920    13.289    0.25E-04    0.87E-04    0.19E-06
  PAW_PBE Pt 04Feb2005                  :
 energy of atom  1       EATOM= -729.1176
 kinetic energy error for atom=    0.0021 (will be added to EATOM!!)
 
 
 POSCAR: Pt111                                   
  positions in direct lattice
  velocities in cartesian coordinates
 exchange correlation table for  LEXCH =        8
   RHO(1)=    0.500       N(1)  =     2000
   RHO(2)=  100.500       N(2)  =     4000
 


--------------------------------------------------------------------------------------------------------


 ion  position               nearest neighbor table
   1  0.784  0.870  0.335-  72 2.64   2 2.64  73 2.64  56 2.64   3 2.64  43 2.64  71 2.84  20 2.84
                            55 2.84  27 2.88  35 2.88  34 2.88
   2  0.034  0.870  0.336-  47 2.64  57 2.64  23 2.64   1 2.64  72 2.64   3 2.64  55 2.84  65 2.84
                            68 2.84  29 2.88  27 2.88  39 2.88
   3  0.034  0.619  0.336-  15 2.64   9 2.64  57 2.64  56 2.64   1 2.64   2 2.64  12 2.84  55 2.84
                            76 2.84  39 2.88  35 2.88  28 2.88
   4  0.788  0.868  0.007-  44 2.64  74 2.64   5 2.64  75 2.64  58 2.64   6 2.64  78 2.88  21 2.88
                            19 2.89
   5  0.038  0.867  0.007-   4 2.64   6 2.64  48 2.64  24 2.64  74 2.64  59 2.64  49 2.88  70 2.88
                            78 2.88
   6  0.038  0.617  0.007-  58 2.64   5 2.64  59 2.64  10 2.64  18 2.64   4 2.64  46 2.88  70 2.88
                            21 2.88
   7  0.620  0.202  0.118-  61 2.64  19 2.64  53 2.64  11 2.64  78 2.64  22 2.64  71 2.84  79 2.84
                            80 2.85  42 2.87  44 2.87  74 2.89
   8  0.370  0.951  0.118-  60 2.64  25 2.64  19 2.64  53 2.64  49 2.64  54 2.64  66 2.83  69 2.84
                            26 2.85  16 2.87  24 2.88  75 2.89
   9  0.034  0.370  0.336-  56 2.64   3 2.64  47 2.64  63 2.64  15 2.64  13 2.64  12 2.84  77 2.84
                            62 2.84  33 2.88  30 2.88  28 2.88
  10  0.038  0.367  0.007-  64 2.64  58 2.64  18 2.64  16 2.64   6 2.64  48 2.64  54 2.87  46 2.88
                            45 2.88
  11  0.870  0.201  0.118-  54 2.64  78 2.64  49 2.64  22 2.64   7 2.64  45 2.64  65 2.84  77 2.84
                            79 2.84  64 2.87  74 2.88  48 2.88
  12  0.952  0.536  0.227-  62 2.64  76 2.64  67 2.64  20 2.64  55 2.64  77 2.64   3 2.84  45 2.84
                             9 2.84  21 2.84  46 2.84  56 2.84
  13  0.284  0.120  0.336-  47 2.64  23 2.64  15 2.64  73 2.64  43 2.64   9 2.64  62 2.84  26 2.84
                            69 2.85  31 2.88  36 2.88  33 2.88
  14  0.534  0.620  0.336-  63 2.64  23 2.64  41 2.64  57 2.64  56 2.64  73 2.64  51 2.84  66 2.84
                            67 2.85  52 2.87  38 2.88  37 2.88
  15  0.284  0.370  0.336-   3 2.64  57 2.64  13 2.64  43 2.64   9 2.64  41 2.64  76 2.84  62 2.84
                            80 2.85  50 2.88  36 2.88  28 2.88
  16  0.288  0.117  0.007-  24 2.64  75 2.64  10 2.64  48 2.64  18 2.64  44 2.64   8 2.87  53 2.88
                            54 2.88
  17  0.538  0.617  0.007-  75 2.64  64 2.64  58 2.64  42 2.64  24 2.64  59 2.64  22 2.87  25 2.88
                            60 2.89
  18  0.288  0.367  0.007-  44 2.64  10 2.64  42 2.64  59 2.64  16 2.64   6 2.64  53 2.87  61 2.87
                            46 2.88
  19  0.620  0.952  0.118-  53 2.64  25 2.64   7 2.64   8 2.64  78 2.64  21 2.64  20 2.84  71 2.84
                            69 2.85  44 2.87  75 2.88   4 2.89
  20  0.702  0.786  0.226-  55 2.64  12 2.64  71 2.64  67 2.64  66 2.64  69 2.64  19 2.84  25 2.84
                             1 2.84  56 2.84  21 2.84  73 2.85
  21  0.870  0.702  0.118-  78 2.64  70 2.64  25 2.64  46 2.64  19 2.64  45 2.64  55 2.84  12 2.84
                            20 2.84  58 2.88   4 2.88   6 2.88
  22  0.620  0.452  0.118-  60 2.64  61 2.64  45 2.64  11 2.64  25 2.64   7 2.64  79 2.83  67 2.84
                            51 2.85  17 2.87  42 2.88  64 2.88
  23  0.284  0.870  0.336-  14 2.64  13 2.64   2 2.64  47 2.64  73 2.64  57 2.64  68 2.84  26 2.84
                            66 2.85  31 2.88  37 2.88  29 2.88
  24  0.288  0.867  0.007-  16 2.64  59 2.64   5 2.64  48 2.64  75 2.64  17 2.64  60 2.88   8 2.88
                            49 2.89
  25  0.620  0.702  0.118-  19 2.64  60 2.64  21 2.64   8 2.64  45 2.64  22 2.64  20 2.84  67 2.84
                            66 2.85  75 2.87  17 2.88  58 2.88
  26  0.202  0.036  0.227-  62 2.64  77 2.64  69 2.64  65 2.64  68 2.64  66 2.64  54 2.83  23 2.84
                            49 2.84  13 2.84  47 2.84   8 2.85
  27  0.867  0.953  0.446-  32 2.64  29 2.64  35 2.64  34 2.64  39 2.64  40 2.64   1 2.88   2 2.88
                            72 2.88
  28  0.117  0.453  0.447-  36 2.64  30 2.64  35 2.64  33 2.64  50 2.64  39 2.64   9 2.88   3 2.88
                            15 2.88
  29  0.117  0.953  0.447-  33 2.64  37 2.64  31 2.64  27 2.64  32 2.64  39 2.64   2 2.88  47 2.88
                            23 2.88
  30  0.867  0.453  0.447-  28 2.64  52 2.64  38 2.64  35 2.64  32 2.64  33 2.64   9 2.88  56 2.88
                            63 2.88
  31  0.367  0.953  0.447-  52 2.64  34 2.64  29 2.64  36 2.64  33 2.64  37 2.64  13 2.88  23 2.88
                            73 2.89
  32  0.867  0.203  0.446-  33 2.64  27 2.64  30 2.64  40 2.64  29 2.64  38 2.64  63 2.87  72 2.88
                            47 2.88
  33  0.117  0.203  0.447-  29 2.64  32 2.64  28 2.64  36 2.64  30 2.64  31 2.64   9 2.88  47 2.88
                            13 2.88
  34  0.617  0.953  0.446-  31 2.64  52 2.64  40 2.64  27 2.64  35 2.64  36 2.64  43 2.87  73 2.88
                             1 2.88
  35  0.867  0.703  0.447-  39 2.64  28 2.64  30 2.64  27 2.64  34 2.64  52 2.64  56 2.88   3 2.88
                             1 2.88
  36  0.367  0.203  0.447-  28 2.64  50 2.64  33 2.64  31 2.64  40 2.64  34 2.64  15 2.88  13 2.88
                            43 2.89
  37  0.367  0.703  0.447-  38 2.64  39 2.64  50 2.64  29 2.64  52 2.64  31 2.64  57 2.88  23 2.88
                            14 2.88
  38  0.617  0.453  0.447-  37 2.64  52 2.64  30 2.64  40 2.64  32 2.64  50 2.64  14 2.88  41 2.88
                            63 2.88
  39  0.117  0.703  0.447-  35 2.64  50 2.64  37 2.64  27 2.64  28 2.64  29 2.64   3 2.88   2 2.88
                            57 2.88
  40  0.617  0.203  0.446-  38 2.64  50 2.64  32 2.64  34 2.64  27 2.64  36 2.64  41 2.88  43 2.88
                            72 2.88
  41  0.534  0.370  0.336-  57 2.64  43 2.64  14 2.64  63 2.64  15 2.64  72 2.64  51 2.83  80 2.84
                            79 2.85  40 2.88  38 2.88  50 2.89
  42  0.538  0.367  0.007-  74 2.64  59 2.64  64 2.64  17 2.64  18 2.64  44 2.64   7 2.87  22 2.88
                            61 2.89
  43  0.534  0.120  0.336-  73 2.64  15 2.64  41 2.64  13 2.64  72 2.64   1 2.64  80 2.83  69 2.84
                            71 2.85  34 2.87  40 2.88  36 2.89
  44  0.538  0.117  0.007-   4 2.64  18 2.64  75 2.64  74 2.64  42 2.64  16 2.64  19 2.87   7 2.87
                            53 2.89
  45  0.870  0.452  0.118-  54 2.64  46 2.64  22 2.64  25 2.64  11 2.64  21 2.64  77 2.83  12 2.84
                            67 2.84  58 2.88  64 2.88  10 2.88
  46  0.120  0.452  0.118-  45 2.64  21 2.64  70 2.64  53 2.64  54 2.64  61 2.64  62 2.84  76 2.84
                            12 2.84   6 2.88  10 2.88  18 2.88
  47  0.034  0.120  0.336-  13 2.64   2 2.64   9 2.64  23 2.64  72 2.64  63 2.64  77 2.84  65 2.84
                            26 2.84  29 2.88  32 2.88  33 2.88
  48  0.037  0.117  0.007-  74 2.64  64 2.64   5 2.64  24 2.64  16 2.64  10 2.64  49 2.87  54 2.88
                            11 2.88
  49  0.120  0.952  0.118-  70 2.64  78 2.64  11 2.64  54 2.64   8 2.64  60 2.64  68 2.84  26 2.84
                            65 2.84  48 2.87   5 2.88  24 2.89
  50  0.367  0.453  0.447-  39 2.64  36 2.64  37 2.64  40 2.64  28 2.64  38 2.64  15 2.88  57 2.88
                            41 2.89
  51  0.452  0.536  0.227-  68 2.64  76 2.64  80 2.64  79 2.64  66 2.64  67 2.64  41 2.83  61 2.84
                            14 2.84  60 2.84  57 2.85  22 2.85
  52  0.617  0.703  0.446-  31 2.64  30 2.64  38 2.64  34 2.64  37 2.64  35 2.64  14 2.87  73 2.88
                            56 2.88
  53  0.370  0.201  0.118-  19 2.64   7 2.64   8 2.64  46 2.64  61 2.64  54 2.64  69 2.83  80 2.84
                            62 2.85  18 2.87  16 2.88  44 2.89
  54  0.119  0.202  0.118-  45 2.64  11 2.64  49 2.64  46 2.64   8 2.64  53 2.64  26 2.83  62 2.84
                            77 2.84  10 2.87  48 2.88  16 2.88
  55  0.952  0.786  0.227-  68 2.64  76 2.64  65 2.64  20 2.64  12 2.64  71 2.64   2 2.84  78 2.84
                            21 2.84  70 2.84   3 2.84   1 2.84
  56  0.784  0.620  0.336-   9 2.64  63 2.64   3 2.64  14 2.64   1 2.64  73 2.64  67 2.84  20 2.84
                            12 2.84  35 2.88  30 2.88  52 2.88
  57  0.284  0.620  0.336-  41 2.64  15 2.64   3 2.64   2 2.64  14 2.64  23 2.64  76 2.84  68 2.84
                            51 2.85  37 2.88  50 2.88  39 2.88
  58  0.788  0.617  0.007-   6 2.64  10 2.64  17 2.64   4 2.64  75 2.64  64 2.64  21 2.88  45 2.88
                            25 2.88
  59  0.288  0.617  0.007-  24 2.64  42 2.64   6 2.64   5 2.64  18 2.64  17 2.64  60 2.87  61 2.87
                            70 2.88
  60  0.370  0.702  0.118-   8 2.64  25 2.64  22 2.64  61 2.64  49 2.64  70 2.64  66 2.83  51 2.84
                            68 2.85  59 2.87  24 2.88  17 2.89
  61  0.370  0.452  0.118-   7 2.64  22 2.64  60 2.64  53 2.64  46 2.64  70 2.64  80 2.83  51 2.84
                            76 2.85  59 2.87  18 2.87  42 2.89
  62  0.202  0.286  0.227-  12 2.64  26 2.64  77 2.64  69 2.64  76 2.64  80 2.64  46 2.84  13 2.84
                            15 2.84  54 2.84   9 2.84  53 2.85
  63  0.784  0.370  0.336-  14 2.64  56 2.64   9 2.64  41 2.64  72 2.64  47 2.64  67 2.83  79 2.84
                            77 2.84  32 2.87  30 2.88  38 2.88
  64  0.788  0.367  0.007-  48 2.64  74 2.64  10 2.64  17 2.64  42 2.64  58 2.64  11 2.87  45 2.88
                            22 2.88
  65  0.952  0.036  0.227-  79 2.64  71 2.64  55 2.64  77 2.64  68 2.64  26 2.64  11 2.84  47 2.84
                             2 2.84  78 2.84  72 2.84  49 2.84
  66  0.452  0.786  0.227-  69 2.64  20 2.64  68 2.64  67 2.64  51 2.64  26 2.64   8 2.83  60 2.83
                            73 2.84  14 2.84  25 2.85  23 2.85
  67  0.702  0.536  0.227-  77 2.64  12 2.64  20 2.64  66 2.64  79 2.64  51 2.64  63 2.83  56 2.84
                            25 2.84  22 2.84  45 2.84  14 2.85
  68  0.202  0.786  0.227-  55 2.64  65 2.64  51 2.64  76 2.64  26 2.64  66 2.64  70 2.84  23 2.84
                            49 2.84  57 2.84   2 2.84  60 2.85
  69  0.452  0.036  0.227-  80 2.64  66 2.64  26 2.64  62 2.64  71 2.64  20 2.64  53 2.83  73 2.83
                            43 2.84   8 2.84  13 2.85  19 2.85
  70  0.120  0.702  0.118-  49 2.64  21 2.64  78 2.64  46 2.64  60 2.64  61 2.64  68 2.84  76 2.84
                            55 2.84   6 2.88   5 2.88  59 2.88
  71  0.702  0.036  0.226-  79 2.64  65 2.64  20 2.64  80 2.64  55 2.64  69 2.64  72 2.84   7 2.84
                             1 2.84  19 2.84  78 2.84  43 2.85
  72  0.784  0.120  0.335-   1 2.64  43 2.64  47 2.64  63 2.64  41 2.64   2 2.64  79 2.84  71 2.84
                            65 2.84  32 2.88  27 2.88  40 2.88
  73  0.534  0.870  0.335-  43 2.64  13 2.64  23 2.64   1 2.64  56 2.64  14 2.64  69 2.83  66 2.84
                            20 2.85  34 2.88  52 2.88  31 2.89
  74  0.788  0.117  0.006-  48 2.64   4 2.64  64 2.64  42 2.64  44 2.64   5 2.64  78 2.88  11 2.88
                             7 2.89
  75  0.538  0.867  0.007-  16 2.64  17 2.64  44 2.64   4 2.64  24 2.64  58 2.64  25 2.87  19 2.88
                             8 2.89
  76  0.202  0.536  0.227-  12 2.64  55 2.64  80 2.64  62 2.64  51 2.64  68 2.64  57 2.84  46 2.84
                            15 2.84  70 2.84   3 2.84  61 2.85
  77  0.952  0.286  0.227-  62 2.64  26 2.64  67 2.64  79 2.64  65 2.64  12 2.64  45 2.83  47 2.84
                            11 2.84   9 2.84  54 2.84  63 2.84
  78  0.870  0.952  0.118-  21 2.64  49 2.64  11 2.64  70 2.64  19 2.64   7 2.64  55 2.84  65 2.84
                            71 2.84  74 2.88   4 2.88   5 2.88
  79  0.702  0.286  0.226-  71 2.64  65 2.64  77 2.64  51 2.64  80 2.64  67 2.64  22 2.83  72 2.84
                             7 2.84  63 2.84  11 2.84  41 2.85
  80  0.452  0.286  0.227-  69 2.64  76 2.64  51 2.64  71 2.64  62 2.64  79 2.64  61 2.83  43 2.83
                            53 2.84  41 2.84  15 2.85   7 2.85
 
  LATTYP: Found a hexagonal cell.
 ALAT       =    10.5600002128
 C/A-ratio  =     2.0833332913
  
  Lattice vectors:
  
 A1 = (   5.2799997962,  -9.1452286274,   0.0000000000)
 A2 = ( -10.5600000060,   0.0000000000,   0.0000000000)
 A3 = (   0.0000000000,   0.0000000000, -22.0000000000)


Analysis of symmetry for initial positions (statically):
=====================================================================
 Subroutine PRICEL returns:
 Original cell was already a primitive cell.
 

 Routine SETGRP: Setting up the symmetry group for a 
 hexagonal supercell.


 Subroutine GETGRP returns: Found  1 space group operations
 (whereof  1 operations were pure point group operations)
 out of a pool of 24 trial point group operations.


The static configuration has the point symmetry C_1 .


Analysis of symmetry for dynamics (positions and initial velocities):
=====================================================================
 Subroutine PRICEL returns:
 Original cell was already a primitive cell.
 

 Routine SETGRP: Setting up the symmetry group for a 
 hexagonal supercell.


 Subroutine GETGRP returns: Found  1 space group operations
 (whereof  1 operations were pure point group operations)
 out of a pool of 24 trial point group operations.


The dynamic configuration has the point symmetry C_1 .


 Subroutine INISYM returns: Found  1 space group operations
 (whereof  1 operations are pure point group operations),
 and found     1 'primitive' translations

 
 
 KPOINTS: mesh auto                               

Automatic generation of k-mesh.
Space group operators:
 irot       det(A)        alpha          n_x          n_y          n_z        tau_x        tau_y        tau_z
    1     1.000000     0.000001     1.000000     0.000000     0.000000     0.000000     0.000000     0.000000
 
 Subroutine IBZKPT returns following result:
 ===========================================
 
 Found      4 irreducible k-points:
 
 Following reciprocal coordinates:
            Coordinates               Weight
  0.000000  0.000000  0.000000      1.000000
  0.500000  0.000000  0.000000      1.000000
  0.000000  0.500000  0.000000      1.000000
  0.500000  0.500000  0.000000      1.000000
 
 Following cartesian coordinates:
            Coordinates               Weight
  0.000000  0.000000  0.000000      1.000000
  0.047348 -0.027337  0.000000      1.000000
  0.000000  0.054673  0.000000      1.000000
  0.047348  0.027337  0.000000      1.000000
 


--------------------------------------------------------------------------------------------------------




 Dimension of arrays:
   k-points           NKPTS =      4   k-points in BZ     NKDIM =      4   number of bands    NBANDS=    480
   number of dos      NEDOS =    301   number of ions     NIONS =     80
   non local maximal  LDIM  =      6   non local SUM 2l+1 LMDIM =     18
   total plane-waves  NPLWV = ******
   max r-space proj   IRMAX =   7802   max aug-charges    IRDMAX=  33988
   dimension x,y,z NGX =    84 NGY =   84 NGZ =  168
   dimension x,y,z NGXF=   168 NGYF=  168 NGZF=  336
   support grid    NGXF=   168 NGYF=  168 NGZF=  336
   ions per type =              80
   NGX,Y,Z   is equivalent  to a cutoff of  13.22, 13.22, 12.70 a.u.
   NGXF,Y,Z  is equivalent  to a cutoff of  26.45, 26.45, 25.39 a.u.

 SYSTEM =  Pt111                                   
 POSCAR =  Pt111                                   

 Startparameter for this run:
   NWRITE =      2    write-flag & timer
   PREC   = accura    normal or accurate (medium, high low for compatibility)
   ISTART =      0    job   : 0-new  1-cont  2-samecut
   ICHARG =      2    charge: 1-file 2-atom 10-const
   ISPIN  =      1    spin polarized calculation?
   LNONCOLLINEAR =      F non collinear calculations
   LSORBIT =      F    spin-orbit coupling
   INIWAV =      1    electr: 0-lowe 1-rand  2-diag
   LASPH  =      F    aspherical Exc in radial PAW
   METAGGA=      F    non-selfconsistent MetaGGA calc.

 Electronic Relaxation 1
   ENCUT  =  550.0 eV  40.42 Ry    6.36 a.u.  20.19 20.19 42.07*2*pi/ulx,y,z
   ENINI  =  550.0     initial cutoff
   ENAUG  =  359.0 eV  augmentation charge cutoff
   NELM   =    200;   NELMIN=  2; NELMDL= -5     # of ELM steps 
   EDIFF  = 0.1E-04   stopping-criterion for ELM
   LREAL  =      T    real-space projection
   NLSPLINE    = F    spline interpolate recip. space projectors
   LCOMPAT=      F    compatible to vasp.4.4
   GGA_COMPAT  = T    GGA compatible to vasp.4.4-vasp.4.6
   LMAXPAW     = -100 max onsite density
   LMAXMIX     =    2 max onsite mixed and CHGCAR
   VOSKOWN=      0    Vosko Wilk Nusair interpolation
   ROPT   =   -0.00025
 Ionic relaxation
   EDIFFG = -.5E-01   stopping-criterion for IOM
   NSW    =    300    number of steps for IOM
   NBLOCK =      1;   KBLOCK =    300    inner block; outer block 
   IBRION =      2    ionic relax: 0-MD 1-quasi-New 2-CG
   NFREE  =      1    steps in history (QN), initial steepest desc. (CG)
   ISIF   =      2    stress and relaxation
   IWAVPR =     11    prediction:  0-non 1-charg 2-wave 3-comb
   ISYM   =      2    0-nonsym 1-usesym 2-fastsym
   LCORR  =      T    Harris-Foulkes like correction to forces

   POTIM  = 0.5000    time-step for ionic-motion
   TEIN   =    0.0    initial temperature
   TEBEG  =    0.0;   TEEND  =   0.0 temperature during run
   SMASS  =  -3.00    Nose mass-parameter (am)
   estimated Nose-frequenzy (Omega)   =  0.10E-29 period in steps =****** mass=  -0.255E-26a.u.
   SCALEE = 1.0000    scale energy and forces
   NPACO  =    256;   APACO  = 16.0  distance and # of slots for P.C.
   PSTRESS=    0.0 pullay stress

  Mass of Ions in am
   POMASS = 195.08
  Ionic Valenz
   ZVAL   =  10.00
  Atomic Wigner-Seitz radii
   RWIGS  =  -1.00
  virtual crystal weights 
   VCA    =   1.00
   NELECT =     800.0000    total number of electrons
   NUPDOWN=      -1.0000    fix difference up-down

 DOS related values:
   EMIN   =  10.00;   EMAX   =-10.00  energy-range for DOS
   EFERMI =   0.00
   ISMEAR =     1;   SIGMA  =   0.10  broadening in eV -4-tet -1-fermi 0-gaus

 Electronic relaxation 2 (details)
   IALGO  =     68    algorithm
   LDIAG  =      T    sub-space diagonalisation (order eigenvalues)
   LSUBROT=      F    optimize rotation matrix (better conditioning)
   TURBO    =      0    0=normal 1=particle mesh
   IRESTART =      0    0=no restart 2=restart with 2 vectors
   NREBOOT  =      0    no. of reboots
   NMIN     =      0    reboot dimension
   EREF     =   0.00    reference energy to select bands
   IMIX   =      4    mixing-type and parameters
     AMIX     =   0.40;   BMIX     =  1.00
     AMIX_MAG =   1.60;   BMIX_MAG =  1.00
     AMIN     =   0.10
     WC   =   100.;   INIMIX=   1;  MIXPRE=   1;  MAXMIX= -45

 Intra band minimization:
   WEIMIN = 0.0010     energy-eigenvalue tresh-hold
   EBREAK =  0.52E-08  absolut break condition
   DEPER  =   0.30     relativ break condition  

   TIME   =   0.40     timestep for ELM

  volume/ion in A,a.u.               =      26.56       179.22
  Fermi-wavevector in a.u.,A,eV,Ry     =   1.182164  2.233966 19.014305  1.397512
  Thomas-Fermi vector in A             =   2.318424
 
 Write flags
   LWAVE        =      F    write WAVECAR
   LDOWNSAMPLE  =      F    k-point downsampling of WAVECAR
   LCHARG       =      F    write CHGCAR
   LVTOT        =      F    write LOCPOT, total local potential
   LVHAR        =      F    write LOCPOT, Hartree potential only
   LELF         =      F    write electronic localiz. function (ELF)
   LORBIT       =      0    0 simple, 1 ext, 2 COOP (PROOUT), +10 PAW based schemes


 Dipole corrections
   LMONO  =      F    monopole corrections only (constant potential shift)
   LDIPOL =      F    correct potential (dipole corrections)
   IDIPOL =      0    1-x, 2-y, 3-z, 4-all directions 
   EPSILON=  1.0000000 bulk dielectric constant

 Exchange correlation treatment:
   GGA     =    --    GGA type
   LEXCH   =     8    internal setting for exchange type
   VOSKOWN=      0    Vosko Wilk Nusair interpolation
   LHFCALC =     F    Hartree Fock is set to
   LHFONE  =     F    Hartree Fock one center treatment
   AEXX    =    0.0000 exact exchange contribution

 Linear response parameters
   LEPSILON=     F    determine dielectric tensor
   LRPA    =     F    only Hartree local field effects (RPA)
   LNABLA  =     F    use nabla operator in PAW spheres
   LVEL    =     F    velocity operator in full k-point grid
   LINTERFAST=   F  fast interpolation
   KINTER  =     0    interpolate to denser k-point grid
   CSHIFT  =0.1000    complex shift for real part using Kramers Kronig
   OMEGAMAX=  -1.0    maximum frequency
   DEG_THRESHOLD= 0.2000000E-02 threshold for treating states as degnerate
   RTIME   =   -0.100 relaxation time in fs
  (WPLASMAI=    0.000 imaginary part of plasma frequency in eV, 0.658/RTIME)
   DFIELD  = 0.0000000 0.0000000 0.0000000 field for delta impulse in time
 
 Orbital magnetization related:
   ORBITALMAG=     F  switch on orbital magnetization
   LCHIMAG   =     F  perturbation theory with respect to B field
   DQ        =  0.001000  dq finite difference perturbation B field
   LLRAUG    =     F  two centre corrections for induced B field



--------------------------------------------------------------------------------------------------------


 conjugate gradient relaxation of ions
 charge density and potential will be updated during run
 non-spin polarized calculation
 RMM-DIIS sequential band-by-band and
  variant of blocked Davidson during initial phase
 perform sub-space diagonalisation
    before iterative eigenvector-optimisation
 modified Broyden-mixing scheme, WC =      100.0
 initial mixing is a Kerker type mixing with AMIX =  0.4000 and BMIX =      1.0000
 Hartree-type preconditioning will be used
 using additional bands           80
 real space projection scheme for non local part
 use partial core corrections
 calculate Harris-corrections to forces 
   (improved forces if not selfconsistent)
 use gradient corrections 
 use of overlap-Matrix (Vanderbilt PP)
 Methfessel and Paxton  Order N= 1 SIGMA  =   0.10


--------------------------------------------------------------------------------------------------------


  energy-cutoff  :      550.00
  volume of cell :     2124.62
      direct lattice vectors                 reciprocal lattice vectors
    10.560000006  0.000000000  0.000000000     0.094696970 -0.054673321  0.000000000
     5.280000210  9.145228627  0.000000000     0.000000000  0.109346638  0.000000000
     0.000000000  0.000000000 22.000000000     0.000000000  0.000000000  0.045454545

  length of vectors
    10.560000006 10.560000420 22.000000000     0.109346642  0.109346638  0.045454545


 
 k-points in units of 2pi/SCALE and weight: mesh auto                               
   0.00000000  0.00000000  0.00000000       0.250
   0.04734848 -0.02733666  0.00000000       0.250
   0.00000000  0.05467332  0.00000000       0.250
   0.04734848  0.02733666  0.00000000       0.250
 
 k-points in reciprocal lattice and weights: mesh auto                               
   0.00000000  0.00000000  0.00000000       0.250
   0.50000000  0.00000000  0.00000000       0.250
   0.00000000  0.50000000  0.00000000       0.250
   0.50000000  0.50000000  0.00000000       0.250
 
 position of ions in fractional coordinates (direct lattice) 
   0.78423739  0.86968810  0.33539815
   0.03428663  0.86957848  0.33560755
   0.03427129  0.61940952  0.33570194
   0.78752787  0.86760443  0.00652544
   0.03755334  0.86738732  0.00672673
   0.03760575  0.61743499  0.00695896
   0.61962120  0.20155295  0.11752746
   0.36970429  0.95148074  0.11772946
   0.03400233  0.36964950  0.33577219
   0.03765938  0.36737149  0.00693778
   0.86967212  0.20147513  0.11763988
   0.95202080  0.53563267  0.22674844
   0.28407842  0.11966498  0.33573693
   0.53408726  0.61969140  0.33560181
   0.28396872  0.36967746  0.33584297
   0.28757938  0.11729256  0.00693499
   0.53778144  0.61738218  0.00665825
   0.28767400  0.36732180  0.00711654
   0.61963192  0.95162163  0.11757270
   0.70215036  0.78566750  0.22646920
   0.86975086  0.70168747  0.11768379
   0.61981037  0.45158088  0.11767949
   0.28422283  0.86965919  0.33562078
   0.28759204  0.86737755  0.00669645
   0.61982754  0.70160896  0.11761810
   0.20174806  0.03590151  0.22668448
   0.86692322  0.95328586  0.44642198
   0.11677825  0.45317639  0.44690917
   0.11692821  0.95327315  0.44658993
   0.86678725  0.45333554  0.44666349
   0.36694000  0.95322814  0.44662475
   0.86686134  0.20329478  0.44635877
   0.11680795  0.20323868  0.44673341
   0.61687587  0.95329747  0.44638863
   0.86699289  0.70322508  0.44654691
   0.36673096  0.20336163  0.44689542
   0.36681141  0.70319685  0.44673221
   0.61679415  0.45335450  0.44663048
   0.11689225  0.70317183  0.44674059
   0.61682932  0.20334244  0.44649200
   0.53393986  0.36979153  0.33558752
   0.53763939  0.36745872  0.00671531
   0.53400894  0.11978354  0.33554155
   0.53759656  0.11743104  0.00659585
   0.86980199  0.45152194  0.11782677
   0.11965372  0.45163271  0.11804215
   0.03418807  0.11959204  0.33553726
   0.03749562  0.11734930  0.00677099
   0.11957289  0.95153243  0.11775804
   0.36674216  0.45325286  0.44681442
   0.45191097  0.53568736  0.22677391
   0.61685639  0.70329700  0.44647121
   0.36971476  0.20147859  0.11794211
   0.11948647  0.20156983  0.11789106
   0.95209662  0.78565183  0.22663787
   0.78419336  0.61962055  0.33552089
   0.28415900  0.61951616  0.33578223
   0.78774504  0.61742861  0.00667106
   0.28763603  0.61740049  0.00700940
   0.36992036  0.70156853  0.11780609
   0.36988605  0.45154319  0.11796807
   0.20159960  0.28576175  0.22691650
   0.78394793  0.36981429  0.33553314
   0.78769686  0.36732893  0.00668235
   0.95186306  0.03566947  0.22658019
   0.45199006  0.78580312  0.22655257
   0.70212561  0.53562915  0.22666031
   0.20188817  0.78573041  0.22678493
   0.45171680  0.03589948  0.22670748
   0.11966668  0.70171382  0.11794259
   0.70192644  0.03575159  0.22648133
   0.78407814  0.11967962  0.33533576
   0.53416883  0.86979484  0.33541691
   0.78757893  0.11748274  0.00648215
   0.53760003  0.86744597  0.00661329
   0.20187408  0.53566827  0.22690023
   0.95184668  0.28564628  0.22668086
   0.86966068  0.95156485  0.11758945
   0.70196169  0.28553686  0.22646758
   0.45173553  0.28570967  0.22674047
 
 position of ions in cartesian coordinates  (Angst):
  12.87350021  7.95349653  7.37875922
   4.95344140  7.95249403  7.38336604
   3.63238725  5.66464167  7.38544265
  12.89724585  7.93444089  0.14355968
   4.97636851  7.93245534  0.14798806
   3.65717364  5.64658412  0.15309704
   7.60739952  1.84324777  2.58560418
   8.92789578  8.70150889  2.59004811
   2.31081403  3.38052922  7.38698815
   2.33740456  3.35969627  0.15263108
  10.24752636  1.84253612  2.58807746
  12.88148028  4.89848322  4.98846565
   3.63169919  1.09436358  7.38621243
   8.91193213  5.66721949  7.38323976
   4.95060672  3.38078486  7.38854534
   3.65614304  1.07266729  0.15256977
   8.93875008  5.64610116  0.14648151
   4.97729658  3.35924184  0.15656384
  11.56787550  8.70279735  2.58659947
  11.56303238  7.18510887  4.98232244
  12.88947904  6.41709233  2.58904344
   8.92954466  4.12981040  2.58894883
   7.59319381  7.95323210  7.38365714
   7.61672558  7.93236598  0.14732190
  10.24987430  6.41637436  2.58759815
   2.32001943  0.32832749  4.98705865
  14.18805879  8.71801718  9.82128356
   3.62594976  4.14440168  9.83200176
   6.26804434  8.71790090  9.82497857
  11.54688509  4.14585718  9.82659673
   8.90793118  8.71748930  9.82574446
  10.22745224  1.85917725  9.81989302
   2.30659222  1.85866415  9.82813499
  11.54762004  8.71812330  9.82054993
  12.86847343  6.43115410  9.82403200
   4.94642833  1.85978857  9.83169925
   7.58640796  6.43089595  9.82810853
   8.90705807  4.14603056  9.82587061
   4.94712960  6.43066712  9.82829288
   7.58736573  1.85961309  9.82282400
   7.59090424  3.38182806  7.38292545
   7.61765408  3.36049399  0.14773674
   6.27159146  1.09544783  7.38191414
   6.29705563  1.07393372  0.14510867
  11.56914501  4.12927141  2.59218894
   3.64816412  4.13028443  2.59692734
   0.99247207  1.09369657  7.38181965
   1.01555808  1.07318621  0.14896182
   6.28678113  8.70198160  2.59067694
   6.26597246  4.14510103  9.82991734
   7.60060921  4.89898335  4.98902593
  10.22741177  6.43181187  9.82236670
   4.96799489  1.84256775  2.59472652
   2.32606594  1.84340221  2.59360339
  14.20238218  7.18496560  4.98603324
  11.55267850  5.66657159  7.38145963
   6.27176446  5.66561692  7.38720912
  11.57861087  5.64652582  0.14676326
   6.29731119  5.64626865  0.15420676
   7.61064093  6.41600457  2.59173394
   6.29014482  4.12946571  2.59529750
   3.63771388  2.61335652  4.99216305
  10.23110965  3.38203620  7.38172914
  10.25757568  3.35930705  0.14701167
  10.24000878  0.32620549  4.98476416
   8.92205566  7.18634919  4.98415660
  10.24256846  4.89845102  4.98652682
   6.28059579  7.18568427  4.98926853
   4.95967871  0.32830898  4.98756448
   4.96872932  6.41733334  2.59473689
   7.60111156  0.32695644  4.98258928
   8.91177357  1.09449745  7.37738662
  10.23333977  7.95447271  7.37917194
   8.93714239  1.07440654  0.14260727
  10.25717118  7.93299171  0.14549228
   4.96011887  4.89880879  4.99180497
  11.55971339  2.61230056  4.98697895
  14.20787943  8.70227815  2.58696792
   8.92035011  2.61129991  4.98228679
   6.27887435  2.61288024  4.98829037
 


--------------------------------------------------------------------------------------------------------


 k-point  1 :   0.0000 0.0000 0.0000  plane waves:   62167
 k-point  2 :   0.5000 0.0000 0.0000  plane waves:   62242
 k-point  3 :   0.0000 0.5000 0.0000  plane waves:   62242
 k-point  4 :   0.5000 0.5000 0.0000  plane waves:   62242

 maximum and minimum number of plane-waves per node :     15586    15521

 maximum number of plane-waves:     62242
 maximum index in each direction: 
   IXMAX=   20   IYMAX=   20   IZMAX=   42
   IXMIN=  -20   IYMIN=  -20   IZMIN=  -42


 real space projection operators:
  total allocation   :      84864.80 KBytes
  max/ min on nodes  :      21217.64      21214.69


 parallel 3D FFT for wavefunctions:
    minimum data exchange during FFTs selected (reduces bandwidth)
 parallel 3D FFT for charge:
    minimum data exchange during FFTs selected (reduces bandwidth)


 total amount of memory used by VASP MPI-rank0   159396. kBytes
=======================================================================

   base      :      30000. kBytes
   nonlr-proj:      36734. kBytes
   fftplans  :      17962. kBytes
   grid      :      25483. kBytes
   one-center:        311. kBytes
   wavefun   :      48906. kBytes
 
     INWAV:  cpu time    0.0000: real time    0.0000
 Broyden mixing: mesh for mixing (old mesh)
   NGX = 41   NGY = 41   NGZ = 85
  (NGX  =168   NGY  =168   NGZ  =336)
  gives a total of 142885 points

 initial charge density was supplied:
 charge density of overlapping atoms calculated
 number of electron     800.0000000 magnetization 
 keeping initial charge density in first step


--------------------------------------------------------------------------------------------------------


 Maximum index for non-local projection operator         1910
 Maximum index for augmentation-charges         2072 (set IRDMAX)


--------------------------------------------------------------------------------------------------------


 First call to EWALD:  gamma=   0.138
 Maximum number of real-space cells 4x 4x 2
 Maximum number of reciprocal cells 2x 2x 4

    FEWALD:  cpu time    0.0037: real time    0.0037


--------------------------------------- Iteration      1(   1)  ---------------------------------------


    POTLOK:  cpu time    0.1826: real time    0.2079
    SETDIJ:  cpu time    0.0176: real time    0.0180
     EDDAV:  cpu time   27.6352: real time   27.7366
       DOS:  cpu time    0.0011: real time    0.0012
    --------------------------------------------
      LOOP:  cpu time   27.8365: real time   27.9638

 eigenvalue-minimisations  :  3840
 total energy-change (2. order) : 0.5763342E+04  (-0.4000716E+05)
 number of electron     800.0000000 magnetization 
 augmentation part      800.0000000 magnetization 

 Free energy of the ion-electron system (eV)
  ---------------------------------------------------
  alpha Z        PSCENC =      2863.44403899
  Ewald energy   TEWEN  =    166761.72339793
  -Hartree energ DENC   =   -231815.63098692
  -exchange      EXHF   =         0.00000000
  -V(xc)+E(xc)   XCENC  =       300.57181770
  PAW double counting   =     55689.88283425   -53427.22359852
  entropy T*S    EENTRO =        -0.00983991
  eigenvalues    EBANDS =      7061.33991364
  atomic energy  EATOM  =     58329.24398462
  Solvation  Ediel_sol  =         0.00000000
  ---------------------------------------------------
  free energy    TOTEN  =      5763.34156179 eV

  energy without entropy =     5763.35140170  energy(sigma->0) =     5763.34484176


--------------------------------------------------------------------------------------------------------




--------------------------------------- Iteration      1(   2)  ---------------------------------------


     EDDAV:  cpu time   29.6271: real time   29.7249
       DOS:  cpu time    0.0011: real time    0.0011
    --------------------------------------------
      LOOP:  cpu time   29.6282: real time   29.7260

 eigenvalue-minimisations  :  4240
 total energy-change (2. order) :-0.5902668E+04  (-0.5498593E+04)
 number of electron     800.0000000 magnetization 
 augmentation part      800.0000000 magnetization 

 Free energy of the ion-electron system (eV)
  ---------------------------------------------------
  alpha Z        PSCENC =      2863.44403899
  Ewald energy   TEWEN  =    166761.72339793
  -Hartree energ DENC   =   -231815.63098692
  -exchange      EXHF   =         0.00000000
  -V(xc)+E(xc)   XCENC  =       300.57181770
  PAW double counting   =     55689.88283425   -53427.22359852
  entropy T*S    EENTRO =        -0.00882461
  eigenvalues    EBANDS =      1158.67046642
  atomic energy  EATOM  =     58329.24398462
  Solvation  Ediel_sol  =         0.00000000
  ---------------------------------------------------
  free energy    TOTEN  =      -139.32687013 eV

  energy without entropy =     -139.31804552  energy(sigma->0) =     -139.32392859


--------------------------------------------------------------------------------------------------------




--------------------------------------- Iteration      1(   3)  ---------------------------------------


     EDDAV:  cpu time   30.9555: real time   31.0590
       DOS:  cpu time    0.0012: real time    0.0012
    --------------------------------------------
      LOOP:  cpu time   30.9567: real time   31.0601

 eigenvalue-minimisations  :  4490
 total energy-change (2. order) :-0.3385279E+03  (-0.3026982E+03)
 number of electron     800.0000000 magnetization 
 augmentation part      800.0000000 magnetization 

 Free energy of the ion-electron system (eV)
  ---------------------------------------------------
  alpha Z        PSCENC =      2863.44403899
  Ewald energy   TEWEN  =    166761.72339793
  -Hartree energ DENC   =   -231815.63098692
  -exchange      EXHF   =         0.00000000
  -V(xc)+E(xc)   XCENC  =       300.57181770
  PAW double counting   =     55689.88283425   -53427.22359852
  entropy T*S    EENTRO =        -0.07050594
  eigenvalues    EBANDS =       820.20427315
  atomic energy  EATOM  =     58329.24398462
  Solvation  Ediel_sol  =         0.00000000
  ---------------------------------------------------
  free energy    TOTEN  =      -477.85474473 eV

  energy without entropy =     -477.78423879  energy(sigma->0) =     -477.83124275


--------------------------------------------------------------------------------------------------------




--------------------------------------- Iteration      1(   4)  ---------------------------------------


     EDDAV:  cpu time   32.8136: real time   32.9202
       DOS:  cpu time    0.0011: real time    0.0011
    --------------------------------------------
      LOOP:  cpu time   32.8147: real time   32.9213

 eigenvalue-minimisations  :  4830
 total energy-change (2. order) :-0.1501365E+02  (-0.1448784E+02)
 number of electron     800.0000000 magnetization 
 augmentation part      800.0000000 magnetization 

 Free energy of the ion-electron system (eV)
  ---------------------------------------------------
  alpha Z        PSCENC =      2863.44403899
  Ewald energy   TEWEN  =    166761.72339793
  -Hartree energ DENC   =   -231815.63098692
  -exchange      EXHF   =         0.00000000
  -V(xc)+E(xc)   XCENC  =       300.57181770
  PAW double counting   =     55689.88283425   -53427.22359852
  entropy T*S    EENTRO =        -0.08918030
  eigenvalues    EBANDS =       805.20929332
  atomic energy  EATOM  =     58329.24398462
  Solvation  Ediel_sol  =         0.00000000
  ---------------------------------------------------
  free energy    TOTEN  =      -492.86839892 eV

  energy without entropy =     -492.77921862  energy(sigma->0) =     -492.83867215


--------------------------------------------------------------------------------------------------------




--------------------------------------- Iteration      1(   5)  ---------------------------------------


     EDDAV:  cpu time   31.9692: real time   32.0742
       DOS:  cpu time    0.0012: real time    0.0012
    CHARGE:  cpu time    2.1649: real time    2.1721
    MIXING:  cpu time    0.0063: real time    0.0071
    --------------------------------------------
      LOOP:  cpu time   34.1416: real time   34.2546

 eigenvalue-minimisations  :  4680
 total energy-change (2. order) :-0.3778295E+00  (-0.3769529E+00)
 number of electron     800.0000052 magnetization 
 augmentation part      232.1033475 magnetization 

 Broyden mixing:
  rms(total) = 0.11785E+02    rms(broyden)= 0.11785E+02
  rms(prec ) = 0.11889E+02
  weight for this iteration     100.00

 Free energy of the ion-electron system (eV)
  ---------------------------------------------------
  alpha Z        PSCENC =      2863.44403899
  Ewald energy   TEWEN  =    166761.72339793
  -Hartree energ DENC   =   -231815.63098692
  -exchange      EXHF   =         0.00000000
  -V(xc)+E(xc)   XCENC  =       300.57181770
  PAW double counting   =     55689.88283425   -53427.22359852
  entropy T*S    EENTRO =        -0.08950397
  eigenvalues    EBANDS =       804.83178751
  atomic energy  EATOM  =     58329.24398462
  Solvation  Ediel_sol  =         0.00000000
  ---------------------------------------------------
  free energy    TOTEN  =      -493.24622840 eV

  energy without entropy =     -493.15672443  energy(sigma->0) =     -493.21639375


--------------------------------------------------------------------------------------------------------




--------------------------------------- Iteration      1(   6)  ---------------------------------------


    POTLOK:  cpu time    0.1714: real time    0.1719
    SETDIJ:  cpu time    0.0155: real time    0.0155
    EDDIAG:  cpu time    4.6749: real time    4.6907
  RMM-DIIS:  cpu time   16.8079: real time   16.8626
    ORTHCH:  cpu time    0.4407: real time    0.4422
       DOS:  cpu time    0.0011: real time    0.0011
    CHARGE:  cpu time    2.1565: real time    2.1634
    MIXING:  cpu time    0.0063: real time    0.0065
    --------------------------------------------
      LOOP:  cpu time   24.2742: real time   24.3540

 eigenvalue-minimisations  :  3849
 total energy-change (2. order) : 0.1725373E+02  (-0.6683033E+01)
 number of electron     800.0000060 magnetization 
 augmentation part      243.0898784 magnetization 

 Broyden mixing:
  rms(total) = 0.79874E+01    rms(broyden)= 0.79874E+01
  rms(prec ) = 0.85806E+01
  weight for this iteration     100.00

 eigenvalues of (default mixing * dielectric matrix)
  average eigenvalue GAMMA=   1.6442
  1.6442

 Free energy of the ion-electron system (eV)
  ---------------------------------------------------
  alpha Z        PSCENC =      2863.44403899
  Ewald energy   TEWEN  =    166761.72339793
  -Hartree energ DENC   =   -230874.46899522
  -exchange      EXHF   =         0.00000000
  -V(xc)+E(xc)   XCENC  =       281.35982886
  PAW double counting   =     63768.13128030   -61641.41430867
  entropy T*S    EENTRO =        -0.06994691
  eigenvalues    EBANDS =        36.05822399
  atomic energy  EATOM  =     58329.24398462
  Solvation  Ediel_sol  =         0.00000000
  ---------------------------------------------------
  free energy    TOTEN  =      -475.99249610 eV

  energy without entropy =     -475.92254919  energy(sigma->0) =     -475.96918046


--------------------------------------------------------------------------------------------------------




--------------------------------------- Iteration      1(   7)  ---------------------------------------


    POTLOK:  cpu time    0.1643: real time    0.1648
    SETDIJ:  cpu time    0.0153: real time    0.0153
    EDDIAG:  cpu time    4.6750: real time    4.6900
  RMM-DIIS:  cpu time   16.7199: real time   16.7734
    ORTHCH:  cpu time    0.4849: real time    0.4862
       DOS:  cpu time    0.0011: real time    0.0011
    CHARGE:  cpu time    2.2030: real time    2.2098
    MIXING:  cpu time    0.0069: real time    0.0069
    --------------------------------------------
      LOOP:  cpu time   24.2703: real time   24.3475

 eigenvalue-minimisations  :  3892
 total energy-change (2. order) :-0.2659260E+03  (-0.3425005E+02)
 number of electron     800.0000051 magnetization 
 augmentation part      236.8637593 magnetization 

 Broyden mixing:
  rms(total) = 0.13587E+02    rms(broyden)= 0.13587E+02
  rms(prec ) = 0.17437E+02
  weight for this iteration     100.00

 eigenvalues of (default mixing * dielectric matrix)
  average eigenvalue GAMMA=   1.2561
  2.3058  0.2064

 Free energy of the ion-electron system (eV)
  ---------------------------------------------------
  alpha Z        PSCENC =      2863.44403899
  Ewald energy   TEWEN  =    166761.72339793
  -Hartree energ DENC   =   -232142.97779644
  -exchange      EXHF   =         0.00000000
  -V(xc)+E(xc)   XCENC  =       274.43750160
  PAW double counting   =     70094.77149217   -68039.79249062
  entropy T*S    EENTRO =        -0.01421586
  eigenvalues    EBANDS =      1117.24563431
  atomic energy  EATOM  =     58329.24398462
  Solvation  Ediel_sol  =         0.00000000
  ---------------------------------------------------
  free energy    TOTEN  =      -741.91845329 eV

  energy without entropy =     -741.90423743  energy(sigma->0) =     -741.91371467


--------------------------------------------------------------------------------------------------------




--------------------------------------- Iteration      1(   8)  ---------------------------------------


    POTLOK:  cpu time    0.1685: real time    0.1690
    SETDIJ:  cpu time    0.0211: real time    0.0211
    EDDIAG:  cpu time    4.6817: real time    4.6977
  RMM-DIIS:  cpu time   16.6016: real time   16.6661
    ORTHCH:  cpu time    0.4399: real time    0.4409
       DOS:  cpu time    0.0012: real time    0.0012
    CHARGE:  cpu time    2.1167: real time    2.1218
    MIXING:  cpu time    0.0058: real time    0.0058
    --------------------------------------------
      LOOP:  cpu time   24.0363: real time   24.1235

 eigenvalue-minimisations  :  3854
 total energy-change (2. order) : 0.2000221E+03  (-0.9429035E+01)
 number of electron     800.0000056 magnetization 
 augmentation part      245.6237096 magnetization 

 Broyden mixing:
  rms(total) = 0.71587E+01    rms(broyden)= 0.71587E+01
  rms(prec ) = 0.88068E+01
  weight for this iteration     100.00

 eigenvalues of (default mixing * dielectric matrix)
  average eigenvalue GAMMA=   0.9626
  2.2539  0.3169  0.3169

 Free energy of the ion-electron system (eV)
  ---------------------------------------------------
  alpha Z        PSCENC =      2863.44403899
  Ewald energy   TEWEN  =    166761.72339793
  -Hartree energ DENC   =   -231152.11871456
  -exchange      EXHF   =         0.00000000
  -V(xc)+E(xc)   XCENC  =       267.83042851
  PAW double counting   =     76255.16417040   -74277.63394773
  entropy T*S    EENTRO =         0.01736259
  eigenvalues    EBANDS =       410.43296670
  atomic energy  EATOM  =     58329.24398462
  Solvation  Ediel_sol  =         0.00000000
  ---------------------------------------------------
  free energy    TOTEN  =      -541.89631253 eV

  energy without entropy =     -541.91367513  energy(sigma->0) =     -541.90210006


--------------------------------------------------------------------------------------------------------




--------------------------------------- Iteration      1(   9)  ---------------------------------------


    POTLOK:  cpu time    0.1641: real time    0.1645
    SETDIJ:  cpu time    0.0154: real time    0.0154
    EDDIAG:  cpu time    4.7443: real time    4.7557
  RMM-DIIS:  cpu time   16.5995: real time   16.6395
    ORTHCH:  cpu time    0.4408: real time    0.4418
       DOS:  cpu time    0.0011: real time    0.0011
    CHARGE:  cpu time    2.1195: real time    2.1246
    MIXING:  cpu time    0.0067: real time    0.0067
    --------------------------------------------
      LOOP:  cpu time   24.0914: real time   24.1493

 eigenvalue-minimisations  :  3855
 total energy-change (2. order) : 0.5606495E+02  (-0.7672505E+01)
 number of electron     800.0000057 magnetization 
 augmentation part      247.3069541 magnetization 

 Broyden mixing:
  rms(total) = 0.49462E+01    rms(broyden)= 0.49462E+01
  rms(prec ) = 0.66931E+01
  weight for this iteration     100.00

 eigenvalues of (default mixing * dielectric matrix)
  average eigenvalue GAMMA=   0.8531
  2.0212  0.8302  0.3411  0.2199

 Free energy of the ion-electron system (eV)
  ---------------------------------------------------
  alpha Z        PSCENC =      2863.44403899
  Ewald energy   TEWEN  =    166761.72339793
  -Hartree energ DENC   =   -230955.94923942
  -exchange      EXHF   =         0.00000000
  -V(xc)+E(xc)   XCENC  =       269.17994050
  PAW double counting   =     76350.10642426   -74371.40703237
  entropy T*S    EENTRO =        -0.14747848
  eigenvalues    EBANDS =       267.97460628
  atomic energy  EATOM  =     58329.24398462
  Solvation  Ediel_sol  =         0.00000000
  ---------------------------------------------------
  free energy    TOTEN  =      -485.83135768 eV

  energy without entropy =     -485.68387919  energy(sigma->0) =     -485.78219818


--------------------------------------------------------------------------------------------------------




--------------------------------------- Iteration      1(  10)  ---------------------------------------


    POTLOK:  cpu time    0.1722: real time    0.1726
    SETDIJ:  cpu time    0.0156: real time    0.0156
    EDDIAG:  cpu time    4.6832: real time    4.6944
  RMM-DIIS:  cpu time   16.7571: real time   16.8130
    ORTHCH:  cpu time    0.4398: real time    0.4415
       DOS:  cpu time    0.0011: real time    0.0011
    CHARGE:  cpu time    2.0795: real time    2.0863
    MIXING:  cpu time    0.0064: real time    0.0064
    --------------------------------------------
      LOOP:  cpu time   24.1549: real time   24.2309

 eigenvalue-minimisations  :  3868
 total energy-change (2. order) : 0.1142626E+02  (-0.3230795E+01)
 number of electron     800.0000059 magnetization 
 augmentation part      247.6278107 magnetization 

 Broyden mixing:
  rms(total) = 0.42664E+01    rms(broyden)= 0.42664E+01
  rms(prec ) = 0.62871E+01
  weight for this iteration     100.00

 eigenvalues of (default mixing * dielectric matrix)
  average eigenvalue GAMMA=   0.7396
  2.0949  0.8969  0.2563  0.2563  0.1938

 Free energy of the ion-electron system (eV)
  ---------------------------------------------------
  alpha Z        PSCENC =      2863.44403899
  Ewald energy   TEWEN  =    166761.72339793
  -Hartree energ DENC   =   -230727.77449131
  -exchange      EXHF   =         0.00000000
  -V(xc)+E(xc)   XCENC  =       272.46835420
  PAW double counting   =     75721.43664021   -73727.78127628
  entropy T*S    EENTRO =        -0.04236604
  eigenvalues    EBANDS =        32.87661737
  atomic energy  EATOM  =     58329.24398462
  Solvation  Ediel_sol  =         0.00000000
  ---------------------------------------------------
  free energy    TOTEN  =      -474.40510030 eV

  energy without entropy =     -474.36273427  energy(sigma->0) =     -474.39097829


--------------------------------------------------------------------------------------------------------




--------------------------------------- Iteration      1(  11)  ---------------------------------------


    POTLOK:  cpu time    0.1739: real time    0.1744
    SETDIJ:  cpu time    0.0154: real time    0.0154
    EDDIAG:  cpu time    4.6750: real time    4.6907
  RMM-DIIS:  cpu time   16.9043: real time   16.9599
    ORTHCH:  cpu time    0.4409: real time    0.4422
       DOS:  cpu time    0.0011: real time    0.0011
    CHARGE:  cpu time    2.0868: real time    2.0932
    MIXING:  cpu time    0.0067: real time    0.0067
    --------------------------------------------
      LOOP:  cpu time   24.3041: real time   24.3837

 eigenvalue-minimisations  :  3922
 total energy-change (2. order) : 0.1529415E+01  (-0.3216383E+00)
 number of electron     800.0000061 magnetization 
 augmentation part      247.4148001 magnetization 

 Broyden mixing:
  rms(total) = 0.38204E+01    rms(broyden)= 0.38204E+01
  rms(prec ) = 0.57815E+01
  weight for this iteration     100.00

 eigenvalues of (default mixing * dielectric matrix)
  average eigenvalue GAMMA=   0.7677
  2.4313  1.0747  0.4098  0.4098  0.2156  0.0650

 Free energy of the ion-electron system (eV)
  ---------------------------------------------------
  alpha Z        PSCENC =      2863.44403899
  Ewald energy   TEWEN  =    166761.72339793
  -Hartree energ DENC   =   -230744.20281952
  -exchange      EXHF   =         0.00000000
  -V(xc)+E(xc)   XCENC  =       272.44372418
  PAW double counting   =     75921.31868228   -73929.32658273
  entropy T*S    EENTRO =        -0.16158616
  eigenvalues    EBANDS =        52.64147544
  atomic energy  EATOM  =     58329.24398462
  Solvation  Ediel_sol  =         0.00000000
  ---------------------------------------------------
  free energy    TOTEN  =      -472.87568495 eV

  energy without entropy =     -472.71409880  energy(sigma->0) =     -472.82182290


--------------------------------------------------------------------------------------------------------




--------------------------------------- Iteration      1(  12)  ---------------------------------------


    POTLOK:  cpu time    0.1662: real time    0.1667
    SETDIJ:  cpu time    0.0153: real time    0.0153
    EDDIAG:  cpu time    4.6777: real time    4.6928
  RMM-DIIS:  cpu time   16.7621: real time   16.8178
    ORTHCH:  cpu time    0.4924: real time    0.4957
       DOS:  cpu time    0.0011: real time    0.0011
    CHARGE:  cpu time    2.0885: real time    2.0953
    MIXING:  cpu time    0.0069: real time    0.0069
    --------------------------------------------
      LOOP:  cpu time   24.2102: real time   24.2916

 eigenvalue-minimisations  :  3860
 total energy-change (2. order) : 0.9906446E+01  (-0.5655700E+00)
 number of electron     800.0000055 magnetization 
 augmentation part      246.2640151 magnetization 

 Broyden mixing:
  rms(total) = 0.18131E+01    rms(broyden)= 0.18131E+01
  rms(prec ) = 0.19793E+01
  weight for this iteration     100.00

 eigenvalues of (default mixing * dielectric matrix)
  average eigenvalue GAMMA=   0.6872
  2.4357  0.9260  0.4659  0.4659  0.2576  0.1980  0.0612

 Free energy of the ion-electron system (eV)
  ---------------------------------------------------
  alpha Z        PSCENC =      2863.44403899
  Ewald energy   TEWEN  =    166761.72339793
  -Hartree energ DENC   =   -230869.21946784
  -exchange      EXHF   =         0.00000000
  -V(xc)+E(xc)   XCENC  =       271.93111113
  PAW double counting   =     77012.94292977   -75031.21567500
  entropy T*S    EENTRO =        -0.09489169
  eigenvalues    EBANDS =       198.27533321
  atomic energy  EATOM  =     58329.24398462
  Solvation  Ediel_sol  =         0.00000000
  ---------------------------------------------------
  free energy    TOTEN  =      -462.96923887 eV

  energy without entropy =     -462.87434718  energy(sigma->0) =     -462.93760831


--------------------------------------------------------------------------------------------------------




--------------------------------------- Iteration      1(  13)  ---------------------------------------


    POTLOK:  cpu time    0.1664: real time    0.1671
    SETDIJ:  cpu time    0.0155: real time    0.0156
    EDDIAG:  cpu time    4.6734: real time    4.6885
  RMM-DIIS:  cpu time   16.8927: real time   16.9531
    ORTHCH:  cpu time    0.4384: real time    0.4395
       DOS:  cpu time    0.0011: real time    0.0011
    CHARGE:  cpu time    2.0790: real time    2.0839
    MIXING:  cpu time    0.0070: real time    0.0070
    --------------------------------------------
      LOOP:  cpu time   24.2735: real time   24.3558

 eigenvalue-minimisations  :  3885
 total energy-change (2. order) : 0.2947483E+00  (-0.1217401E+00)
 number of electron     800.0000055 magnetization 
 augmentation part      246.2549783 magnetization 

 Broyden mixing:
  rms(total) = 0.16385E+01    rms(broyden)= 0.16385E+01
  rms(prec ) = 0.20264E+01
  weight for this iteration     100.00

 eigenvalues of (default mixing * dielectric matrix)
  average eigenvalue GAMMA=   0.6022
  2.4191  0.8979  0.4708  0.4708  0.2529  0.1927  0.0566  0.0566

 Free energy of the ion-electron system (eV)
  ---------------------------------------------------
  alpha Z        PSCENC =      2863.44403899
  Ewald energy   TEWEN  =    166761.72339793
  -Hartree energ DENC   =   -230887.77053486
  -exchange      EXHF   =         0.00000000
  -V(xc)+E(xc)   XCENC  =       271.69614114
  PAW double counting   =     76986.48394837   -75005.56880200
  entropy T*S    EENTRO =        -0.14732477
  eigenvalues    EBANDS =       218.22066001
  atomic energy  EATOM  =     58329.24398462
  Solvation  Ediel_sol  =         0.00000000
  ---------------------------------------------------
  free energy    TOTEN  =      -462.67449057 eV

  energy without entropy =     -462.52716580  energy(sigma->0) =     -462.62538231


--------------------------------------------------------------------------------------------------------




--------------------------------------- Iteration      1(  14)  ---------------------------------------


    POTLOK:  cpu time    0.1658: real time    0.1662
    SETDIJ:  cpu time    0.0153: real time    0.0153
    EDDIAG:  cpu time    4.7552: real time    4.7694
  RMM-DIIS:  cpu time   17.7508: real time   17.7928
    ORTHCH:  cpu time    0.4379: real time    0.4389
       DOS:  cpu time    0.0010: real time    0.0010
    CHARGE:  cpu time    2.0830: real time    2.0879
    MIXING:  cpu time    0.0073: real time    0.0073
    --------------------------------------------
      LOOP:  cpu time   25.2162: real time   25.2788

 eigenvalue-minimisations  :  4085
 total energy-change (2. order) : 0.4463748E+00  (-0.4871033E-02)
 number of electron     800.0000055 magnetization 
 augmentation part      246.3086473 magnetization 

 Broyden mixing:
  rms(total) = 0.14274E+01    rms(broyden)= 0.14274E+01
  rms(prec ) = 0.17214E+01
  weight for this iteration     100.00

 eigenvalues of (default mixing * dielectric matrix)
  average eigenvalue GAMMA=   0.6385
  2.4452  0.9352  0.4707  0.4707  0.4530  0.4530  0.2073  0.2498  0.0618

 Free energy of the ion-electron system (eV)
  ---------------------------------------------------
  alpha Z        PSCENC =      2863.44403899
  Ewald energy   TEWEN  =    166761.72339793
  -Hartree energ DENC   =   -230879.88726658
  -exchange      EXHF   =         0.00000000
  -V(xc)+E(xc)   XCENC  =       271.74759961
  PAW double counting   =     76855.43200769   -74873.32588266
  entropy T*S    EENTRO =        -0.12683505
  eigenvalues    EBANDS =       209.52083965
  atomic energy  EATOM  =     58329.24398462
  Solvation  Ediel_sol  =         0.00000000
  ---------------------------------------------------
  free energy    TOTEN  =      -462.22811581 eV

  energy without entropy =     -462.10128075  energy(sigma->0) =     -462.18583745


--------------------------------------------------------------------------------------------------------




--------------------------------------- Iteration      1(  15)  ---------------------------------------


    POTLOK:  cpu time    0.1651: real time    0.1655
    SETDIJ:  cpu time    0.0154: real time    0.0154
    EDDIAG:  cpu time    4.6782: real time    4.6894
  RMM-DIIS:  cpu time   16.8652: real time   16.9195
    ORTHCH:  cpu time    0.4414: real time    0.4425
       DOS:  cpu time    0.0010: real time    0.0010
    CHARGE:  cpu time    2.0841: real time    2.0909
    MIXING:  cpu time    0.0073: real time    0.0073
    --------------------------------------------
      LOOP:  cpu time   24.2577: real time   24.3316

 eigenvalue-minimisations  :  3887
 total energy-change (2. order) :-0.6012334E-01  (-0.4351128E-02)
 number of electron     800.0000055 magnetization 
 augmentation part      246.3570739 magnetization 

 Broyden mixing:
  rms(total) = 0.14670E+01    rms(broyden)= 0.14670E+01
  rms(prec ) = 0.18524E+01
  weight for this iteration     100.00

 eigenvalues of (default mixing * dielectric matrix)
  average eigenvalue GAMMA=   0.8133
  2.5692  1.2581  1.2581  1.2565  0.4854  0.3967  0.3967  0.2101  0.2406  0.0618

 Free energy of the ion-electron system (eV)
  ---------------------------------------------------
  alpha Z        PSCENC =      2863.44403899
  Ewald energy   TEWEN  =    166761.72339793
  -Hartree energ DENC   =   -230878.27131312
  -exchange      EXHF   =         0.00000000
  -V(xc)+E(xc)   XCENC  =       271.75733141
  PAW double counting   =     76819.97358534   -74837.79418555
  entropy T*S    EENTRO =        -0.14107593
  eigenvalues    EBANDS =       207.77599715
  atomic energy  EATOM  =     58329.24398462
  Solvation  Ediel_sol  =         0.00000000
  ---------------------------------------------------
  free energy    TOTEN  =      -462.28823915 eV

  energy without entropy =     -462.14716322  energy(sigma->0) =     -462.24121384


--------------------------------------------------------------------------------------------------------




--------------------------------------- Iteration      1(  16)  ---------------------------------------


    POTLOK:  cpu time    0.1674: real time    0.1681
    SETDIJ:  cpu time    0.0155: real time    0.0155
    EDDIAG:  cpu time    4.6724: real time    4.6882
  RMM-DIIS:  cpu time   16.7273: real time   16.7811
    ORTHCH:  cpu time    0.4389: real time    0.4405
       DOS:  cpu time    0.0011: real time    0.0011
    CHARGE:  cpu time    2.0746: real time    2.0813
    MIXING:  cpu time    0.0082: real time    0.0082
    --------------------------------------------
      LOOP:  cpu time   24.1053: real time   24.1839

 eigenvalue-minimisations  :  3860
 total energy-change (2. order) : 0.6926947E+00  (-0.8108088E-01)
 number of electron     800.0000056 magnetization 
 augmentation part      246.2965935 magnetization 

 Broyden mixing:
  rms(total) = 0.11590E+01    rms(broyden)= 0.11590E+01
  rms(prec ) = 0.13972E+01
  weight for this iteration     100.00

 eigenvalues of (default mixing * dielectric matrix)
  average eigenvalue GAMMA=   0.7808
  2.5346  1.3252  1.3252  1.3302  0.5830  0.3945  0.3945  0.0618  0.2323  0.2116
  0.1962

 Free energy of the ion-electron system (eV)
  ---------------------------------------------------
  alpha Z        PSCENC =      2863.44403899
  Ewald energy   TEWEN  =    166761.72339793
  -Hartree energ DENC   =   -230871.93662150
  -exchange      EXHF   =         0.00000000
  -V(xc)+E(xc)   XCENC  =       272.60396525
  PAW double counting   =     76594.78555696   -74608.79247037
  entropy T*S    EENTRO =        -0.10216671
  eigenvalues    EBANDS =       197.43477036
  atomic energy  EATOM  =     58329.24398462
  Solvation  Ediel_sol  =         0.00000000
  ---------------------------------------------------
  free energy    TOTEN  =      -461.59554446 eV

  energy without entropy =     -461.49337775  energy(sigma->0) =     -461.56148889


--------------------------------------------------------------------------------------------------------




--------------------------------------- Iteration      1(  17)  ---------------------------------------


    POTLOK:  cpu time    0.1674: real time    0.1679
    SETDIJ:  cpu time    0.0153: real time    0.0154
    EDDIAG:  cpu time    4.6762: real time    4.6912
  RMM-DIIS:  cpu time   16.6734: real time   16.7334
    ORTHCH:  cpu time    0.4378: real time    0.4388
       DOS:  cpu time    0.0011: real time    0.0011
    CHARGE:  cpu time    2.0858: real time    2.0907
    MIXING:  cpu time    0.0094: real time    0.0094
    --------------------------------------------
      LOOP:  cpu time   24.0664: real time   24.1479

 eigenvalue-minimisations  :  3865
 total energy-change (2. order) : 0.6237713E+00  (-0.3484758E-01)
 number of electron     800.0000057 magnetization 
 augmentation part      246.4049277 magnetization 

 Broyden mixing:
  rms(total) = 0.61593E+00    rms(broyden)= 0.61593E+00
  rms(prec ) = 0.72110E+00
  weight for this iteration     100.00

 eigenvalues of (default mixing * dielectric matrix)
  average eigenvalue GAMMA=   0.7267
  2.4701  1.2945  1.2945  1.2647  0.6795  0.3914  0.3914  0.0618  0.2380  0.2380
  0.2048  0.1923

 Free energy of the ion-electron system (eV)
  ---------------------------------------------------
  alpha Z        PSCENC =      2863.44403899
  Ewald energy   TEWEN  =    166761.72339793
  -Hartree energ DENC   =   -230866.07781589
  -exchange      EXHF   =         0.00000000
  -V(xc)+E(xc)   XCENC  =       272.93416935
  PAW double counting   =     76382.64744386   -74394.21276197
  entropy T*S    EENTRO =        -0.11544632
  eigenvalues    EBANDS =       189.44121629
  atomic energy  EATOM  =     58329.24398462
  Solvation  Ediel_sol  =         0.00000000
  ---------------------------------------------------
  free energy    TOTEN  =      -460.97177313 eV

  energy without entropy =     -460.85632682  energy(sigma->0) =     -460.93329103


--------------------------------------------------------------------------------------------------------




--------------------------------------- Iteration      1(  18)  ---------------------------------------


    POTLOK:  cpu time    0.1675: real time    0.1679
    SETDIJ:  cpu time    0.0154: real time    0.0155
    EDDIAG:  cpu time    4.6794: real time    4.6906
  RMM-DIIS:  cpu time   16.7498: real time   16.7894
    ORTHCH:  cpu time    0.4405: real time    0.4416
       DOS:  cpu time    0.0010: real time    0.0010
    CHARGE:  cpu time    2.0870: real time    2.0919
    MIXING:  cpu time    0.0089: real time    0.0089
    --------------------------------------------
      LOOP:  cpu time   24.1496: real time   24.2069

 eigenvalue-minimisations  :  3874
 total energy-change (2. order) : 0.5700291E-01  (-0.4553320E-02)
 number of electron     800.0000057 magnetization 
 augmentation part      246.4434022 magnetization 

 Broyden mixing:
  rms(total) = 0.41425E+00    rms(broyden)= 0.41425E+00
  rms(prec ) = 0.52609E+00
  weight for this iteration     100.00

 eigenvalues of (default mixing * dielectric matrix)
  average eigenvalue GAMMA=   0.7162
  2.4801  1.2147  1.2147  1.1425  0.6989  0.6989  0.4048  0.4048  0.3545  0.0618
  0.2461  0.2101  0.1786

 Free energy of the ion-electron system (eV)
  ---------------------------------------------------
  alpha Z        PSCENC =      2863.44403899
  Ewald energy   TEWEN  =    166761.72339793
  -Hartree energ DENC   =   -230866.92238780
  -exchange      EXHF   =         0.00000000
  -V(xc)+E(xc)   XCENC  =       272.93355176
  PAW double counting   =     76307.26543816   -74318.21851036
  entropy T*S    EENTRO =        -0.12646227
  eigenvalues    EBANDS =       189.74217874
  atomic energy  EATOM  =     58329.24398462
  Solvation  Ediel_sol  =         0.00000000
  ---------------------------------------------------
  free energy    TOTEN  =      -460.91477022 eV

  energy without entropy =     -460.78830795  energy(sigma->0) =     -460.87261613


--------------------------------------------------------------------------------------------------------




--------------------------------------- Iteration      1(  19)  ---------------------------------------


    POTLOK:  cpu time    0.1741: real time    0.1745
    SETDIJ:  cpu time    0.0195: real time    0.0195
    EDDIAG:  cpu time    4.7355: real time    4.7468
  RMM-DIIS:  cpu time   16.6426: real time   16.6819
    ORTHCH:  cpu time    0.4401: real time    0.4411
       DOS:  cpu time    0.0011: real time    0.0011
    CHARGE:  cpu time    2.0870: real time    2.0920
    MIXING:  cpu time    0.0102: real time    0.0102
    --------------------------------------------
      LOOP:  cpu time   24.1101: real time   24.1672

 eigenvalue-minimisations  :  3866
 total energy-change (2. order) :-0.2416782E-01  (-0.1945131E-02)
 number of electron     800.0000057 magnetization 
 augmentation part      246.3889331 magnetization 

 Broyden mixing:
  rms(total) = 0.40577E+00    rms(broyden)= 0.40577E+00
  rms(prec ) = 0.54290E+00
  weight for this iteration     100.00

 eigenvalues of (default mixing * dielectric matrix)
  average eigenvalue GAMMA=   0.7169
  2.4637  1.2246  1.2246  1.0869  1.0869  0.8134  0.4048  0.4048  0.3865  0.0618
  0.2094  0.2462  0.2462  0.1773

 Free energy of the ion-electron system (eV)
  ---------------------------------------------------
  alpha Z        PSCENC =      2863.44403899
  Ewald energy   TEWEN  =    166761.72339793
  -Hartree energ DENC   =   -230873.14238774
  -exchange      EXHF   =         0.00000000
  -V(xc)+E(xc)   XCENC  =       272.91080926
  PAW double counting   =     76325.69476974   -74336.54947456
  entropy T*S    EENTRO =        -0.12726898
  eigenvalues    EBANDS =       195.86319270
  atomic energy  EATOM  =     58329.24398462
  Solvation  Ediel_sol  =         0.00000000
  ---------------------------------------------------
  free energy    TOTEN  =      -460.93893804 eV

  energy without entropy =     -460.81166905  energy(sigma->0) =     -460.89651504


--------------------------------------------------------------------------------------------------------




--------------------------------------- Iteration      1(  20)  ---------------------------------------


    POTLOK:  cpu time    0.1715: real time    0.1720
    SETDIJ:  cpu time    0.0159: real time    0.0159
    EDDIAG:  cpu time    4.6800: real time    4.6911
  RMM-DIIS:  cpu time   16.7094: real time   16.7671
    ORTHCH:  cpu time    0.4427: real time    0.4440
       DOS:  cpu time    0.0012: real time    0.0012
    CHARGE:  cpu time    2.0775: real time    2.0842
    MIXING:  cpu time    0.0099: real time    0.0099
    --------------------------------------------
      LOOP:  cpu time   24.1081: real time   24.1854

 eigenvalue-minimisations  :  3869
 total energy-change (2. order) : 0.3151314E-01  (-0.1460419E-02)
 number of electron     800.0000057 magnetization 
 augmentation part      246.3628325 magnetization 

 Broyden mixing:
  rms(total) = 0.34369E+00    rms(broyden)= 0.34369E+00
  rms(prec ) = 0.46547E+00
  weight for this iteration     100.00

 eigenvalues of (default mixing * dielectric matrix)
  average eigenvalue GAMMA=   0.7039
  2.4144  1.2421  1.2421  1.2771  1.2771  0.5656  0.5656  0.3980  0.3980  0.0618
  0.2671  0.2671  0.2084  0.1780  0.1965

 Free energy of the ion-electron system (eV)
  ---------------------------------------------------
  alpha Z        PSCENC =      2863.44403899
  Ewald energy   TEWEN  =    166761.72339793
  -Hartree energ DENC   =   -230876.16881942
  -exchange      EXHF   =         0.00000000
  -V(xc)+E(xc)   XCENC  =       272.91783624
  PAW double counting   =     76339.08472317   -74349.71480762
  entropy T*S    EENTRO =        -0.11948653
  eigenvalues    EBANDS =       198.68170771
  atomic energy  EATOM  =     58329.24398462
  Solvation  Ediel_sol  =         0.00000000
  ---------------------------------------------------
  free energy    TOTEN  =      -460.90742490 eV

  energy without entropy =     -460.78793837  energy(sigma->0) =     -460.86759606


--------------------------------------------------------------------------------------------------------




--------------------------------------- Iteration      1(  21)  ---------------------------------------


    POTLOK:  cpu time    0.1677: real time    0.1682
    SETDIJ:  cpu time    0.0165: real time    0.0168
    EDDIAG:  cpu time    4.6753: real time    4.6904
  RMM-DIIS:  cpu time   16.7657: real time   16.8217
    ORTHCH:  cpu time    0.4394: real time    0.4407
       DOS:  cpu time    0.0010: real time    0.0010
    CHARGE:  cpu time    2.0760: real time    2.0830
    MIXING:  cpu time    0.0085: real time    0.0085
    --------------------------------------------
      LOOP:  cpu time   24.1502: real time   24.2303

 eigenvalue-minimisations  :  3878
 total energy-change (2. order) : 0.3538462E-01  (-0.4273083E-03)
 number of electron     800.0000057 magnetization 
 augmentation part      246.3779940 magnetization 

 Broyden mixing:
  rms(total) = 0.26784E+00    rms(broyden)= 0.26784E+00
  rms(prec ) = 0.36327E+00
  weight for this iteration     100.00

 eigenvalues of (default mixing * dielectric matrix)
  average eigenvalue GAMMA=   0.6960
  2.3865  1.3567  1.3567  1.2707  1.2707  0.6155  0.6155  0.3873  0.3873  0.0618
  0.2987  0.2987  0.2425  0.2116  0.1773  0.1989

 Free energy of the ion-electron system (eV)
  ---------------------------------------------------
  alpha Z        PSCENC =      2863.44403899
  Ewald energy   TEWEN  =    166761.72339793
  -Hartree energ DENC   =   -230875.49980426
  -exchange      EXHF   =         0.00000000
  -V(xc)+E(xc)   XCENC  =       272.93862974
  PAW double counting   =     76326.08910975   -74336.43052308
  entropy T*S    EENTRO =        -0.11331072
  eigenvalues    EBANDS =       197.73243674
  atomic energy  EATOM  =     58329.24398462
  Solvation  Ediel_sol  =         0.00000000
  ---------------------------------------------------
  free energy    TOTEN  =      -460.87204028 eV

  energy without entropy =     -460.75872956  energy(sigma->0) =     -460.83427004


--------------------------------------------------------------------------------------------------------




--------------------------------------- Iteration      1(  22)  ---------------------------------------


    POTLOK:  cpu time    0.1683: real time    0.1688
    SETDIJ:  cpu time    0.0155: real time    0.0155
    EDDIAG:  cpu time    4.6773: real time    4.6927
  RMM-DIIS:  cpu time   16.7892: real time   16.8437
    ORTHCH:  cpu time    0.4398: real time    0.4415
       DOS:  cpu time    0.0011: real time    0.0011
    CHARGE:  cpu time    2.0798: real time    2.0864
    MIXING:  cpu time    0.0096: real time    0.0096
    --------------------------------------------
      LOOP:  cpu time   24.1807: real time   24.2592

 eigenvalue-minimisations  :  3875
 total energy-change (2. order) : 0.2462370E-01  (-0.3019181E-03)
 number of electron     800.0000057 magnetization 
 augmentation part      246.3906049 magnetization 

 Broyden mixing:
  rms(total) = 0.21201E+00    rms(broyden)= 0.21201E+00
  rms(prec ) = 0.28429E+00
  weight for this iteration     100.00

 eigenvalues of (default mixing * dielectric matrix)
  average eigenvalue GAMMA=   0.7418
  2.4616  1.5406  1.5406  1.1903  1.1903  0.9626  0.9626  0.5163  0.3965  0.3965
  0.3463  0.0618  0.2097  0.2455  0.2352  0.1742  0.1791

 Free energy of the ion-electron system (eV)
  ---------------------------------------------------
  alpha Z        PSCENC =      2863.44403899
  Ewald energy   TEWEN  =    166761.72339793
  -Hartree energ DENC   =   -230874.95242614
  -exchange      EXHF   =         0.00000000
  -V(xc)+E(xc)   XCENC  =       272.96603367
  PAW double counting   =     76318.41466808   -74328.52041227
  entropy T*S    EENTRO =        -0.10903900
  eigenvalues    EBANDS =       196.94233754
  atomic energy  EATOM  =     58329.24398462
  Solvation  Ediel_sol  =         0.00000000
  ---------------------------------------------------
  free energy    TOTEN  =      -460.84741658 eV

  energy without entropy =     -460.73837757  energy(sigma->0) =     -460.81107024


--------------------------------------------------------------------------------------------------------




--------------------------------------- Iteration      1(  23)  ---------------------------------------


    POTLOK:  cpu time    0.1707: real time    0.1712
[...]

  length of vectors
    10.560000006 10.560000420 22.000000000     0.109346642  0.109346638  0.045454545


 FORCES acting on ions
    electron-ion (+dipol)            ewald-force                    non-local-force                 convergence-correction
 -----------------------------------------------------------------------------------------------
   0.411E+00 0.688E-01 -.136E+04   -.413E+00 -.707E-01 0.136E+04   -.578E-02 -.913E-02 0.433E+00   -.291E-02 0.186E-02 -.282E-01
   0.280E+00 -.116E-01 -.137E+04   -.284E+00 0.779E-02 0.136E+04   -.963E-02 -.461E-02 0.425E+00   -.953E-03 0.557E-02 -.270E-01
   0.293E+00 -.124E+01 -.137E+04   -.295E+00 0.124E+01 0.137E+04   -.127E-02 0.332E-01 0.429E+00   -.465E-02 0.235E-02 -.264E-01
   0.887E-01 0.102E+01 0.270E+04   -.769E-01 -.103E+01 -.270E+04   -.153E-01 -.191E-01 -.633E-01   0.360E-02 0.913E-02 -.407E-03
   -.783E+00 0.117E+01 0.269E+04   0.802E+00 -.119E+01 -.269E+04   0.126E-02 0.329E-02 -.623E-01   -.709E-02 0.124E-01 -.103E-03
   -.875E+00 0.123E+01 0.269E+04   0.887E+00 -.126E+01 -.269E+04   0.314E-03 -.254E-02 -.653E-01   -.487E-02 0.141E-01 -.418E-02
   0.291E+00 -.410E+00 0.137E+04   -.291E+00 0.410E+00 -.137E+04   0.856E-02 0.237E-02 -.414E+00   0.820E-02 -.103E-01 -.233E-01
   0.133E+00 -.152E+00 0.137E+04   -.134E+00 0.146E+00 -.136E+04   0.769E-03 0.131E-01 -.427E+00   0.588E-03 0.215E-02 -.163E-01
   0.377E+00 0.214E+00 -.137E+04   -.385E+00 -.208E+00 0.137E+04   0.729E-02 -.106E-01 0.422E+00   -.101E-02 -.486E-02 -.265E-01
   -.103E+01 -.291E-01 0.269E+04   0.106E+01 0.152E-01 -.269E+04   -.797E-02 0.743E-02 -.636E-01   -.114E-01 -.147E-02 -.410E-02
   0.286E+00 -.485E+00 0.137E+04   -.285E+00 0.488E+00 -.137E+04   -.813E-03 0.908E-02 -.422E+00   -.448E-02 -.806E-02 -.235E-01
   0.529E+00 -.737E+00 -.927E+00   -.520E+00 0.734E+00 0.102E+01   -.121E-01 0.149E-01 -.687E-02   -.597E-02 0.377E-02 -.851E-01
   -.476E+00 0.568E+00 -.137E+04   0.473E+00 -.555E+00 0.137E+04   0.679E-02 -.199E-02 0.430E+00   -.492E-03 -.299E-02 -.274E-01
   -.247E+00 -.608E+00 -.136E+04   0.230E+00 0.615E+00 0.136E+04   0.972E-02 0.679E-02 0.427E+00   0.474E-02 0.396E-02 -.266E-01
   -.673E+00 0.780E+00 -.137E+04   0.668E+00 -.771E+00 0.137E+04   0.158E-01 -.179E-01 0.422E+00   -.370E-02 -.756E-02 -.254E-01
   0.137E+00 -.124E+01 0.269E+04   -.121E+00 0.122E+01 -.269E+04   -.399E-02 0.278E-01 -.625E-01   -.103E-02 -.805E-02 -.344E-02
   0.933E+00 -.184E+00 0.269E+04   -.914E+00 0.170E+00 -.269E+04   -.317E-01 0.148E-01 -.663E-01   0.471E-02 -.221E-02 -.627E-02
   0.641E+00 -.744E+00 0.269E+04   -.627E+00 0.725E+00 -.269E+04   -.169E-01 0.237E-01 -.580E-01   0.542E-02 -.381E-02 -.505E-02
   0.425E+00 -.631E-01 0.137E+04   -.427E+00 0.584E-01 -.137E+04   0.790E-03 -.740E-02 -.419E+00   0.881E-02 0.107E-02 -.197E-01
   0.971E+00 -.459E+00 0.216E+01   -.962E+00 0.458E+00 -.209E+01   -.316E-01 0.109E-01 0.132E-01   0.829E-03 0.388E-02 -.866E-01
   0.446E+00 0.321E+00 0.137E+04   -.447E+00 -.328E+00 -.137E+04   -.907E-02 -.164E-01 -.423E+00   -.753E-03 0.113E-01 -.185E-01
   0.288E+00 -.537E+00 0.137E+04   -.283E+00 0.542E+00 -.137E+04   -.450E-02 -.342E-02 -.421E+00   0.480E-02 -.992E-02 -.214E-01
   -.497E+00 0.659E+00 -.136E+04   0.492E+00 -.668E+00 0.136E+04   -.203E-02 -.107E-01 0.425E+00   0.218E-02 0.933E-02 -.267E-01
   0.292E+00 0.285E+00 0.269E+04   -.274E+00 -.303E+00 -.269E+04   -.103E-01 0.396E-02 -.625E-01   -.424E-02 0.387E-02 -.370E-02
   0.312E+00 0.322E+00 0.137E+04   -.307E+00 -.334E+00 -.137E+04   -.483E-02 -.960E-02 -.422E+00   0.623E-02 0.295E-02 -.175E-01
   -.475E+00 0.154E+01 -.130E+00   0.471E+00 -.153E+01 0.214E+00   0.149E-01 -.480E-01 -.192E-02   -.947E-03 0.778E-03 -.844E-01
   0.651E+00 -.602E+00 -.269E+04   -.659E+00 0.606E+00 0.269E+04   -.218E-02 -.110E-02 0.633E-01   -.184E-02 0.493E-03 0.619E-01
   0.336E+00 -.446E+00 -.270E+04   -.346E+00 0.448E+00 0.270E+04   0.158E-01 0.101E-01 0.601E-01   -.369E-02 -.531E-03 0.618E-01
   0.551E+00 -.104E+00 -.269E+04   -.558E+00 0.109E+00 0.269E+04   -.374E-02 -.924E-02 0.619E-01   -.140E-03 0.250E-02 0.604E-01
   0.103E+01 -.239E+00 -.269E+04   -.104E+01 0.248E+00 0.269E+04   -.152E-02 -.982E-02 0.625E-01   -.654E-04 0.182E-03 0.627E-01
   -.596E+00 0.693E+00 -.269E+04   0.581E+00 -.683E+00 0.269E+04   0.329E-02 -.489E-02 0.572E-01   0.205E-02 0.123E-02 0.592E-01
   0.923E+00 0.348E+00 -.269E+04   -.934E+00 -.336E+00 0.269E+04   -.272E-02 -.421E-02 0.620E-01   0.849E-03 -.172E-02 0.619E-01
   0.694E+00 0.699E+00 -.269E+04   -.699E+00 -.689E+00 0.269E+04   0.627E-02 -.708E-02 0.625E-01   -.886E-03 -.213E-02 0.587E-01
   -.679E+00 0.379E+00 -.269E+04   0.665E+00 -.366E+00 0.269E+04   0.113E-01 -.771E-02 0.589E-01   -.402E-04 -.543E-03 0.603E-01
   0.102E+01 -.153E+01 -.269E+04   -.102E+01 0.153E+01 0.269E+04   -.178E-01 0.145E-01 0.587E-01   -.240E-02 0.302E-02 0.625E-01
   -.108E+01 0.159E+01 -.270E+04   0.106E+01 -.157E+01 0.270E+04   0.197E-01 -.282E-01 0.631E-01   -.248E-03 -.567E-02 0.593E-01
   -.975E+00 -.540E+00 -.269E+04   0.952E+00 0.540E+00 0.269E+04   0.253E-01 0.978E-02 0.614E-01   0.209E-02 0.378E-02 0.643E-01
   -.383E+00 0.579E+00 -.269E+04   0.367E+00 -.569E+00 0.269E+04   0.296E-02 -.145E-01 0.586E-01   0.306E-02 -.122E-02 0.648E-01
   0.281E+00 -.137E+01 -.269E+04   -.291E+00 0.137E+01 0.269E+04   0.621E-02 0.116E-01 0.612E-01   -.251E-02 0.433E-02 0.633E-01
   -.800E+00 0.103E+01 -.269E+04   0.784E+00 -.102E+01 0.269E+04   0.746E-02 -.133E-01 0.593E-01   0.314E-03 -.476E-02 0.622E-01
   -.699E+00 0.585E+00 -.136E+04   0.692E+00 -.575E+00 0.136E+04   0.172E-01 -.199E-01 0.430E+00   0.306E-04 -.624E-02 -.258E-01
   0.128E+01 -.114E+01 0.269E+04   -.127E+01 0.114E+01 -.269E+04   -.233E-01 0.129E-01 -.672E-01   0.107E-01 -.103E-01 -.350E-02
   -.440E+00 0.355E+00 -.136E+04   0.434E+00 -.333E+00 0.136E+04   0.111E-01 -.118E-01 0.436E+00   -.375E-02 -.533E-02 -.273E-01
   0.144E+01 -.114E+01 0.269E+04   -.143E+01 0.113E+01 -.270E+04   -.269E-01 0.172E-01 -.656E-01   0.134E-01 -.931E-02 -.173E-02
   0.394E+00 -.643E+00 0.136E+04   -.389E+00 0.645E+00 -.136E+04   -.833E-02 0.118E-01 -.438E+00   -.515E-02 -.327E-02 -.178E-01
   -.844E+00 0.356E+00 0.136E+04   0.858E+00 -.361E+00 -.136E+04   0.151E-01 -.100E-01 -.431E+00   -.436E-02 0.175E-02 -.153E-01
   0.453E+00 0.927E-01 -.136E+04   -.458E+00 -.836E-01 0.136E+04   -.907E-02 0.625E-02 0.426E+00   0.330E-02 -.115E-02 -.281E-01
   -.146E+01 -.203E+00 0.269E+04   0.148E+01 0.192E+00 -.269E+04   0.187E-01 0.103E-01 -.665E-01   -.134E-01 -.379E-02 -.115E-03
   -.111E+01 0.636E+00 0.136E+04   0.113E+01 -.652E+00 -.136E+04   0.277E-01 -.368E-02 -.426E+00   -.933E-02 0.702E-02 -.210E-01
   -.128E+01 0.475E+00 -.269E+04   0.126E+01 -.467E+00 0.269E+04   0.249E-01 -.459E-02 0.574E-01   0.713E-03 -.201E-02 0.639E-01
   -.784E+00 -.342E+00 -.975E+00   0.780E+00 0.342E+00 0.107E+01   0.187E-01 0.808E-02 -.135E-01   0.485E-02 -.148E-02 -.874E-01
   -.456E+00 -.553E+00 -.269E+04   0.439E+00 0.556E+00 0.269E+04   0.997E-02 0.250E-02 0.559E-01   0.284E-02 0.297E-02 0.630E-01
   0.375E+00 -.387E+00 0.136E+04   -.375E+00 0.385E+00 -.136E+04   -.134E-01 0.163E-01 -.433E+00   0.563E-02 -.869E-02 -.157E-01
   -.114E+01 0.225E+00 0.136E+04   0.116E+01 -.225E+00 -.136E+04   0.313E-01 -.804E-02 -.429E+00   -.935E-02 -.624E-02 -.164E-01
   0.534E+00 -.216E+00 0.127E-01   -.528E+00 0.214E+00 0.745E-01   -.186E-01 0.178E-02 0.666E-02   -.523E-02 0.748E-02 -.895E-01
   0.546E+00 -.109E+01 -.136E+04   -.553E+00 0.110E+01 0.136E+04   -.456E-02 0.150E-01 0.433E+00   0.165E-02 0.288E-02 -.285E-01
   -.764E+00 -.686E+00 -.137E+04   0.758E+00 0.688E+00 0.137E+04   0.998E-02 0.182E-01 0.421E+00   -.174E-02 0.338E-02 -.246E-01
   -.161E+00 0.587E+00 0.269E+04   0.178E+00 -.604E+00 -.269E+04   -.243E-01 0.736E-02 -.629E-01   -.191E-02 0.506E-02 -.444E-02
   0.568E+00 0.468E+00 0.269E+04   -.549E+00 -.484E+00 -.269E+04   -.135E-01 0.290E-02 -.586E-01   0.207E-02 0.670E-02 -.569E-02
   0.421E+00 0.199E+00 0.136E+04   -.412E+00 -.207E+00 -.136E+04   -.262E-01 -.976E-03 -.432E+00   -.471E-03 0.547E-02 -.197E-01
   0.346E+00 -.429E+00 0.136E+04   -.341E+00 0.433E+00 -.136E+04   -.236E-01 0.793E-02 -.428E+00   0.470E-02 -.497E-02 -.187E-01
   -.102E+01 0.355E+00 -.268E+01   0.102E+01 -.341E+00 0.278E+01   0.393E-01 -.821E-02 -.144E-01   -.310E-02 -.696E-02 -.819E-01
   0.626E+00 0.322E+00 -.136E+04   -.641E+00 -.311E+00 0.136E+04   0.728E-02 -.235E-01 0.423E+00   0.467E-02 -.353E-02 -.272E-01
   -.572E+00 -.907E+00 0.269E+04   0.591E+00 0.899E+00 -.269E+04   -.741E-02 0.294E-01 -.587E-01   -.471E-02 -.806E-02 -.243E-02
   -.976E-01 0.285E+00 0.921E+00   0.992E-01 -.284E+00 -.838E+00   0.144E-01 -.866E-02 0.182E-02   -.709E-03 0.548E-03 -.920E-01
   0.531E-01 0.585E+00 0.104E+01   -.631E-01 -.587E+00 -.964E+00   -.281E-02 -.190E-01 0.178E-01   0.650E-02 0.658E-02 -.842E-01
   0.143E+01 -.815E+00 0.305E+00   -.144E+01 0.807E+00 -.215E+00   -.364E-01 0.209E-01 -.108E-01   0.501E-02 0.109E-02 -.874E-01
   -.132E+01 0.377E+00 -.136E+01   0.132E+01 -.376E+00 0.146E+01   0.324E-01 -.133E-01 -.104E-01   -.210E-02 0.103E-01 -.875E-01
   -.427E+00 0.100E+01 -.163E+00   0.427E+00 -.990E+00 0.247E+00   0.164E-01 -.352E-01 -.108E-01   0.194E-02 -.430E-02 -.836E-01
   -.915E+00 0.104E+01 0.136E+04   0.928E+00 -.105E+01 -.136E+04   0.118E-01 -.292E-01 -.431E+00   -.497E-02 0.136E-01 -.203E-01
   0.978E+00 0.112E+00 0.236E+01   -.978E+00 -.105E+00 -.228E+01   -.243E-01 -.121E-01 0.150E-02   -.289E-03 -.420E-02 -.914E-01
   0.253E+00 -.210E+00 -.136E+04   -.263E+00 0.224E+00 0.136E+04   0.897E-02 0.171E-02 0.442E+00   0.924E-03 -.371E-02 -.277E-01
   -.107E+00 0.763E+00 -.136E+04   0.986E-01 -.765E+00 0.136E+04   -.164E-02 -.241E-01 0.436E+00   0.167E-02 0.603E-02 -.286E-01
   0.597E-01 -.244E+00 0.270E+04   -.453E-01 0.236E+00 -.270E+04   -.158E-01 0.409E-02 -.656E-01   0.102E-02 -.497E-02 0.117E-02
   0.706E+00 -.438E-01 0.269E+04   -.695E+00 0.292E-01 -.269E+04   -.133E-01 0.307E-02 -.604E-01   0.776E-02 0.650E-03 -.372E-02
   -.104E+01 0.331E-01 -.240E+01   0.104E+01 -.367E-01 0.250E+01   0.220E-01 -.168E-02 -.172E-01   -.392E-02 0.166E-02 -.855E-01
   0.695E+00 -.263E+00 -.415E+00   -.697E+00 0.266E+00 0.503E+00   -.281E-02 0.803E-02 0.599E-02   -.222E-02 -.364E-02 -.870E-01
   0.387E+00 -.143E+00 0.137E+04   -.387E+00 0.138E+00 -.137E+04   -.476E-02 0.348E-02 -.423E+00   -.545E-04 0.612E-02 -.246E-01
   0.756E+00 -.116E+01 0.225E+01   -.757E+00 0.116E+01 -.218E+01   -.122E-01 0.358E-01 0.122E-01   0.365E-02 -.608E-02 -.915E-01
   -.685E+00 -.299E-01 -.705E+00   0.683E+00 0.408E-01 0.793E+00   0.226E-01 0.135E-02 -.451E-02   0.164E-02 -.943E-02 -.864E-01
 -----------------------------------------------------------------------------------------------
   0.325E-01 -.364E-01 0.117E+01   -.535E-12 -.928E-13 -.215E-11   0.153E-01 -.319E-01 -.390E-01   0.976E-04 -.118E-03 -.119E+01
 
 
 POSITION                                       TOTAL-FORCE (eV/Angst)
 -----------------------------------------------------------------------------------
     12.87350      7.95350      7.37876        -0.010343     -0.008537      0.024366
      4.95344      7.95249      7.38337        -0.014746     -0.002069      0.026568
      3.63239      5.66464      7.38544        -0.007803      0.034469      0.029786
     12.89725      7.93444      0.14356        -0.000207     -0.020603     -0.017846
      4.97637      7.93246      0.14799         0.012823     -0.006337     -0.018128
      3.65717      5.64658      0.15310         0.006417     -0.009999     -0.017274
      7.60740      1.84325      2.58560         0.016463     -0.007068     -0.015216
      8.92790      8.70151      2.59005        -0.000452      0.010415     -0.019012
      2.31081      3.38053      7.38699        -0.001526     -0.008755      0.030202
      2.33740      3.35970      0.15263         0.003928     -0.007080     -0.013124
     10.24753      1.84254      2.58808        -0.005430      0.004681     -0.028055
     12.88148      4.89848      4.98847        -0.008766      0.015805     -0.001133
      3.63170      1.09436      7.38621         0.002382      0.008979      0.030877
      8.91193      5.66722      7.38324        -0.002558      0.017195      0.012256
      4.95061      3.38078      7.38855         0.006110     -0.015630      0.028638
      3.65614      1.07267      0.15257         0.009615      0.006859     -0.013567
      8.93875      5.64610      0.14648        -0.007989     -0.001047     -0.015068
      4.97730      3.35924      0.15656         0.000828      0.001873     -0.011667
     11.56788      8.70280      2.58660         0.009037     -0.009921     -0.015252
     11.56303      7.18511      4.98232        -0.021738      0.014762     -0.001240
     12.88948      6.41709      2.58904        -0.011083     -0.011326     -0.023551
      8.92954      4.12981      2.58895         0.005799     -0.008359     -0.012119
      7.59319      7.95323      7.38366        -0.006176     -0.009682      0.016056
      7.61673      7.93237      0.14732         0.003029     -0.008926     -0.012849
     10.24987      6.41637      2.58760         0.006301     -0.016833     -0.014849
      2.32002      0.32833      4.98706         0.007736     -0.039756     -0.001252
     14.18806      8.71802      9.82128        -0.012899      0.004421      0.012458
      3.62595      4.14440      9.83200         0.001223      0.012837      0.017183
      6.26804      8.71790      9.82498        -0.012209     -0.000614      0.015326
     11.54689      4.14586      9.82660        -0.007333      0.000175      0.015177
      8.90793      8.71749      9.82574        -0.009918      0.007032      0.011013
     10.22745      1.85918      9.81989        -0.013074      0.006616      0.017529
      2.30659      1.85866      9.82813        -0.000496      0.002423      0.015267
     11.54762      8.71812      9.82055        -0.002350      0.005082      0.014244
     12.86847      6.43115      9.82403        -0.021581      0.016692      0.009553
      4.94643      1.85979      9.83170         0.004622     -0.010817      0.009019
      7.58641      6.43090      9.82811         0.004789      0.013800      0.012688
      8.90706      4.14603      9.82587        -0.009708     -0.005684      0.011803
      4.94713      6.43067      9.82829        -0.006295      0.016699      0.014128
      7.58737      1.85961      9.82282        -0.008238     -0.000738      0.008328
      7.59090      3.38183      7.38293         0.009366     -0.015367      0.020840
      7.61765      3.36049      0.14774        -0.003646     -0.001373     -0.018889
      6.27159      1.09545      7.38191         0.000474      0.005689      0.029227
      6.29706      1.07393      0.14511        -0.001775      0.000192     -0.013949
     11.56915      4.12927      2.59219        -0.008749      0.010588     -0.031752
      3.64816      4.13028      2.59693         0.022419     -0.012498     -0.022409
      0.99247      1.09370      7.38182        -0.011380      0.015269      0.027055
      1.01556      1.07319      0.14896         0.024182     -0.003366     -0.021239
      6.28678      8.70198      2.59068         0.029774     -0.009865     -0.022094
      6.26597      4.14510      9.82992         0.006020      0.001332      0.016439
      7.60061      4.89898      4.98903         0.018352      0.006671     -0.006849
     10.22741      6.43181      9.82237        -0.004520      0.008969      0.011168
      4.96799      1.84257      2.59473        -0.008399      0.006562     -0.019523
      2.32607      1.84340      2.59360         0.034709     -0.013851     -0.026807
     14.20238      7.18497      4.98603        -0.018655      0.008274      0.005184
     11.55268      5.66657      7.38146        -0.009519      0.024369      0.024336
      6.27176      5.66562      7.38721         0.001350      0.024027      0.021137
     11.57861      5.64653      0.14676        -0.010095     -0.004116     -0.012409
      6.29731      5.64627      0.15421         0.006149     -0.005839     -0.011111
      7.61064      6.41600      2.59173        -0.018487     -0.001778     -0.016214
      6.29014      4.12947      2.59530        -0.014821      0.006609     -0.014553
      3.63771      2.61336      4.99216         0.031706     -0.000442      0.005225
     10.23111      3.38204      7.38173        -0.002772     -0.015990      0.022015
     10.25758      3.35931      0.14701         0.006675      0.014434     -0.015328
     10.24001      0.32621      4.98476         0.014379     -0.005880     -0.005463
      8.92206      7.18635      4.98416        -0.007389     -0.012612      0.007103
     10.24257      4.89845      4.98653        -0.036277      0.014343     -0.008004
      6.28060      7.18568      4.98927         0.028261     -0.000579     -0.000327
      4.95968      0.32831      4.98756         0.017973     -0.025527     -0.010020
      4.96873      6.41733      2.59474         0.018611     -0.028256     -0.021482
      7.60111      0.32696      4.98259        -0.023724     -0.008428     -0.013479
      8.91177      1.09450      7.37739         0.000020      0.013022      0.033390
     10.23334      7.95447      7.37917        -0.008773     -0.018577      0.018921
      8.93714      1.07441      0.14261        -0.001056     -0.007575     -0.018422
     10.25717      7.93299      0.14549         0.004616     -0.009383     -0.017303
      4.96012      4.89881      4.99180         0.016883     -0.002573     -0.000095
     11.55971      2.61230      4.98698        -0.006811      0.008001      0.007081
     14.20788      8.70228      2.58697        -0.005258      0.005865     -0.026365
      8.92035      2.61130      4.98229        -0.008931      0.035235     -0.003627
      6.27887      2.61288      4.98829         0.020934      0.003395     -0.002667
 -----------------------------------------------------------------------------------
    total drift:                                0.047895     -0.068471     -0.061981


--------------------------------------------------------------------------------------------------------



  FREE ENERGIE OF THE ION-ELECTRON SYSTEM (eV)
  ---------------------------------------------------
  free  energy   TOTEN  =      -512.61106824 eV

  energy  without entropy=     -512.51418977  energy(sigma->0) =     -512.57877542
 


--------------------------------------------------------------------------------------------------------


    POTLOK:  cpu time    0.1866: real time    0.1871


--------------------------------------------------------------------------------------------------------




--------------------------------------------------------------------------------------------------------


  
 reached required accuracy - stopping structural energy minimisation
     LOOP+:  cpu time  841.8996: real time  844.6223
    4ORBIT:  cpu time    0.0000: real time    0.0000

 total amount of memory used by VASP MPI-rank0   159396. kBytes
=======================================================================

   base      :      30000. kBytes
   nonlr-proj:      36734. kBytes
   fftplans  :      17962. kBytes
   grid      :      25483. kBytes
   one-center:        311. kBytes
   wavefun   :      48906. kBytes
 
  
  
 General timing and accounting informations for this job:
 ========================================================
  
                  Total CPU time used (sec):      852.633
                            User time (sec):      839.370
                          System time (sec):       13.263
                         Elapsed time (sec):      855.947
  
                   Maximum memory used (kb):      536772.
                   Average memory used (kb):           0.
  
                          Minor page faults:       362789
                          Major page faults:            0
                 Voluntary context switches:         2790
