 vasp.5.4.4.18Apr17-6-g9f103f2a35 (build Nov 30 2020 22:55:02) complex          
  
 executed on             LinuxIFC date 2023.08.04  09:56:11
 running on   40 total cores
 distrk:  each k-point on   40 cores,    1 groups
 distr:  one band on NCORES_PER_BAND=   1 cores,   40 groups


--------------------------------------------------------------------------------------------------------


 INCAR:
 POTCAR:    PAW_PBE Pt 04Feb2005                  
 POTCAR:    PAW_PBE H 15Jun2001                   

 ----------------------------------------------------------------------------- 
|                                                                             |
|           W    W    AA    RRRRR   N    N  II  N    N   GGGG   !!!           |
|           W    W   A  A   R    R  NN   N  II  NN   N  G    G  !!!           |
|           W    W  A    A  R    R  N N  N  II  N N  N  G       !!!           |
|           W WW W  AAAAAA  RRRRR   N  N N  II  N  N N  G  GGG   !            |
|           WW  WW  A    A  R   R   N   NN  II  N   NN  G    G                |
|           W    W  A    A  R    R  N    N  II  N    N   GGGG   !!!           |
|                                                                             |
|      For optimal performance we recommend to set                            |
|        NCORE= 4 - approx SQRT( number of cores)                             |
|      NCORE specifies how many cores store one orbital (NPAR=cpu/NCORE).     |
|      This setting can  greatly improve the performance of VASP for DFT.     |
|      The default,   NCORE=1            might be grossly inefficient         |
|      on modern multi-core architectures or massively parallel machines.     |
|      Do your own testing !!!!                                               |
|      Unfortunately you need to use the default for GW and RPA calculations. |
|      (for HF NCORE is supported but not extensively tested yet)             |
|                                                                             |
 ----------------------------------------------------------------------------- 

 POTCAR:    PAW_PBE Pt 04Feb2005                  
   VRHFIN =Pt: s1d9                                                             
   LEXCH  = PE                                                                  
   EATOM  =   729.1176 eV,   53.5886 Ry                                         
                                                                                
   TITEL  = PAW_PBE Pt 04Feb2005                                                
   LULTRA =        F    use ultrasoft PP ?                                      
   IUNSCR =        1    unscreen: 0-lin 1-nonlin 2-no                           
   RPACOR =    2.330    partial core radius                                     
   POMASS =  195.080; ZVAL   =   10.000    mass and valenz                      
   RCORE  =    2.600    outmost cutoff radius                                   
   RWIGS  =    2.750; RWIGS  =    1.455    wigner-seitz radius (au A)           
   ENMAX  =  230.283; ENMIN  =  172.712 eV                                      
   ICORE  =        3    local potential                                         
   LCOR   =        T    correct aug charges                                     
   LPAW   =        T    paw PP                                                  
   EAUG   =  358.966                                                            
   DEXC   =    0.000                                                            
   RMAX   =    2.658    core radius for proj-oper                               
   RAUG   =    1.300    factor for augmentation sphere                          
   RDEP   =    2.761    radius for radial grids                                 
   RDEPT  =    2.203    core radius for aug-charge                              
                                                                                
   Atomic configuration                                                         
   16 entries                                                                   
     n  l   j            E        occ.                                          
     1  0  0.50    -78401.1885   2.0000                                         
     2  0  0.50    -13770.7750   2.0000                                         
     2  1  1.50    -11931.0468   6.0000                                         
     3  0  0.50     -3234.7234   2.0000                                         
     3  1  1.50     -2699.2216   6.0000                                         
     3  2  2.50     -2119.5714  10.0000                                         
     4  0  0.50      -695.1528   2.0000                                         
     4  1  1.50      -519.6034   6.0000                                         
     4  2  2.50      -306.6786  10.0000                                         
     4  3  3.50       -70.1041  14.0000                                         
     5  0  0.50      -101.7747   2.0000                                         
     5  1  1.50       -55.9873   6.0000                                         
     5  2  2.50        -6.1423   9.0000                                         
     6  0  0.50        -5.6573   1.0000                                         
     6  1  1.50        -6.8029   0.0000                                         
     5  3  2.50        -1.3606   0.0000                                         
   Description                                                                  
     l       E           TYP  RCUT    TYP  RCUT                                 
     2     -6.1423404     23  2.500                                             
     2     -7.5029230     23  2.500                                             
     0     -5.6573207     23  2.500                                             
     0      0.7416693     23  2.500                                             
     1     -2.7211652     23  2.600                                             
     1     20.4087390     23  2.600                                             
     3     -1.3605826     23  2.500                                             
  local pseudopotential read in
  partial core-charges read in
  partial kinetic energy density read in
  atomic valenz-charges read in
  non local Contribution for L=           2  read in
    real space projection operators read in
  non local Contribution for L=           2  read in
    real space projection operators read in
  non local Contribution for L=           0  read in
    real space projection operators read in
  non local Contribution for L=           0  read in
    real space projection operators read in
  non local Contribution for L=           1  read in
    real space projection operators read in
  non local Contribution for L=           1  read in
    real space projection operators read in
    PAW grid and wavefunctions read in
 
   number of l-projection  operators is LMAX  =           6
   number of lm-projection operators is LMMAX =          18
 
 POTCAR:    PAW_PBE H 15Jun2001                   
   VRHFIN =H: ultrasoft test                                                    
   LEXCH  = PE                                                                  
   EATOM  =    12.4884 eV,    0.9179 Ry                                         
                                                                                
   TITEL  = PAW_PBE H 15Jun2001                                                 
   LULTRA =        F    use ultrasoft PP ?                                      
   IUNSCR =        0    unscreen: 0-lin 1-nonlin 2-no                           
   RPACOR =    0.000    partial core radius                                     
   POMASS =    1.000; ZVAL   =    1.000    mass and valenz                      
   RCORE  =    1.100    outmost cutoff radius                                   
   RWIGS  =    0.700; RWIGS  =    0.370    wigner-seitz radius (au A)           
   ENMAX  =  250.000; ENMIN  =  200.000 eV                                      
   RCLOC  =    0.701    cutoff for local pot                                    
   LCOR   =        T    correct aug charges                                     
   LPAW   =        T    paw PP                                                  
   EAUG   =  400.000                                                            
   RMAX   =    1.123    core radius for proj-oper                               
   RAUG   =    1.200    factor for augmentation sphere                          
   RDEP   =    1.112    radius for radial grids                                 
   RDEPT  =    0.926    core radius for aug-charge                              
                                                                                
   Atomic configuration                                                         
    2 entries                                                                   
     n  l   j            E        occ.                                          
     1  0  0.50        -6.4927   1.0000                                         
     2  1  0.50        -3.4015   0.0000                                         
   Description                                                                  
     l       E           TYP  RCUT    TYP  RCUT                                 
     0     -6.4927494     23  1.100                                             
     0      6.8029130     23  1.100                                             
     1     -4.0817478     23  1.100                                             
  local pseudopotential read in
  atomic valenz-charges read in
  non local Contribution for L=           0  read in
    real space projection operators read in
  non local Contribution for L=           0  read in
    real space projection operators read in
  non local Contribution for L=           1  read in
    real space projection operators read in
    PAW grid and wavefunctions read in
 
   number of l-projection  operators is LMAX  =           3
   number of lm-projection operators is LMMAX =           5
 
 Optimization of the real space projectors (new method)

 maximal supplied QI-value         = 14.36
 optimisation between [QCUT,QGAM] = [ 11.92, 23.98] = [ 39.79,161.09] Ry 
 Optimized for a Real-space Cutoff    1.49 Angstroem

   l    n(q)    QCUT    max X(q) W(low)/X(q) W(high)/X(q)  e(spline) 
   2     10    11.920    66.195    0.79E-04    0.18E-03    0.24E-06
   2     10    11.920    64.643    0.81E-04    0.19E-03    0.24E-06
   0     11    11.920    95.520    0.28E-04    0.54E-04    0.18E-06
   0     11    11.920    63.403    0.27E-04    0.52E-04    0.17E-06
   1     10    11.920    19.961    0.18E-04    0.11E-03    0.23E-06
   1     10    11.920    13.289    0.25E-04    0.87E-04    0.19E-06
 Optimization of the real space projectors (new method)

 maximal supplied QI-value         = 34.20
 optimisation between [QCUT,QGAM] = [ 11.97, 23.94] = [ 40.13,160.53] Ry 
 Optimized for a Real-space Cutoff    1.18 Angstroem

   l    n(q)    QCUT    max X(q) W(low)/X(q) W(high)/X(q)  e(spline) 
   0      8    11.971    19.460    0.15E-03    0.31E-03    0.25E-06
   0      8    11.971    12.209    0.13E-03    0.29E-03    0.25E-06
   1      8    11.971     4.655    0.22E-03    0.24E-03    0.21E-06
  PAW_PBE Pt 04Feb2005                  :
 energy of atom  1       EATOM= -729.1176
 kinetic energy error for atom=    0.0021 (will be added to EATOM!!)
  PAW_PBE H 15Jun2001                   :
 energy of atom  2       EATOM=  -12.4884
 kinetic energy error for atom=    0.0008 (will be added to EATOM!!)
 
 
 POSCAR: Pt111\(1\1\1)\(2)                       
  positions in cartesian coordinates
  No initial velocities read in
 exchange correlation table for  LEXCH =        8
   RHO(1)=    0.500       N(1)  =     2000
   RHO(2)=  100.500       N(2)  =     4000
 


--------------------------------------------------------------------------------------------------------


 ion  position               nearest neighbor table
   1  1.000  0.000  0.056-   5 2.64   9 2.64  13 2.64  29 2.64  57 2.64  37 2.64  42 2.87  14 2.87
                            54 2.87
   2  0.333  0.167  0.178-  30 2.64  26 2.64  38 2.64  42 2.64  14 2.64   6 2.64  11 2.83   7 2.86
                            15 2.87   9 2.87  21 2.87  13 2.87
   3  0.168  0.334  0.299-  15 2.62  43 2.62   7 2.63  39 2.63  27 2.65  31 2.65   8 2.81   6 2.86
                            10 2.86  14 2.87  48 2.97  12 2.97
   4  1.000  0.000  0.419-  12 2.62  60 2.64  40 2.64  32 2.64  16 2.64   8 2.64   7 2.86  63 2.87
                            27 2.88
   5  1.000  0.250  0.056-   1 2.64  45 2.64  33 2.64   9 2.64  29 2.64  25 2.64  14 2.87  10 2.87
                            18 2.87
   6  0.333  0.417  0.178-  26 2.64  62 2.64  10 2.64  34 2.64  14 2.64   2 2.64   3 2.86  15 2.86
                            43 2.86  45 2.87  49 2.87   9 2.87
   7  0.167  0.085  0.299-  15 2.63   3 2.63  27 2.64  11 2.64  63 2.65  35 2.65   2 2.86  14 2.86
                            16 2.86   4 2.86  42 2.87  12 2.95
   8  0.999  0.250  0.416-  28 2.63  32 2.63  36 2.64   4 2.64  48 2.66  12 2.66   3 2.81  31 2.82
                            27 2.83
   9  0.250  0.250  0.056-  21 2.64  13 2.64   1 2.64  49 2.64  45 2.64   5 2.64   2 2.87  14 2.87
                             6 2.87
  10  0.083  0.417  0.178-  34 2.64   6 2.64  46 2.64  14 2.64  18 2.64  22 2.64  31 2.83  39 2.86
                             3 2.86  33 2.87  45 2.87   5 2.87
  11  0.417  0.083  0.297-  47 2.63  35 2.64   7 2.64  23 2.64  19 2.65  15 2.65  24 2.83  38 2.83
                             2 2.83  30 2.83  16 2.88  20 2.91
  12  0.249  0.247  0.426-  65 1.85  16 2.62   4 2.62  24 2.66   8 2.66  52 2.69  48 2.69   7 2.95
                             3 2.97  15 2.97
  13  0.250  0.000  0.056-  21 2.64   9 2.64  17 2.64   1 2.64  37 2.64  41 2.64  38 2.87   2 2.87
                            42 2.87
  14  0.083  0.167  0.178-  42 2.64  54 2.64   6 2.64   2 2.64  10 2.64  18 2.64  27 2.83   7 2.86
                             3 2.87   5 2.87   1 2.87   9 2.87
  15  0.416  0.334  0.299-   3 2.62  43 2.62   7 2.63  55 2.63  11 2.65  19 2.65  24 2.81   6 2.86
                            26 2.86   2 2.87  52 2.97  12 2.97
  16  0.250  0.000  0.419-  12 2.62  44 2.64  40 2.64  20 2.64   4 2.64  24 2.64   7 2.86  35 2.87
                            11 2.88
  17  0.500  0.000  0.056-  29 2.64  25 2.64  13 2.64  21 2.64  41 2.64  53 2.64  58 2.87  30 2.87
                            38 2.87
  18  0.833  0.167  0.178-  54 2.64  58 2.64  22 2.64  10 2.64  30 2.64  14 2.64  27 2.83  31 2.83
                            23 2.86  25 2.87  29 2.87   5 2.87
  19  0.667  0.334  0.297-  31 2.63  59 2.64  55 2.64  23 2.64  11 2.65  15 2.65  24 2.82  22 2.83
                            26 2.83  30 2.83  64 2.88  28 2.91
  20  0.500  0.000  0.421-  56 2.63  24 2.63  16 2.64  44 2.64  32 2.64  28 2.64  23 2.88  11 2.91
                            47 2.91
  21  0.500  0.250  0.056-  25 2.64  61 2.64   9 2.64  13 2.64  49 2.64  17 2.64  30 2.87   2 2.87
                            26 2.87
  22  0.833  0.417  0.178-  50 2.64  26 2.64  30 2.64  18 2.64  46 2.64  10 2.64  19 2.83  31 2.83
                            59 2.84  61 2.87  25 2.87  33 2.87
  23  0.667  0.083  0.299-  31 2.64  19 2.64  51 2.64  47 2.64  27 2.64  11 2.64  18 2.86  30 2.86
                            58 2.86  32 2.88  20 2.88  28 2.88
  24  0.501  0.250  0.416-  28 2.63  20 2.63  64 2.64  16 2.64  52 2.66  12 2.66  15 2.81  19 2.82
                            11 2.83
  25  0.750  0.250  0.056-  17 2.64  21 2.64  29 2.64  61 2.64  33 2.64   5 2.64  18 2.87  22 2.87
                            30 2.87
  26  0.583  0.417  0.178-   6 2.64   2 2.64  22 2.64  30 2.64  62 2.64  50 2.64  19 2.83  55 2.86
                            15 2.86  49 2.87  61 2.87  21 2.87
  27  0.917  0.083  0.297-  51 2.63  63 2.64   7 2.64  23 2.64  31 2.65   3 2.65   8 2.83  54 2.83
                            14 2.83  18 2.83   4 2.88  32 2.91
  28  0.750  0.251  0.421-  24 2.63   8 2.63  64 2.64  36 2.64  20 2.64  32 2.64  23 2.88  19 2.91
                            31 2.91
  29  0.750  0.000  0.056-  17 2.64  25 2.64   5 2.64  53 2.64   1 2.64  57 2.64  54 2.87  18 2.87
                            58 2.87
  30  0.583  0.167  0.178-   2 2.64  38 2.64  58 2.64  26 2.64  22 2.64  18 2.64  11 2.83  19 2.83
                            23 2.86  21 2.87  17 2.87  25 2.87
  31  0.917  0.334  0.297-  19 2.63  59 2.64  39 2.64  23 2.64  27 2.65   3 2.65   8 2.82  22 2.83
                            10 2.83  18 2.83  36 2.88  28 2.91
  32  0.750  0.000  0.421-  56 2.63   8 2.63   4 2.64  60 2.64  20 2.64  28 2.64  23 2.88  27 2.91
                            51 2.91
  33  1.000  0.500  0.056-  37 2.64  41 2.64   5 2.64  45 2.64  25 2.64  61 2.64  10 2.87  46 2.87
                            22 2.87
  34  0.333  0.667  0.178-  62 2.64  10 2.64  58 2.64  46 2.64   6 2.64  38 2.64  47 2.83  39 2.86
                            43 2.86  41 2.87  45 2.87  53 2.87
  35  0.167  0.833  0.297-  59 2.64  63 2.64  47 2.64  11 2.64   7 2.65  39 2.65  42 2.84  38 2.84
                            46 2.84  40 2.86  44 2.87  16 2.87
  36  0.000  0.500  0.419-  48 2.62  64 2.64  40 2.64  44 2.64  28 2.64   8 2.64  39 2.86  59 2.87
                            31 2.88
  37  1.000  0.750  0.056-  33 2.64  41 2.64  61 2.64  57 2.64  13 2.64   1 2.64  46 2.87  50 2.87
                            42 2.87
  38  0.333  0.917  0.178-  58 2.64  30 2.64   2 2.64  42 2.64  34 2.64  46 2.64  47 2.83  11 2.83
                            35 2.84  13 2.87  17 2.87  41 2.87
  39  0.167  0.583  0.299-  43 2.63   3 2.63  31 2.64  47 2.64  59 2.65  35 2.65  34 2.86  10 2.86
                            36 2.86  44 2.86  46 2.87  48 2.95
  40  0.000  0.750  0.418-  36 2.64  64 2.64  16 2.64   4 2.64  44 2.64  60 2.64  63 2.86  35 2.86
                            59 2.86
  41  0.250  0.750  0.056-  45 2.64  33 2.64  37 2.64  53 2.64  17 2.64  13 2.64  34 2.87  46 2.87
                            38 2.87
  42  0.083  0.917  0.178-  14 2.64   2 2.64  38 2.64  46 2.64  50 2.64  54 2.64  63 2.84  35 2.84
                             7 2.87   1 2.87  13 2.87  37 2.87
  43  0.416  0.582  0.299-  15 2.62   3 2.62  39 2.63  55 2.63  51 2.65  47 2.65  56 2.81   6 2.86
                            62 2.86  34 2.86  52 2.97  48 2.97
  44  0.250  0.750  0.419-  48 2.62  16 2.64  40 2.64  36 2.64  20 2.64  56 2.64  39 2.86  35 2.87
                            47 2.88
  45  0.250  0.500  0.056-  41 2.64  53 2.64   5 2.64   9 2.64  49 2.64  33 2.64   6 2.87  10 2.87
                            34 2.87
  46  0.083  0.667  0.178-  34 2.64  50 2.64  10 2.64  42 2.64  22 2.64  38 2.64  59 2.84  35 2.84
                            39 2.87  37 2.87  33 2.87  41 2.87
  47  0.417  0.834  0.297-  11 2.63  35 2.64  23 2.64  39 2.64  51 2.65  43 2.65  56 2.83  38 2.83
                            58 2.83  34 2.83  44 2.88  20 2.91
  48  0.249  0.502  0.426-  65 1.86  44 2.62  36 2.62   8 2.66  56 2.66  52 2.68  12 2.69  39 2.95
                            43 2.97   3 2.97
  49  0.500  0.500  0.056-  61 2.64  53 2.64  57 2.64  21 2.64   9 2.64  45 2.64  26 2.87   6 2.87
                            62 2.87
  50  0.833  0.667  0.178-  22 2.64  46 2.64  26 2.64  42 2.64  54 2.64  62 2.64  59 2.84  63 2.84
                            55 2.87  57 2.87  61 2.87  37 2.87
  51  0.667  0.834  0.297-  27 2.63  63 2.64  23 2.64  55 2.64  47 2.65  43 2.65  56 2.83  54 2.83
                            58 2.83  62 2.83  60 2.88  32 2.91
  52  0.503  0.502  0.426-  65 1.86  60 2.62  64 2.62  24 2.66  56 2.66  48 2.68  12 2.69  55 2.95
                            43 2.97  15 2.97
  53  0.500  0.750  0.056-  49 2.64  57 2.64  45 2.64  41 2.64  29 2.64  17 2.64  62 2.87  34 2.87
                            58 2.87
  54  0.833  0.917  0.178-  18 2.64  14 2.64  50 2.64  58 2.64  42 2.64  62 2.64  51 2.83  27 2.83
                            63 2.84  29 2.87   1 2.87  57 2.87
  55  0.665  0.583  0.299-  43 2.63  15 2.63  19 2.64  51 2.64  59 2.65  63 2.65  62 2.86  26 2.86
                            64 2.86  60 2.86  50 2.87  52 2.95
  56  0.501  0.751  0.416-  32 2.63  20 2.63  60 2.64  44 2.64  52 2.66  48 2.66  43 2.81  47 2.83
                            51 2.83
  57  0.750  0.750  0.056-  61 2.64  49 2.64  53 2.64  37 2.64   1 2.64  29 2.64  50 2.87  62 2.87
                            54 2.87
  58  0.583  0.917  0.178-  38 2.64  30 2.64  18 2.64  34 2.64  62 2.64  54 2.64  47 2.83  51 2.83
                            23 2.86  17 2.87  29 2.87  53 2.87
  59  0.917  0.584  0.297-  35 2.64  63 2.64  31 2.64  19 2.64  55 2.65  39 2.65  46 2.84  50 2.84
                            22 2.84  40 2.86  36 2.87  64 2.87
  60  0.750  0.750  0.419-  52 2.62   4 2.64  40 2.64  64 2.64  32 2.64  56 2.64  55 2.86  63 2.87
                            51 2.88
  61  0.750  0.500  0.056-  49 2.64  57 2.64  21 2.64  25 2.64  37 2.64  33 2.64  22 2.87  26 2.87
                            50 2.87
  62  0.583  0.667  0.178-  34 2.64   6 2.64  26 2.64  58 2.64  54 2.64  50 2.64  51 2.83  55 2.86
                            43 2.86  53 2.87  49 2.87  57 2.87
  63  0.917  0.833  0.297-  59 2.64  35 2.64  51 2.64  27 2.64   7 2.65  55 2.65  42 2.84  50 2.84
                            54 2.84  40 2.86  60 2.87   4 2.87
  64  0.750  0.500  0.419-  52 2.62  36 2.64  40 2.64  60 2.64  28 2.64  24 2.64  55 2.86  59 2.87
                            19 2.88
  65  0.333  0.416  0.477-  12 1.85  48 1.86  52 1.86
 
  LATTYP: Found a hexagonal cell.
 ALAT       =    10.5600004196
 C/A-ratio  =     1.8939393187
  
  Lattice vectors:
  
 A1 = (  10.5600004196,   0.0000000000,   0.0000000000)
 A2 = (  -5.2800002098,   9.1452286274,   0.0000000000)
 A3 = (   0.0000000000,   0.0000000000,  20.0000000000)


Analysis of symmetry for initial positions (statically):
=====================================================================
 Subroutine PRICEL returns:
 Original cell was already a primitive cell.
 

 Routine SETGRP: Setting up the symmetry group for a 
 hexagonal supercell.


 Subroutine GETGRP returns: Found  1 space group operations
 (whereof  1 operations were pure point group operations)
 out of a pool of 24 trial point group operations.


The static configuration has the point symmetry C_1 .


Analysis of symmetry for dynamics (positions and initial velocities):
=====================================================================
 Subroutine PRICEL returns:
 Original cell was already a primitive cell.
 

 Routine SETGRP: Setting up the symmetry group for a 
 hexagonal supercell.


 Subroutine GETGRP returns: Found  1 space group operations
 (whereof  1 operations were pure point group operations)
 out of a pool of 24 trial point group operations.


The dynamic configuration has the point symmetry C_1 .


Analysis of constrained symmetry for selective dynamics:
=====================================================================
 Subroutine PRICEL returns:
 Original cell was already a primitive cell.
 

 Routine SETGRP: Setting up the symmetry group for a 
 hexagonal supercell.


 Subroutine GETGRP returns: Found  1 space group operations
 (whereof  1 operations were pure point group operations)
 out of a pool of 24 trial point group operations.


The constrained configuration has the point symmetry C_1 .


Analysis of structural, dynamic, and magnetic symmetry:
=====================================================================
 Subroutine PRICEL returns:
 Original cell was already a primitive cell.
 

 Routine SETGRP: Setting up the symmetry group for a 
 hexagonal supercell.


 Subroutine GETGRP returns: Found  1 space group operations
 (whereof  1 operations were pure point group operations)
 out of a pool of 24 trial point group operations.


The magnetic configuration has the point symmetry C_1 .


 Subroutine INISYM returns: Found  1 space group operations
 (whereof  1 operations are pure point group operations),
 and found     1 'primitive' translations

 
 
 KPOINTS: mesh auto                               

Automatic generation of k-mesh.
Space group operators:
 irot       det(A)        alpha          n_x          n_y          n_z        tau_x        tau_y        tau_z
    1     1.000000     0.000000     1.000000     0.000000     0.000000     0.000000     0.000000     0.000000
 
 Subroutine IBZKPT returns following result:
 ===========================================
 
 Found      4 irreducible k-points:
 
 Following reciprocal coordinates:
            Coordinates               Weight
  0.000000  0.000000  0.000000      1.000000
  0.500000 -0.000000  0.000000      1.000000
  0.000000  0.500000  0.000000      1.000000
  0.500000  0.500000  0.000000      1.000000
 
 Following cartesian coordinates:
            Coordinates               Weight
  0.000000  0.000000  0.000000      1.000000
  0.047348  0.027337  0.000000      1.000000
  0.000000  0.054673  0.000000      1.000000
  0.047348  0.082010  0.000000      1.000000
 
 TETIRR: Found     12 inequivalent tetrahedra from       24
 
 Subroutine IBZKPT_HF returns following result:
 ==============================================
 
 Found      4 k-points in 1st BZ
 the following      4 k-points will be used (e.g. in the exchange kernel)
 Following reciprocal coordinates:   # in IRBZ
  0.000000  0.000000  0.000000    0.25000000   1 t-inv F
  0.500000 -0.000000  0.000000    0.25000000   2 t-inv F
  0.000000  0.500000  0.000000    0.25000000   3 t-inv F
  0.500000  0.500000  0.000000    0.25000000   4 t-inv F


--------------------------------------------------------------------------------------------------------




 Dimension of arrays:
   k-points           NKPTS =      4   k-points in BZ     NKDIM =      4   number of bands    NBANDS=    440
   number of dos      NEDOS =    301   number of ions     NIONS =     65
   non local maximal  LDIM  =      6   non local SUM 2l+1 LMDIM =     18
   total plane-waves  NPLWV = ******
   max r-space proj   IRMAX =   8171   max aug-charges    IRDMAX=  35597
   dimension x,y,z NGX =    84 NGY =   84 NGZ =  160
   dimension x,y,z NGXF=   168 NGYF=  168 NGZF=  320
   support grid    NGXF=   168 NGYF=  168 NGZF=  320
   ions per type =              64   1
   NGX,Y,Z   is equivalent  to a cutoff of  13.22, 13.22, 13.30 a.u.
   NGXF,Y,Z  is equivalent  to a cutoff of  26.45, 26.45, 26.60 a.u.

 SYSTEM =  Pt111                                   
 POSCAR =  Pt111\(1\1\1)\(2)                       

 Startparameter for this run:
   NWRITE =      2    write-flag & timer
   PREC   = accura    normal or accurate (medium, high low for compatibility)
   ISTART =      0    job   : 0-new  1-cont  2-samecut
   ICHARG =      2    charge: 1-file 2-atom 10-const
   ISPIN  =      2    spin polarized calculation?
   LNONCOLLINEAR =      F non collinear calculations
   LSORBIT =      F    spin-orbit coupling
   INIWAV =      1    electr: 0-lowe 1-rand  2-diag
   LASPH  =      F    aspherical Exc in radial PAW
   METAGGA=      F    non-selfconsistent MetaGGA calc.

 Electronic Relaxation 1
   ENCUT  =  550.0 eV  40.42 Ry    6.36 a.u.  20.19 20.19 38.24*2*pi/ulx,y,z
   ENINI  =  550.0     initial cutoff
   ENAUG  =  400.0 eV  augmentation charge cutoff
   NELM   =    200;   NELMIN=  2; NELMDL= -5     # of ELM steps 
   EDIFF  = 0.1E-04   stopping-criterion for ELM
   LREAL  =      T    real-space projection
   NLSPLINE    = F    spline interpolate recip. space projectors
   LCOMPAT=      F    compatible to vasp.4.4
   GGA_COMPAT  = T    GGA compatible to vasp.4.4-vasp.4.6
   LMAXPAW     = -100 max onsite density
   LMAXMIX     =    2 max onsite mixed and CHGCAR
   VOSKOWN=      0    Vosko Wilk Nusair interpolation
   ROPT   =   -0.00025  -0.00025
 Ionic relaxation
   EDIFFG = -.5E-01   stopping-criterion for IOM
   NSW    =    817    number of steps for IOM
   NBLOCK =      1;   KBLOCK =    817    inner block; outer block 
   IBRION =      5    ionic relax: 0-MD 1-quasi-New 2-CG
   NFREE  =      2    steps in history (QN), initial steepest desc. (CG)
   ISIF   =      2    stress and relaxation
   IWAVPR =     11    prediction:  0-non 1-charg 2-wave 3-comb
   ISYM   =      2    0-nonsym 1-usesym 2-fastsym
   LCORR  =      T    Harris-Foulkes like correction to forces

   POTIM  = 0.5000    time-step for ionic-motion
   TEIN   =    0.0    initial temperature
   TEBEG  =    0.0;   TEEND  =   0.0 temperature during run
   SMASS  =  -3.00    Nose mass-parameter (am)
   estimated Nose-frequenzy (Omega)   =  0.10E-29 period in steps =****** mass=  -0.255E-26a.u.
   SCALEE = 1.0000    scale energy and forces
   NPACO  =    256;   APACO  = 16.0  distance and # of slots for P.C.
   PSTRESS=    0.0 pullay stress

  Mass of Ions in am
   POMASS = 195.08  1.00
  Ionic Valenz
   ZVAL   =  10.00  1.00
  Atomic Wigner-Seitz radii
   RWIGS  =  -1.00 -1.00
  virtual crystal weights 
   VCA    =   1.00  1.00
   NELECT =     641.0000    total number of electrons
   NUPDOWN=      -1.0000    fix difference up-down

 DOS related values:
   EMIN   =  10.00;   EMAX   =-10.00  energy-range for DOS
   EFERMI =   0.00
   ISMEAR =    -5;   SIGMA  =   0.10  broadening in eV -4-tet -1-fermi 0-gaus

 Electronic relaxation 2 (details)
   IALGO  =     68    algorithm
   LDIAG  =      T    sub-space diagonalisation (order eigenvalues)
   LSUBROT=      F    optimize rotation matrix (better conditioning)
   TURBO    =      0    0=normal 1=particle mesh
   IRESTART =      0    0=no restart 2=restart with 2 vectors
   NREBOOT  =      0    no. of reboots
   NMIN     =      0    reboot dimension
   EREF     =   0.00    reference energy to select bands
   IMIX   =      4    mixing-type and parameters
     AMIX     =   0.40;   BMIX     =  1.00
     AMIX_MAG =   1.60;   BMIX_MAG =  1.00
     AMIN     =   0.10
     WC   =   100.;   INIMIX=   1;  MIXPRE=   1;  MAXMIX= -45

 Intra band minimization:
   WEIMIN = 0.0010     energy-eigenvalue tresh-hold
   EBREAK =  0.57E-08  absolut break condition
   DEPER  =   0.30     relativ break condition  

   TIME   =   0.40     timestep for ELM

  volume/ion in A,a.u.               =      29.71       200.53
  Fermi-wavevector in a.u.,A,eV,Ry     =   1.133439  2.141888 17.479175  1.284683
  Thomas-Fermi vector in A             =   2.270141
 
 Write flags
   LWAVE        =      F    write WAVECAR
   LDOWNSAMPLE  =      F    k-point downsampling of WAVECAR
   LCHARG       =      F    write CHGCAR
   LVTOT        =      F    write LOCPOT, total local potential
   LVHAR        =      F    write LOCPOT, Hartree potential only
   LELF         =      F    write electronic localiz. function (ELF)
   LORBIT       =      0    0 simple, 1 ext, 2 COOP (PROOUT), +10 PAW based schemes


 Dipole corrections
   LMONO  =      F    monopole corrections only (constant potential shift)
   LDIPOL =      F    correct potential (dipole corrections)
   IDIPOL =      0    1-x, 2-y, 3-z, 4-all directions 
   EPSILON=  1.0000000 bulk dielectric constant

 Exchange correlation treatment:
   GGA     =    --    GGA type
   LEXCH   =     8    internal setting for exchange type
   VOSKOWN=      0    Vosko Wilk Nusair interpolation
   LHFCALC =     F    Hartree Fock is set to
   LHFONE  =     F    Hartree Fock one center treatment
   AEXX    =    0.0000 exact exchange contribution

 Linear response parameters
   LEPSILON=     F    determine dielectric tensor
   LRPA    =     F    only Hartree local field effects (RPA)
   LNABLA  =     F    use nabla operator in PAW spheres
   LVEL    =     F    velocity operator in full k-point grid
   LINTERFAST=   F  fast interpolation
   KINTER  =     0    interpolate to denser k-point grid
   CSHIFT  =0.1000    complex shift for real part using Kramers Kronig
   OMEGAMAX=  -1.0    maximum frequency
   DEG_THRESHOLD= 0.2000000E-02 threshold for treating states as degnerate
   RTIME   =   -0.100 relaxation time in fs
  (WPLASMAI=    0.000 imaginary part of plasma frequency in eV, 0.658/RTIME)
   DFIELD  = 0.0000000 0.0000000 0.0000000 field for delta impulse in time
 
 Orbital magnetization related:
   ORBITALMAG=     F  switch on orbital magnetization
   LCHIMAG   =     F  perturbation theory with respect to B field
   DQ        =  0.001000  dq finite difference perturbation B field
   LLRAUG    =     F  two centre corrections for induced B field



--------------------------------------------------------------------------------------------------------


 finite differences
   using selective dynamics as specified on POSCAR
   WARNING: If single coordinates had been selected the selection of coordinates
            is made according to the corresponding   d i r e c t   coordinates!
            Don't support selection of single cartesian coordinates -- sorry ...
  !
 charge density and potential will be updated during run
 spin polarized calculation
 RMM-DIIS sequential band-by-band and
  variant of blocked Davidson during initial phase
 perform sub-space diagonalisation
    before iterative eigenvector-optimisation
 modified Broyden-mixing scheme, WC =      100.0
 initial mixing is a Kerker type mixing with AMIX =  0.4000 and BMIX =      1.0000
 Hartree-type preconditioning will be used
 using additional bands          119
 real space projection scheme for non local part
 use partial core corrections
 calculate Harris-corrections to forces 
   (improved forces if not selfconsistent)
 use gradient corrections 
 use of overlap-Matrix (Vanderbilt PP)
 Fermi weights with tetrahedron method with Bloechl corrections


--------------------------------------------------------------------------------------------------------


  energy-cutoff  :      550.00
  volume of cell :     1931.47
      direct lattice vectors                 reciprocal lattice vectors
    10.560000420  0.000000000  0.000000000     0.094696966  0.054673319  0.000000000
    -5.280000210  9.145228627  0.000000000     0.000000000  0.109346638  0.000000000
     0.000000000  0.000000000 20.000000000     0.000000000  0.000000000  0.050000000

  length of vectors
    10.560000420 10.560000420 20.000000000     0.109346638  0.109346638  0.050000000


 
 k-points in units of 2pi/SCALE and weight: mesh auto                               
   0.00000000  0.00000000  0.00000000       0.250
   0.04734848  0.02733666  0.00000000       0.250
   0.00000000  0.05467332  0.00000000       0.250
   0.04734848  0.08200998  0.00000000       0.250
 
 k-points in reciprocal lattice and weights: mesh auto                               
   0.00000000  0.00000000  0.00000000       0.250
   0.50000000 -0.00000000  0.00000000       0.250
   0.00000000  0.50000000  0.00000000       0.250
   0.50000000  0.50000000  0.00000000       0.250
 
 position of ions in fractional coordinates (direct lattice) 
   0.99999844  0.00000156  0.05579229
   0.33333173  0.16666826  0.17752397
   0.16789213  0.33403322  0.29863071
   0.99999387  0.00001869  0.41923595
   0.99999844  0.25000155  0.05579229
   0.33333172  0.41666827  0.17752397
   0.16745864  0.08491248  0.29856887
   0.99903384  0.24980324  0.41581712
   0.24999844  0.25000155  0.05579229
   0.08333172  0.41666827  0.17752397
   0.41656665  0.08314265  0.29677035
   0.24868992  0.24737517  0.42607214
   0.24999844  0.00000156  0.05579229
   0.08333172  0.16666826  0.17752397
   0.41614589  0.33403322  0.29863071
   0.25002948  0.00001869  0.41923595
   0.49999844  0.00000156  0.05579229
   0.83333168  0.16666826  0.17752397
   0.66707099  0.33364725  0.29678313
   0.50000026  0.00017561  0.42052524
   0.49999843  0.25000155  0.05579229
   0.83333168  0.41666827  0.17752397
   0.66674699  0.08348911  0.29863634
   0.50077406  0.24980324  0.41581712
   0.74999841  0.25000155  0.05579229
   0.58333168  0.41666827  0.17752397
   0.91658082  0.08314265  0.29677035
   0.75025392  0.25050324  0.42060703
   0.74999842  0.00000156  0.05579229
   0.58333166  0.16666826  0.17752397
   0.91658108  0.33364725  0.29678313
   0.75018000  0.00017561  0.42052524
   0.99999844  0.50000154  0.05579229
   0.33333171  0.66666826  0.17752397
   0.16659900  0.83340150  0.29744137
   0.00007607  0.50044686  0.41915474
   0.99999843  0.75000151  0.05579229
   0.33333173  0.91666828  0.17752397
   0.16745807  0.58274108  0.29851833
   0.00013306  0.75026142  0.41832325
   0.24999843  0.75000151  0.05579229
   0.08333173  0.91666828  0.17752397
   0.41615746  0.58231005  0.29864645
   0.24997829  0.75027909  0.41916804
   0.24999844  0.50000154  0.05579229
   0.08333171  0.66666826  0.17752397
   0.41656907  0.83365652  0.29676610
   0.24873591  0.50167992  0.42590148
   0.49999844  0.50000154  0.05579229
   0.83333171  0.66666826  0.17752397
   0.66709232  0.83365652  0.29676610
   0.50294868  0.50167992  0.42590148
   0.49999843  0.75000151  0.05579229
   0.83333170  0.91666828  0.17752397
   0.66528789  0.58274108  0.29851833
   0.50066776  0.75133082  0.41581697
   0.74999841  0.75000151  0.05579229
   0.58333168  0.91666828  0.17752397
   0.91681226  0.58361965  0.29743809
   0.75030547  0.75027909  0.41916804
   0.74999839  0.50000154  0.05579229
   0.58333166  0.66666826  0.17752397
   0.91680733  0.83340150  0.29744137
   0.75037541  0.50044686  0.41915474
   0.33308831  0.41617662  0.47690930
 
 position of ions in cartesian coordinates  (Angst):
  10.55997578  0.00001422  1.11584590
   2.63997474  1.52421935  3.55047947
   0.00924549  3.05481019  5.97261418
  10.55983704  0.00017093  8.38471901
   9.23997574  2.28632132  1.11584590
   1.31997457  3.81052657  3.55047947
   1.32002541  0.77654402  5.97137747
   9.23083656  2.28450776  8.31634239
   1.31997542  2.28632132  1.11584590
  -1.32002553  3.81052657  3.55047947
   3.95995078  0.76035853  5.93540695
   1.32002469  2.26230245  8.52144271
   2.63997547  0.00001422  1.11584590
  -0.00002541  1.52421935  3.55047947
   2.63080531  3.05481019  5.97261418
   2.64021275  0.00017093  8.38471901
   5.27997557  0.00001422  1.11584590
   7.91997448  1.52421935  3.55047947
   5.28261243  3.05128036  5.93566267
   5.27907572  0.00160603  8.41050487
   3.95997540  2.28632132  1.11584590
   6.59997431  3.81052657  3.55047947
   6.60002598  0.76352699  5.97272689
   3.96921312  2.28450776  8.31634239
   6.59997527  2.28632132  1.11584590
   3.95997420  3.81052657  3.55047947
   9.24010069  0.76035853  5.93540695
   6.60002455  2.29090940  8.41214053
   7.91997543  0.00001422  1.11584590
   5.27997414  1.52421935  3.55047947
   7.91743903  3.05128036  5.93566267
   7.92097384  0.00160603  8.41050487
   7.91997567  4.57262842  1.11584590
  -0.00002559  6.09683366  3.55047947
  -2.64107463  7.62164727  5.94882736
  -2.64155626  4.57670097  8.38309476
   6.59997574  6.85893527  1.11584590
  -1.32002553  8.38314100  3.55047947
  -1.30851573  5.32930039  5.97036661
  -3.95997540  6.86131224  8.36646503
  -1.32002457  6.85893527  1.11584590
  -3.96002563  8.38314100  3.55047947
   1.32002577  5.32535854  5.97292906
  -1.32170294  6.86147378  8.38336070
  -0.00002464  4.57262842  1.11584590
  -2.64002570  6.09683366  3.55047947
  -0.00273706  7.62397946  5.93532196
  -0.02221877  4.58797761  8.51802966
   2.63997546  4.57262842  1.11584590
   5.27997462  6.09683366  3.55047947
   2.64278859  7.62397946  5.93532196
   2.66226813  4.58797761  8.51802966
   1.31997553  6.85893527  1.11584590
   3.95997444  8.38314100  3.55047947
   3.94856739  5.32930039  5.97036661
   1.32002481  6.87109215  8.31633948
   3.95997540  6.85893527  1.11584590
   1.31997410  8.38314100  3.55047947
   6.60002598  5.33733514  5.94876182
   3.96175232  6.86147378  8.38336070
   5.27997509  4.57262842  1.11584590
   2.63997404  6.09683366  3.55047947
   5.28112569  7.62164727  5.94882736
   5.28160516  4.57670097  8.38309476
   1.32000005  3.80603036  9.53818590
 


--------------------------------------------------------------------------------------------------------


 k-point  1 :   0.0000 0.0000 0.0000  plane waves:   56579
 k-point  2 :   0.5000-0.0000 0.0000  plane waves:   56606
 k-point  3 :   0.0000 0.5000 0.0000  plane waves:   56606
 k-point  4 :   0.5000 0.5000 0.0000  plane waves:   56606

 maximum and minimum number of plane-waves per node :     56606    56579

 maximum number of plane-waves:     56606
 maximum index in each direction: 
   IXMAX=   20   IYMAX=   20   IZMAX=   38
   IXMIN=  -20   IYMIN=  -20   IZMIN=  -38


 serial   3D FFT for wavefunctions
 parallel 3D FFT for charge:
    minimum data exchange during FFTs selected (reduces bandwidth)


 total amount of memory used by VASP MPI-rank0   328155. kBytes
=======================================================================

   base      :      30000. kBytes
   nonlr-proj:      89264. kBytes
   fftplans  :      13334. kBytes
   grid      :     112154. kBytes
   one-center:       2021. kBytes
   wavefun   :      81382. kBytes
 
     INWAV:  cpu time    0.0000: real time    0.0000
 Broyden mixing: mesh for mixing (old mesh)
   NGX = 41   NGY = 41   NGZ = 77
  (NGX  =168   NGY  =168   NGZ  =320)
  gives a total of 129437 points

 initial charge density was supplied:
 charge density of overlapping atoms calculated
 number of electron     641.0000000 magnetization      65.0000000
 keeping initial charge density in first step


--------------------------------------------------------------------------------------------------------


 Maximum index for non-local projection operator         7920
 Maximum index for augmentation-charges         2183 (set IRDMAX)


--------------------------------------------------------------------------------------------------------


 First call to EWALD:  gamma=   0.142
 Maximum number of real-space cells 4x 4x 2
 Maximum number of reciprocal cells 2x 2x 4

    FEWALD:  cpu time    0.0044: real time    0.0044


--------------------------------------- Iteration      1(   1)  ---------------------------------------


    POTLOK:  cpu time    0.5456: real time    0.5732
    SETDIJ:  cpu time    0.0442: real time    0.0447
     EDDAV:  cpu time   47.2445: real time   47.4884
 BZINTS: Fermi energy: 14.494686;641.000000 electrons
         Band energy:4713.088257;  BLOECHL correction: -0.011290
       DOS:  cpu time    0.0179: real time    0.0182
    --------------------------------------------
      LOOP:  cpu time   47.8523: real time   48.1246

 eigenvalue-minimisations  :  7040
 total energy-change (2. order) : 0.4378843E+04  (-0.3121120E+05)
 number of electron     641.0000000 magnetization      65.0000000
 augmentation part      641.0000000 magnetization      65.0000000

 Free energy of the ion-electron system (eV)
  ---------------------------------------------------
  alpha Z        PSCENC =      2019.82280658
  Ewald energy   TEWEN  =    125288.48307672
  -Hartree energ DENC   =   -176373.30987143
  -exchange      EXHF   =         0.00000000
  -V(xc)+E(xc)   XCENC  =       245.02431293
  PAW double counting   =     44548.75599742   -42738.90423410
  entropy T*S    EENTRO =         0.00000000
  eigenvalues    EBANDS =      4713.08825727
  atomic energy  EATOM  =     46675.88275157
  Solvation  Ediel_sol  =         0.00000000
  ---------------------------------------------------
  free energy    TOTEN  =      4378.84309696 eV

  energy without entropy =     4378.84309696  energy(sigma->0) =     4378.84309696


--------------------------------------------------------------------------------------------------------




--------------------------------------- Iteration      1(   2)  ---------------------------------------


     EDDAV:  cpu time   50.2304: real time   50.3750
 BZINTS: Fermi energy:  4.294249;641.000000 electrons
         Band energy: 164.375359;  BLOECHL correction: -0.111427
       DOS:  cpu time    0.0191: real time    0.0191
    --------------------------------------------
      LOOP:  cpu time   50.2495: real time   50.3941

 eigenvalue-minimisations  :  7680
 total energy-change (2. order) :-0.4548713E+04  (-0.4168546E+04)
 number of electron     641.0000000 magnetization      65.0000000
 augmentation part      641.0000000 magnetization      65.0000000

 Free energy of the ion-electron system (eV)
  ---------------------------------------------------
  alpha Z        PSCENC =      2019.82280658
  Ewald energy   TEWEN  =    125288.48307672
  -Hartree energ DENC   =   -176373.30987143
  -exchange      EXHF   =         0.00000000
  -V(xc)+E(xc)   XCENC  =       245.02431293
  PAW double counting   =     44548.75599742   -42738.90423410
  entropy T*S    EENTRO =         0.00000000
  eigenvalues    EBANDS =       164.37535926
  atomic energy  EATOM  =     46675.88275157
  Solvation  Ediel_sol  =         0.00000000
  ---------------------------------------------------
  free energy    TOTEN  =      -169.86980105 eV

  energy without entropy =     -169.86980105  energy(sigma->0) =     -169.86980105


--------------------------------------------------------------------------------------------------------




--------------------------------------- Iteration      1(   3)  ---------------------------------------


     EDDAV:  cpu time   53.2219: real time   53.3755
 BZINTS: Fermi energy:  3.749588;641.000000 electrons
         Band energy: -50.058520;  BLOECHL correction: -0.099092
       DOS:  cpu time    0.0183: real time    0.0183
    --------------------------------------------
      LOOP:  cpu time   53.2402: real time   53.3939

 eigenvalue-minimisations  :  8240
 total energy-change (2. order) :-0.2144339E+03  (-0.2033315E+03)
 number of electron     641.0000000 magnetization      65.0000000
 augmentation part      641.0000000 magnetization      65.0000000

 Free energy of the ion-electron system (eV)
  ---------------------------------------------------
  alpha Z        PSCENC =      2019.82280658
  Ewald energy   TEWEN  =    125288.48307672
  -Hartree energ DENC   =   -176373.30987143
  -exchange      EXHF   =         0.00000000
  -V(xc)+E(xc)   XCENC  =       245.02431293
  PAW double counting   =     44548.75599742   -42738.90423410
  entropy T*S    EENTRO =         0.00000000
  eigenvalues    EBANDS =       -50.05851996
  atomic energy  EATOM  =     46675.88275157
  Solvation  Ediel_sol  =         0.00000000
  ---------------------------------------------------
  free energy    TOTEN  =      -384.30368027 eV

  energy without entropy =     -384.30368027  energy(sigma->0) =     -384.30368027


--------------------------------------------------------------------------------------------------------




--------------------------------------- Iteration      1(   4)  ---------------------------------------


     EDDAV:  cpu time   53.7370: real time   53.8922
 BZINTS: Fermi energy:  3.735227;641.000000 electrons
         Band energy: -54.541700;  BLOECHL correction: -0.108621
       DOS:  cpu time    0.0197: real time    0.0197
    --------------------------------------------
      LOOP:  cpu time   53.7566: real time   53.9119

 eigenvalue-minimisations  :  8320
 total energy-change (2. order) :-0.4483180E+01  (-0.4454652E+01)
 number of electron     641.0000000 magnetization      65.0000000
 augmentation part      641.0000000 magnetization      65.0000000

 Free energy of the ion-electron system (eV)
  ---------------------------------------------------
  alpha Z        PSCENC =      2019.82280658
  Ewald energy   TEWEN  =    125288.48307672
  -Hartree energ DENC   =   -176373.30987143
  -exchange      EXHF   =         0.00000000
  -V(xc)+E(xc)   XCENC  =       245.02431293
  PAW double counting   =     44548.75599742   -42738.90423410
  entropy T*S    EENTRO =         0.00000000
  eigenvalues    EBANDS =       -54.54169969
  atomic energy  EATOM  =     46675.88275157
  Solvation  Ediel_sol  =         0.00000000
  ---------------------------------------------------
  free energy    TOTEN  =      -388.78686000 eV

  energy without entropy =     -388.78686000  energy(sigma->0) =     -388.78686000


--------------------------------------------------------------------------------------------------------




--------------------------------------- Iteration      1(   5)  ---------------------------------------


     EDDAV:  cpu time   52.7025: real time   52.8532
 BZINTS: Fermi energy:  3.734811;641.000000 electrons
         Band energy: -54.669883;  BLOECHL correction: -0.108753
       DOS:  cpu time    0.0175: real time    0.0176
    CHARGE:  cpu time    2.4840: real time    2.4903
    MIXING:  cpu time    0.0116: real time    0.0125
    --------------------------------------------
      LOOP:  cpu time   55.2158: real time   55.3736

 eigenvalue-minimisations  :  8120
 total energy-change (2. order) :-0.1281836E+00  (-0.1281140E+00)
 number of electron     641.0000089 magnetization      58.6368290
 augmentation part      185.6856505 magnetization      47.3466431

 Broyden mixing:
  rms(total) = 0.10524E+02    rms(broyden)= 0.10524E+02
  rms(prec ) = 0.10630E+02
  weight for this iteration     100.00

 Free energy of the ion-electron system (eV)
  ---------------------------------------------------
  alpha Z        PSCENC =      2019.82280658
  Ewald energy   TEWEN  =    125288.48307672
  -Hartree energ DENC   =   -176373.30987143
  -exchange      EXHF   =         0.00000000
  -V(xc)+E(xc)   XCENC  =       245.02431293
  PAW double counting   =     44548.75599742   -42738.90423410
  entropy T*S    EENTRO =         0.00000000
  eigenvalues    EBANDS =       -54.66988332
  atomic energy  EATOM  =     46675.88275157
  Solvation  Ediel_sol  =         0.00000000
  ---------------------------------------------------
  free energy    TOTEN  =      -388.91504363 eV

  energy without entropy =     -388.91504363  energy(sigma->0) =     -388.91504363


--------------------------------------------------------------------------------------------------------




--------------------------------------- Iteration      1(   6)  ---------------------------------------


    POTLOK:  cpu time    0.4829: real time    0.4841
    SETDIJ:  cpu time    0.0436: real time    0.0437
    EDDIAG:  cpu time    7.2192: real time    7.2369
  RMM-DIIS:  cpu time   29.6783: real time   29.7487
    ORTHCH:  cpu time    1.0358: real time    1.0383
 BZINTS: Fermi energy:  2.679768;641.000000 electrons
         Band energy:-595.168138;  BLOECHL correction: -0.237882
       DOS:  cpu time    0.0195: real time    0.0195
    CHARGE:  cpu time    2.4643: real time    2.4701
    MIXING:  cpu time    0.0105: real time    0.0108
    --------------------------------------------
      LOOP:  cpu time   40.9542: real time   41.0522

 eigenvalue-minimisations  :  7079
 total energy-change (2. order) : 0.2726945E+02  (-0.6089500E+01)
 number of electron     641.0000096 magnetization      51.0265920
 augmentation part      195.2536373 magnetization      38.2225619

 Broyden mixing:
  rms(total) = 0.67937E+01    rms(broyden)= 0.67937E+01
  rms(prec ) = 0.71054E+01
  weight for this iteration     100.00

 eigenvalues of (default mixing * dielectric matrix)
  average eigenvalue GAMMA=   1.2845
  1.2845

 Free energy of the ion-electron system (eV)
  ---------------------------------------------------
  alpha Z        PSCENC =      2019.82280658
  Ewald energy   TEWEN  =    125288.48307672
  -Hartree energ DENC   =   -175688.25518129
  -exchange      EXHF   =         0.00000000
  -V(xc)+E(xc)   XCENC  =       235.13793179
  PAW double counting   =     50857.53921421   -49155.08805610
  entropy T*S    EENTRO =         0.00000000
  eigenvalues    EBANDS =      -595.16813831
  atomic energy  EATOM  =     46675.88275157
  Solvation  Ediel_sol  =         0.00000000
  ---------------------------------------------------
  free energy    TOTEN  =      -361.64559484 eV

  energy without entropy =     -361.64559484  energy(sigma->0) =     -361.64559484


--------------------------------------------------------------------------------------------------------




--------------------------------------- Iteration      1(   7)  ---------------------------------------


    POTLOK:  cpu time    0.4803: real time    0.4814
    SETDIJ:  cpu time    0.0436: real time    0.0437
    EDDIAG:  cpu time    7.1946: real time    7.2117
  RMM-DIIS:  cpu time   28.6038: real time   28.6716
    ORTHCH:  cpu time    1.0245: real time    1.0269
 BZINTS: Fermi energy:  4.500083;641.000000 electrons
         Band energy: -90.993809;  BLOECHL correction: -0.071317
       DOS:  cpu time    0.0198: real time    0.0198
    CHARGE:  cpu time    2.4606: real time    2.4664
    MIXING:  cpu time    0.0120: real time    0.0120
    --------------------------------------------
      LOOP:  cpu time   39.8392: real time   39.9336

 eigenvalue-minimisations  :  7047
 total energy-change (2. order) :-0.1144810E+03  (-0.1134178E+02)
 number of electron     641.0000098 magnetization      45.2181347
 augmentation part      192.4083866 magnetization      33.9477278

 Broyden mixing:
  rms(total) = 0.99996E+01    rms(broyden)= 0.99996E+01
  rms(prec ) = 0.12433E+02
  weight for this iteration     100.00

 eigenvalues of (default mixing * dielectric matrix)
  average eigenvalue GAMMA=   1.0428
  1.7738  0.3119

 Free energy of the ion-electron system (eV)
  ---------------------------------------------------
  alpha Z        PSCENC =      2019.82280658
  Ewald energy   TEWEN  =    125288.48307672
  -Hartree energ DENC   =   -176240.50346796
  -exchange      EXHF   =         0.00000000
  -V(xc)+E(xc)   XCENC  =       229.55177878
  PAW double counting   =     56407.48647766   -54765.85619503
  entropy T*S    EENTRO =         0.00000000
  eigenvalues    EBANDS =       -90.99380867
  atomic energy  EATOM  =     46675.88275157
  Solvation  Ediel_sol  =         0.00000000
  ---------------------------------------------------
  free energy    TOTEN  =      -476.12658036 eV

  energy without entropy =     -476.12658036  energy(sigma->0) =     -476.12658036


--------------------------------------------------------------------------------------------------------




--------------------------------------- Iteration      1(   8)  ---------------------------------------


    POTLOK:  cpu time    0.5097: real time    0.5109
    SETDIJ:  cpu time    0.0457: real time    0.0458
    EDDIAG:  cpu time    7.2354: real time    7.2524
  RMM-DIIS:  cpu time   29.2287: real time   29.3063
    ORTHCH:  cpu time    1.0117: real time    1.0141
 BZINTS: Fermi energy:  2.964492;641.000000 electrons
         Band energy:-433.360478;  BLOECHL correction: -0.327912
       DOS:  cpu time    0.0205: real time    0.0205
    CHARGE:  cpu time    2.4675: real time    2.4734
    MIXING:  cpu time    0.0126: real time    0.0126
    --------------------------------------------
      LOOP:  cpu time   40.5317: real time   40.6360

 eigenvalue-minimisations  :  7068
 total energy-change (2. order) : 0.1116580E+03  (-0.4600679E+01)
 number of electron     641.0000100 magnetization      43.0402045
 augmentation part      198.4150566 magnetization      31.4051109

 Broyden mixing:
  rms(total) = 0.40618E+01    rms(broyden)= 0.40618E+01
  rms(prec ) = 0.50680E+01
  weight for this iteration     100.00

 eigenvalues of (default mixing * dielectric matrix)
  average eigenvalue GAMMA=   0.9686
  2.0648  0.5202  0.3208

 Free energy of the ion-electron system (eV)
  ---------------------------------------------------
  alpha Z        PSCENC =      2019.82280658
  Ewald energy   TEWEN  =    125288.48307672
  -Hartree energ DENC   =   -175745.03185536
  -exchange      EXHF   =         0.00000000
  -V(xc)+E(xc)   XCENC  =       231.33911675
  PAW double counting   =     59987.99885996   -58389.60286734
  entropy T*S    EENTRO =         0.00000000
  eigenvalues    EBANDS =      -433.36047755
  atomic energy  EATOM  =     46675.88275157
  Solvation  Ediel_sol  =         0.00000000
  ---------------------------------------------------
  free energy    TOTEN  =      -364.46858866 eV

  energy without entropy =     -364.46858866  energy(sigma->0) =     -364.46858866


--------------------------------------------------------------------------------------------------------




--------------------------------------- Iteration      1(   9)  ---------------------------------------


    POTLOK:  cpu time    0.4806: real time    0.4817
    SETDIJ:  cpu time    0.0434: real time    0.0435
    EDDIAG:  cpu time    7.2220: real time    7.2392
  RMM-DIIS:  cpu time   29.1058: real time   29.1748
    ORTHCH:  cpu time    1.0146: real time    1.0170
 BZINTS: Fermi energy:  3.030518;641.000000 electrons
         Band energy:-527.347425;  BLOECHL correction: -0.088030
       DOS:  cpu time    0.0192: real time    0.0193
    CHARGE:  cpu time    2.4423: real time    2.4481
    MIXING:  cpu time    0.0123: real time    0.0123
    --------------------------------------------
      LOOP:  cpu time   40.3402: real time   40.4359

 eigenvalue-minimisations  :  7067
 total energy-change (2. order) :-0.1631028E+02  (-0.2955985E+01)
 number of electron     641.0000096 magnetization      40.5893134
 augmentation part      198.1566709 magnetization      33.9114339

 Broyden mixing:
  rms(total) = 0.53566E+01    rms(broyden)= 0.53566E+01
  rms(prec ) = 0.80615E+01
  weight for this iteration     100.00

 eigenvalues of (default mixing * dielectric matrix)
  average eigenvalue GAMMA=   0.8579
  2.2439  0.7055  0.3155  0.1667

 Free energy of the ion-electron system (eV)
  ---------------------------------------------------
  alpha Z        PSCENC =      2019.82280658
  Ewald energy   TEWEN  =    125288.48307672
  -Hartree energ DENC   =   -175664.29145376
  -exchange      EXHF   =         0.00000000
  -V(xc)+E(xc)   XCENC  =       230.78882303
  PAW double counting   =     60474.82430987   -58878.94175968
  entropy T*S    EENTRO =         0.00000000
  eigenvalues    EBANDS =      -527.34742468
  atomic energy  EATOM  =     46675.88275157
  Solvation  Ediel_sol  =         0.00000000
  ---------------------------------------------------
  free energy    TOTEN  =      -380.77887035 eV

  energy without entropy =     -380.77887035  energy(sigma->0) =     -380.77887035


--------------------------------------------------------------------------------------------------------




--------------------------------------- Iteration      1(  10)  ---------------------------------------


    POTLOK:  cpu time    0.4790: real time    0.4802
    SETDIJ:  cpu time    0.0437: real time    0.0438
    EDDIAG:  cpu time    7.2033: real time    7.2205
  RMM-DIIS:  cpu time   29.1671: real time   29.2540
    ORTHCH:  cpu time    1.0163: real time    1.0191
 BZINTS: Fermi energy:  2.972136;641.000000 electrons
         Band energy:-443.762884;  BLOECHL correction: -0.162423
       DOS:  cpu time    0.0189: real time    0.0190
    CHARGE:  cpu time    2.4639: real time    2.4711
    MIXING:  cpu time    0.0131: real time    0.0131
    --------------------------------------------
      LOOP:  cpu time   40.4053: real time   40.5209

 eigenvalue-minimisations  :  7076
 total energy-change (2. order) : 0.1203255E+02  (-0.1054313E+01)
 number of electron     641.0000098 magnetization      38.3138876
 augmentation part      197.5647658 magnetization      29.3072437

 Broyden mixing:
  rms(total) = 0.40853E+01    rms(broyden)= 0.40853E+01
  rms(prec ) = 0.53014E+01
  weight for this iteration     100.00

 eigenvalues of (default mixing * dielectric matrix)
  average eigenvalue GAMMA=   0.7471
  2.3092  0.7509  0.2738  0.2738  0.1279

 Free energy of the ion-electron system (eV)
  ---------------------------------------------------
  alpha Z        PSCENC =      2019.82280658
  Ewald energy   TEWEN  =    125288.48307672
  -Hartree energ DENC   =   -175734.34591593
  -exchange      EXHF   =         0.00000000
  -V(xc)+E(xc)   XCENC  =       230.35319486
  PAW double counting   =     60846.90398225   -59252.08333139
  entropy T*S    EENTRO =         0.00000000
  eigenvalues    EBANDS =      -443.76288351
  atomic energy  EATOM  =     46675.88275157
  Solvation  Ediel_sol  =         0.00000000
  ---------------------------------------------------
  free energy    TOTEN  =      -368.74631886 eV

  energy without entropy =     -368.74631886  energy(sigma->0) =     -368.74631886


--------------------------------------------------------------------------------------------------------




--------------------------------------- Iteration      1(  11)  ---------------------------------------


    POTLOK:  cpu time    0.4903: real time    0.4914
    SETDIJ:  cpu time    0.0434: real time    0.0435
    EDDIAG:  cpu time    7.1529: real time    7.1734
  RMM-DIIS:  cpu time   29.1627: real time   29.2477
    ORTHCH:  cpu time    1.0101: real time    1.0129
 BZINTS: Fermi energy:  2.874248;641.000000 electrons
         Band energy:-423.392675;  BLOECHL correction: -0.032042
       DOS:  cpu time    0.0195: real time    0.0196
    CHARGE:  cpu time    2.4439: real time    2.4508
    MIXING:  cpu time    0.0130: real time    0.0130
    --------------------------------------------
      LOOP:  cpu time   40.3357: real time   40.4523

 eigenvalue-minimisations  :  7082
 total energy-change (2. order) : 0.1340240E+02  (-0.4432927E+00)
 number of electron     641.0000094 magnetization      36.8561141
 augmentation part      197.5706276 magnetization      28.2613264

 Broyden mixing:
  rms(total) = 0.19698E+01    rms(broyden)= 0.19698E+01
  rms(prec ) = 0.22057E+01
  weight for this iteration     100.00

 eigenvalues of (default mixing * dielectric matrix)
  average eigenvalue GAMMA=   0.6995
  2.1920  0.6064  0.6064  0.3363  0.3363  0.1197

 Free energy of the ion-electron system (eV)
  ---------------------------------------------------
  alpha Z        PSCENC =      2019.82280658
  Ewald energy   TEWEN  =    125288.48307672
  -Hartree energ DENC   =   -175738.51082979
  -exchange      EXHF   =         0.00000000
  -V(xc)+E(xc)   XCENC  =       229.69685263
  PAW double counting   =     61129.20741062   -59536.53331110
  entropy T*S    EENTRO =         0.00000000
  eigenvalues    EBANDS =      -423.39267517
  atomic energy  EATOM  =     46675.88275157
  Solvation  Ediel_sol  =         0.00000000
  ---------------------------------------------------
  free energy    TOTEN  =      -355.34391794 eV

  energy without entropy =     -355.34391794  energy(sigma->0) =     -355.34391794


--------------------------------------------------------------------------------------------------------




--------------------------------------- Iteration      1(  12)  ---------------------------------------


    POTLOK:  cpu time    0.4732: real time    0.4746
    SETDIJ:  cpu time    0.0437: real time    0.0438
    EDDIAG:  cpu time    7.2025: real time    7.2230
  RMM-DIIS:  cpu time   29.1472: real time   29.2317
    ORTHCH:  cpu time    1.0215: real time    1.0246
 BZINTS: Fermi energy:  2.814499;641.000000 electrons
         Band energy:-440.062611;  BLOECHL correction: -0.140553
       DOS:  cpu time    0.0189: real time    0.0190
    CHARGE:  cpu time    2.4564: real time    2.4636
    MIXING:  cpu time    0.0140: real time    0.0140
    --------------------------------------------
      LOOP:  cpu time   40.3776: real time   40.4943

 eigenvalue-minimisations  :  7082
 total energy-change (2. order) :-0.2837748E+00  (-0.1678448E+00)
 number of electron     641.0000095 magnetization      35.1481338
 augmentation part      197.5744382 magnetization      25.3690707

 Broyden mixing:
  rms(total) = 0.13730E+01    rms(broyden)= 0.13730E+01
  rms(prec ) = 0.15605E+01
  weight for this iteration     100.00

 eigenvalues of (default mixing * dielectric matrix)
  average eigenvalue GAMMA=   0.6775
  2.2163  0.6360  0.6360  0.5556  0.2894  0.2894  0.1199

 Free energy of the ion-electron system (eV)
  ---------------------------------------------------
  alpha Z        PSCENC =      2019.82280658
  Ewald energy   TEWEN  =    125288.48307672
  -Hartree energ DENC   =   -175724.56375958
  -exchange      EXHF   =         0.00000000
  -V(xc)+E(xc)   XCENC  =       229.21086728
  PAW double counting   =     60799.53692289   -59203.93774714
  entropy T*S    EENTRO =         0.00000000
  eigenvalues    EBANDS =      -440.06261109
  atomic energy  EATOM  =     46675.88275157
  Solvation  Ediel_sol  =         0.00000000
  ---------------------------------------------------
  free energy    TOTEN  =      -355.62769277 eV

  energy without entropy =     -355.62769277  energy(sigma->0) =     -355.62769277


--------------------------------------------------------------------------------------------------------




--------------------------------------- Iteration      1(  13)  ---------------------------------------


    POTLOK:  cpu time    0.4762: real time    0.4773
    SETDIJ:  cpu time    0.0439: real time    0.0440
    EDDIAG:  cpu time    7.2114: real time    7.2324
  RMM-DIIS:  cpu time   29.1374: real time   29.2223
    ORTHCH:  cpu time    1.1696: real time    1.1727
 BZINTS: Fermi energy:  2.879112;641.000000 electrons
         Band energy:-416.663848;  BLOECHL correction: -0.106322
       DOS:  cpu time    0.0197: real time    0.0197
    CHARGE:  cpu time    2.4560: real time    2.4628
    MIXING:  cpu time    0.0126: real time    0.0127
    --------------------------------------------
      LOOP:  cpu time   40.5267: real time   40.6438

 eigenvalue-minimisations  :  7080
 total energy-change (2. order) :-0.1186554E+01  (-0.1102978E+00)
 number of electron     641.0000095 magnetization      31.9721191
 augmentation part      197.4746881 magnetization      22.6100784

 Broyden mixing:
  rms(total) = 0.11714E+01    rms(broyden)= 0.11714E+01
  rms(prec ) = 0.12886E+01
  weight for this iteration     100.00

 eigenvalues of (default mixing * dielectric matrix)
  average eigenvalue GAMMA=   0.6957
  2.2655  0.7873  0.7873  0.7256  0.3167  0.3167  0.1200  0.2467

 Free energy of the ion-electron system (eV)
  ---------------------------------------------------
  alpha Z        PSCENC =      2019.82280658
  Ewald energy   TEWEN  =    125288.48307672
  -Hartree energ DENC   =   -175747.50245877
  -exchange      EXHF   =         0.00000000
  -V(xc)+E(xc)   XCENC  =       228.18805766
  PAW double counting   =     60829.60505263   -59234.62968498
  entropy T*S    EENTRO =         0.00000000
  eigenvalues    EBANDS =      -416.66384804
  atomic energy  EATOM  =     46675.88275157
  Solvation  Ediel_sol  =         0.00000000
  ---------------------------------------------------
  free energy    TOTEN  =      -356.81424663 eV

  energy without entropy =     -356.81424663  energy(sigma->0) =     -356.81424663


--------------------------------------------------------------------------------------------------------




--------------------------------------- Iteration      1(  14)  ---------------------------------------


    POTLOK:  cpu time    0.4732: real time    0.4749
    SETDIJ:  cpu time    0.0436: real time    0.0437
    EDDIAG:  cpu time    7.1960: real time    7.2164
  RMM-DIIS:  cpu time   29.2671: real time   29.3518
    ORTHCH:  cpu time    1.0238: real time    1.0266
 BZINTS: Fermi energy:  2.962397;641.000000 electrons
         Band energy:-383.707716;  BLOECHL correction: -0.124201
       DOS:  cpu time    0.0204: real time    0.0205
    CHARGE:  cpu time    2.4576: real time    2.4649
    MIXING:  cpu time    0.0151: real time    0.0152
    --------------------------------------------
      LOOP:  cpu time   40.4969: real time   40.6138

 eigenvalue-minimisations  :  7078
 total energy-change (2. order) :-0.2461622E+01  (-0.1059206E+00)
 number of electron     641.0000095 magnetization      29.3329906
 augmentation part      197.2995770 magnetization      19.3317236

 Broyden mixing:
  rms(total) = 0.98601E+00    rms(broyden)= 0.98601E+00
  rms(prec ) = 0.11076E+01
  weight for this iteration     100.00

 eigenvalues of (default mixing * dielectric matrix)
  average eigenvalue GAMMA=   0.6969
  2.1498  0.9565  0.9565  0.6416  0.6416  0.2930  0.2930  0.1199  0.2205

 Free energy of the ion-electron system (eV)
  ---------------------------------------------------
  alpha Z        PSCENC =      2019.82280658
  Ewald energy   TEWEN  =    125288.48307672
  -Hartree energ DENC   =   -175780.26236284
  -exchange      EXHF   =         0.00000000
  -V(xc)+E(xc)   XCENC  =       226.64621302
  PAW double counting   =     60918.60898161   -59324.74961908
  entropy T*S    EENTRO =         0.00000000
  eigenvalues    EBANDS =      -383.70771575
  atomic energy  EATOM  =     46675.88275157
  Solvation  Ediel_sol  =         0.00000000
  ---------------------------------------------------
  free energy    TOTEN  =      -359.27586818 eV

  energy without entropy =     -359.27586818  energy(sigma->0) =     -359.27586818


--------------------------------------------------------------------------------------------------------




--------------------------------------- Iteration      1(  15)  ---------------------------------------


    POTLOK:  cpu time    0.4768: real time    0.4780
    SETDIJ:  cpu time    0.0440: real time    0.0441
    EDDIAG:  cpu time    7.1844: real time    7.2055
  RMM-DIIS:  cpu time   29.2732: real time   29.3581
    ORTHCH:  cpu time    1.0116: real time    1.0145
 BZINTS: Fermi energy:  2.964916;641.000000 electrons
         Band energy:-378.055424;  BLOECHL correction: -0.134260
       DOS:  cpu time    0.0194: real time    0.0194
    CHARGE:  cpu time    2.4554: real time    2.4623
    MIXING:  cpu time    0.0150: real time    0.0150
    --------------------------------------------
      LOOP:  cpu time   40.4797: real time   40.5968

 eigenvalue-minimisations  :  7072
 total energy-change (2. order) :-0.2903087E+01  (-0.1181891E+00)
 number of electron     641.0000096 magnetization      25.5765544
 augmentation part      197.1304566 magnetization      16.0892757

 Broyden mixing:
  rms(total) = 0.86206E+00    rms(broyden)= 0.86206E+00
  rms(prec ) = 0.10205E+01
  weight for this iteration     100.00

 eigenvalues of (default mixing * dielectric matrix)
  average eigenvalue GAMMA=   0.7472
  2.0440  2.0440  0.7911  0.5888  0.5888  0.4731  0.3008  0.3008  0.1200  0.2207

 Free energy of the ion-electron system (eV)
  ---------------------------------------------------
  alpha Z        PSCENC =      2019.82280658
  Ewald energy   TEWEN  =    125288.48307672
  -Hartree energ DENC   =   -175788.90488552
  -exchange      EXHF   =         0.00000000
  -V(xc)+E(xc)   XCENC  =       224.98643597
  PAW double counting   =     60757.18142615   -59161.57514318
  entropy T*S    EENTRO =         0.00000000
  eigenvalues    EBANDS =      -378.05542367
  atomic energy  EATOM  =     46675.88275157
  Solvation  Ediel_sol  =         0.00000000
  ---------------------------------------------------
  free energy    TOTEN  =      -362.17895538 eV

  energy without entropy =     -362.17895538  energy(sigma->0) =     -362.17895538


--------------------------------------------------------------------------------------------------------




--------------------------------------- Iteration      1(  16)  ---------------------------------------


    POTLOK:  cpu time    0.4777: real time    0.4793
    SETDIJ:  cpu time    0.0437: real time    0.0438
    EDDIAG:  cpu time    7.3441: real time    7.3649
  RMM-DIIS:  cpu time   29.2687: real time   29.3539
    ORTHCH:  cpu time    1.0133: real time    1.0161
 BZINTS: Fermi energy:  2.939779;641.000000 electrons
         Band energy:-389.467619;  BLOECHL correction: -0.114950
       DOS:  cpu time    0.0203: real time    0.0203
    CHARGE:  cpu time    2.4540: real time    2.4609
    MIXING:  cpu time    0.0157: real time    0.0157
    --------------------------------------------
      LOOP:  cpu time   40.6374: real time   40.7550

 eigenvalue-minimisations  :  7066
 total energy-change (2. order) :-0.3334347E+01  (-0.1528333E+00)
 number of electron     641.0000096 magnetization      23.5910336
 augmentation part      197.0217446 magnetization      15.1821371

 Broyden mixing:
  rms(total) = 0.66975E+00    rms(broyden)= 0.66975E+00
  rms(prec ) = 0.79010E+00
  weight for this iteration     100.00

 eigenvalues of (default mixing * dielectric matrix)
  average eigenvalue GAMMA=   0.7618
  2.2103  2.2103  0.8202  0.8202  0.5377  0.5377  0.1200  0.2985  0.2985  0.3049
  0.2211

 Free energy of the ion-electron system (eV)
  ---------------------------------------------------
  alpha Z        PSCENC =      2019.82280658
  Ewald energy   TEWEN  =    125288.48307672
  -Hartree energ DENC   =   -175780.92664730
  -exchange      EXHF   =         0.00000000
  -V(xc)+E(xc)   XCENC  =       223.00646150
  PAW double counting   =     60530.16140941   -58932.47554163
  entropy T*S    EENTRO =         0.00000000
  eigenvalues    EBANDS =      -389.46761929
  atomic energy  EATOM  =     46675.88275157
  Solvation  Ediel_sol  =         0.00000000
  ---------------------------------------------------
  free energy    TOTEN  =      -365.51330244 eV

  energy without entropy =     -365.51330244  energy(sigma->0) =     -365.51330244


--------------------------------------------------------------------------------------------------------




--------------------------------------- Iteration      1(  17)  ---------------------------------------


    POTLOK:  cpu time    0.4731: real time    0.4747
    SETDIJ:  cpu time    0.0450: real time    0.0451
    EDDIAG:  cpu time    7.1691: real time    7.1897
  RMM-DIIS:  cpu time   29.2954: real time   29.3805
    ORTHCH:  cpu time    1.0181: real time    1.0211
 BZINTS: Fermi energy:  2.925867;641.000000 electrons
         Band energy:-395.408131;  BLOECHL correction: -0.096342
       DOS:  cpu time    0.0181: real time    0.0182
    CHARGE:  cpu time    2.4524: real time    2.4597
    MIXING:  cpu time    0.0174: real time    0.0174
    --------------------------------------------
      LOOP:  cpu time   40.4887: real time   40.6064

 eigenvalue-minimisations  :  7070
 total energy-change (2. order) :-0.1069673E+01  (-0.4379245E-01)
 number of electron     641.0000095 magnetization      22.0214631
 augmentation part      197.0137340 magnetization      14.3254884

 Broyden mixing:
  rms(total) = 0.54101E+00    rms(broyden)= 0.54101E+00
  rms(prec ) = 0.58575E+00
  weight for this iteration     100.00

 eigenvalues of (default mixing * dielectric matrix)
  average eigenvalue GAMMA=   0.7499
  2.3057  2.3057  0.8799  0.8799  0.5676  0.5676  0.1200  0.2993  0.2993  0.3136
  0.2515  0.2084

 Free energy of the ion-electron system (eV)
  ---------------------------------------------------
  alpha Z        PSCENC =      2019.82280658
  Ewald energy   TEWEN  =    125288.48307672
  -Hartree energ DENC   =   -175774.64440400
  -exchange      EXHF   =         0.00000000
  -V(xc)+E(xc)   XCENC  =       222.10865010
  PAW double counting   =     60553.97602746   -58956.80375197
  entropy T*S    EENTRO =         0.00000000
  eigenvalues    EBANDS =      -395.40813142
  atomic energy  EATOM  =     46675.88275157
  Solvation  Ediel_sol  =         0.00000000
  ---------------------------------------------------
  free energy    TOTEN  =      -366.58297496 eV

  energy without entropy =     -366.58297496  energy(sigma->0) =     -366.58297496


--------------------------------------------------------------------------------------------------------




--------------------------------------- Iteration      1(  18)  ---------------------------------------


    POTLOK:  cpu time    0.4761: real time    0.4772
    SETDIJ:  cpu time    0.0435: real time    0.0436
    EDDIAG:  cpu time    7.1598: real time    7.1805
  RMM-DIIS:  cpu time   29.3122: real time   29.3977
    ORTHCH:  cpu time    1.0209: real time    1.0239
 BZINTS: Fermi energy:  2.914900;641.000000 electrons
         Band energy:-399.950053;  BLOECHL correction: -0.125864
       DOS:  cpu time    0.0180: real time    0.0180
    CHARGE:  cpu time    2.4554: real time    2.4622
    MIXING:  cpu time    0.0165: real time    0.0165
    --------------------------------------------
      LOOP:  cpu time   40.5024: real time   40.6196

 eigenvalue-minimisations  :  7070
 total energy-change (2. order) :-0.7147567E+00  (-0.1693872E-01)
 number of electron     641.0000095 magnetization      20.5280706
 augmentation part      197.0378175 magnetization      12.7189724

 Broyden mixing:
  rms(total) = 0.40299E+00    rms(broyden)= 0.40299E+00
  rms(prec ) = 0.43077E+00
  weight for this iteration     100.00

 eigenvalues of (default mixing * dielectric matrix)
  average eigenvalue GAMMA=   0.7557
  2.4664  2.4664  0.7966  0.7966  0.6441  0.6441  0.4393  0.4393  0.3002  0.3002
  0.1200  0.2181  0.1927

 Free energy of the ion-electron system (eV)
  ---------------------------------------------------
  alpha Z        PSCENC =      2019.82280658
  Ewald energy   TEWEN  =    125288.48307672
  -Hartree energ DENC   =   -175769.46436057
  -exchange      EXHF   =         0.00000000
  -V(xc)+E(xc)   XCENC  =       221.46672086
  PAW double counting   =     60599.96875655   -59003.50743074
  entropy T*S    EENTRO =         0.00000000
  eigenvalues    EBANDS =      -399.95005261
  atomic energy  EATOM  =     46675.88275157
  Solvation  Ediel_sol  =         0.00000000
  ---------------------------------------------------
  free energy    TOTEN  =      -367.29773164 eV

  energy without entropy =     -367.29773164  energy(sigma->0) =     -367.29773164


--------------------------------------------------------------------------------------------------------




--------------------------------------- Iteration      1(  19)  ---------------------------------------


    POTLOK:  cpu time    0.4724: real time    0.4740
    SETDIJ:  cpu time    0.0440: real time    0.0441
    EDDIAG:  cpu time    7.3074: real time    7.3283
  RMM-DIIS:  cpu time   29.3861: real time   29.4586
    ORTHCH:  cpu time    1.0678: real time    1.0708
 BZINTS: Fermi energy:  2.895055;641.000000 electrons
         Band energy:-409.174097;  BLOECHL correction: -0.115714
       DOS:  cpu time    0.0200: real time    0.0201
    CHARGE:  cpu time    2.4555: real time    2.4624
    MIXING:  cpu time    0.0191: real time    0.0192
    --------------------------------------------
      LOOP:  cpu time   40.7723: real time   40.8774

 eigenvalue-minimisations  :  7065
 total energy-change (2. order) :-0.8055614E+00  (-0.1952134E-01)
 number of electron     641.0000095 magnetization      17.2930371
 augmentation part      197.0595105 magnetization       9.9178768

 Broyden mixing:
  rms(total) = 0.33727E+00    rms(broyden)= 0.33727E+00
  rms(prec ) = 0.35639E+00
  weight for this iteration     100.00

 eigenvalues of (default mixing * dielectric matrix)
  average eigenvalue GAMMA=   0.8316
  3.4353  2.3309  1.0329  1.0329  0.7522  0.5853  0.5853  0.4603  0.2998  0.2998
  0.1200  0.3011  0.2190  0.1879

 Free energy of the ion-electron system (eV)
  ---------------------------------------------------
  alpha Z        PSCENC =      2019.82280658
  Ewald energy   TEWEN  =    125288.48307672
  -Hartree energ DENC   =   -175760.37361322
  -exchange      EXHF   =         0.00000000
  -V(xc)+E(xc)   XCENC  =       220.79869827
  PAW double counting   =     60584.71667933   -58988.25959505
  entropy T*S    EENTRO =         0.00000000
  eigenvalues    EBANDS =      -409.17409729
  atomic energy  EATOM  =     46675.88275157
  Solvation  Ediel_sol  =         0.00000000
  ---------------------------------------------------
  free energy    TOTEN  =      -368.10329308 eV

  energy without entropy =     -368.10329308  energy(sigma->0) =     -368.10329308


--------------------------------------------------------------------------------------------------------




[...]
              65X         65Y         65Z 
 65X    -0.840846   -0.000797   -0.004240
 65Y    -0.001861   -0.953840   -0.090734
 65Z    -0.000092   -0.110054   -5.983744
 
 
 Eigenvectors and eigenvalues of the dynamical matrix
 ----------------------------------------------------
 
 
   1 f  =   38.248105 THz   240.319933 2PiTHz 1275.819424 cm-1   158.181505 meV
             X         Y         Z           dx          dy          dz
     10.559976  0.000014  1.115846            0           0           0  
      2.639975  1.524219  3.550479            0           0           0  
      0.009245  3.054810  5.972614            0           0           0  
     10.559837  0.000171  8.384719            0           0           0  
      9.239976  2.286321  1.115846            0           0           0  
      1.319975  3.810527  3.550479            0           0           0  
      1.320025  0.776544  5.971377            0           0           0  
      9.230837  2.284508  8.316342            0           0           0  
      1.319975  2.286321  1.115846            0           0           0  
     -1.320026  3.810527  3.550479            0           0           0  
      3.959951  0.760359  5.935407            0           0           0  
      1.320025  2.262302  8.521443            0           0           0  
      2.639975  0.000014  1.115846            0           0           0  
     -0.000025  1.524219  3.550479            0           0           0  
      2.630805  3.054810  5.972614            0           0           0  
      2.640213  0.000171  8.384719            0           0           0  
      5.279976  0.000014  1.115846            0           0           0  
      7.919974  1.524219  3.550479            0           0           0  
      5.282612  3.051280  5.935663            0           0           0  
      5.279076  0.001606  8.410505            0           0           0  
      3.959975  2.286321  1.115846            0           0           0  
      6.599974  3.810527  3.550479            0           0           0  
      6.600026  0.763527  5.972727            0           0           0  
      3.969213  2.284508  8.316342            0           0           0  
      6.599975  2.286321  1.115846            0           0           0  
      3.959974  3.810527  3.550479            0           0           0  
      9.240101  0.760359  5.935407            0           0           0  
      6.600025  2.290909  8.412141            0           0           0  
      7.919975  0.000014  1.115846            0           0           0  
      5.279974  1.524219  3.550479            0           0           0  
      7.917439  3.051280  5.935663            0           0           0  
      7.920974  0.001606  8.410505            0           0           0  
      7.919976  4.572628  1.115846            0           0           0  
     -0.000026  6.096834  3.550479            0           0           0  
     -2.641075  7.621647  5.948827            0           0           0  
     -2.641556  4.576701  8.383095            0           0           0  
      6.599976  6.858935  1.115846            0           0           0  
     -1.320026  8.383141  3.550479            0           0           0  
     -1.308516  5.329300  5.970367            0           0           0  
     -3.959975  6.861312  8.366465            0           0           0  
     -1.320025  6.858935  1.115846            0           0           0  
     -3.960026  8.383141  3.550479            0           0           0  
      1.320026  5.325359  5.972929            0           0           0  
     -1.321703  6.861474  8.383361            0           0           0  
     -0.000025  4.572628  1.115846            0           0           0  
     -2.640026  6.096834  3.550479            0           0           0  
     -0.002737  7.623979  5.935322            0           0           0  
     -0.022219  4.587978  8.518030            0           0           0  
      2.639975  4.572628  1.115846            0           0           0  
      5.279975  6.096834  3.550479            0           0           0  
      2.642789  7.623979  5.935322            0           0           0  
      2.662268  4.587978  8.518030            0           0           0  
      1.319976  6.858935  1.115846            0           0           0  
      3.959974  8.383141  3.550479            0           0           0  
      3.948567  5.329300  5.970367            0           0           0  
      1.320025  6.871092  8.316339            0           0           0  
      3.959975  6.858935  1.115846            0           0           0  
      1.319974  8.383141  3.550479            0           0           0  
      6.600026  5.337335  5.948762            0           0           0  
      3.961752  6.861474  8.383361            0           0           0  
      5.279975  4.572628  1.115846            0           0           0  
      2.639974  6.096834  3.550479            0           0           0  
      5.281126  7.621647  5.948827            0           0           0  
      5.281605  4.576701  8.383095            0           0           0  
      1.320000  3.806030  9.538186     0.000426    0.019948    0.999801  
 
   2 f  =   15.252302 THz    95.833037 2PiTHz  508.762004 cm-1    63.078472 meV
             X         Y         Z           dx          dy          dz
     10.559976  0.000014  1.115846            0           0           0  
      2.639975  1.524219  3.550479            0           0           0  
      0.009245  3.054810  5.972614            0           0           0  
     10.559837  0.000171  8.384719            0           0           0  
      9.239976  2.286321  1.115846            0           0           0  
      1.319975  3.810527  3.550479            0           0           0  
      1.320025  0.776544  5.971377            0           0           0  
      9.230837  2.284508  8.316342            0           0           0  
      1.319975  2.286321  1.115846            0           0           0  
     -1.320026  3.810527  3.550479            0           0           0  
      3.959951  0.760359  5.935407            0           0           0  
      1.320025  2.262302  8.521443            0           0           0  
      2.639975  0.000014  1.115846            0           0           0  
     -0.000025  1.524219  3.550479            0           0           0  
      2.630805  3.054810  5.972614            0           0           0  
      2.640213  0.000171  8.384719            0           0           0  
      5.279976  0.000014  1.115846            0           0           0  
      7.919974  1.524219  3.550479            0           0           0  
      5.282612  3.051280  5.935663            0           0           0  
      5.279076  0.001606  8.410505            0           0           0  
      3.959975  2.286321  1.115846            0           0           0  
      6.599974  3.810527  3.550479            0           0           0  
      6.600026  0.763527  5.972727            0           0           0  
      3.969213  2.284508  8.316342            0           0           0  
      6.599975  2.286321  1.115846            0           0           0  
      3.959974  3.810527  3.550479            0           0           0  
      9.240101  0.760359  5.935407            0           0           0  
      6.600025  2.290909  8.412141            0           0           0  
      7.919975  0.000014  1.115846            0           0           0  
      5.279974  1.524219  3.550479            0           0           0  
      7.917439  3.051280  5.935663            0           0           0  
      7.920974  0.001606  8.410505            0           0           0  
      7.919976  4.572628  1.115846            0           0           0  
     -0.000026  6.096834  3.550479            0           0           0  
     -2.641075  7.621647  5.948827            0           0           0  
     -2.641556  4.576701  8.383095            0           0           0  
      6.599976  6.858935  1.115846            0           0           0  
     -1.320026  8.383141  3.550479            0           0           0  
     -1.308516  5.329300  5.970367            0           0           0  
     -3.959975  6.861312  8.366465            0           0           0  
     -1.320025  6.858935  1.115846            0           0           0  
     -3.960026  8.383141  3.550479            0           0           0  
      1.320026  5.325359  5.972929            0           0           0  
     -1.321703  6.861474  8.383361            0           0           0  
     -0.000025  4.572628  1.115846            0           0           0  
     -2.640026  6.096834  3.550479            0           0           0  
     -0.002737  7.623979  5.935322            0           0           0  
     -0.022219  4.587978  8.518030            0           0           0  
      2.639975  4.572628  1.115846            0           0           0  
      5.279975  6.096834  3.550479            0           0           0  
      2.642789  7.623979  5.935322            0           0           0  
      2.662268  4.587978  8.518030            0           0           0  
      1.319976  6.858935  1.115846            0           0           0  
      3.959974  8.383141  3.550479            0           0           0  
      3.948567  5.329300  5.970367            0           0           0  
      1.320025  6.871092  8.316339            0           0           0  
      3.959975  6.858935  1.115846            0           0           0  
      1.319974  8.383141  3.550479            0           0           0  
      6.600026  5.337335  5.948762            0           0           0  
      3.961752  6.861474  8.383361            0           0           0  
      5.279975  4.572628  1.115846            0           0           0  
      2.639974  6.096834  3.550479            0           0           0  
      5.281126  7.621647  5.948827            0           0           0  
      5.281605  4.576701  8.383095            0           0           0  
      1.320000  3.806030  9.538186     0.011580    0.999734   -0.019951  
 
   3 f  =   14.335236 THz    90.070947 2PiTHz  478.172001 cm-1    59.285794 meV
             X         Y         Z           dx          dy          dz
     10.559976  0.000014  1.115846            0           0           0  
      2.639975  1.524219  3.550479            0           0           0  
      0.009245  3.054810  5.972614            0           0           0  
     10.559837  0.000171  8.384719            0           0           0  
      9.239976  2.286321  1.115846            0           0           0  
      1.319975  3.810527  3.550479            0           0           0  
      1.320025  0.776544  5.971377            0           0           0  
      9.230837  2.284508  8.316342            0           0           0  
      1.319975  2.286321  1.115846            0           0           0  
     -1.320026  3.810527  3.550479            0           0           0  
      3.959951  0.760359  5.935407            0           0           0  
      1.320025  2.262302  8.521443            0           0           0  
      2.639975  0.000014  1.115846            0           0           0  
     -0.000025  1.524219  3.550479            0           0           0  
      2.630805  3.054810  5.972614            0           0           0  
      2.640213  0.000171  8.384719            0           0           0  
      5.279976  0.000014  1.115846            0           0           0  
      7.919974  1.524219  3.550479            0           0           0  
      5.282612  3.051280  5.935663            0           0           0  
      5.279076  0.001606  8.410505            0           0           0  
      3.959975  2.286321  1.115846            0           0           0  
      6.599974  3.810527  3.550479            0           0           0  
      6.600026  0.763527  5.972727            0           0           0  
      3.969213  2.284508  8.316342            0           0           0  
      6.599975  2.286321  1.115846            0           0           0  
      3.959974  3.810527  3.550479            0           0           0  
      9.240101  0.760359  5.935407            0           0           0  
      6.600025  2.290909  8.412141            0           0           0  
      7.919975  0.000014  1.115846            0           0           0  
      5.279974  1.524219  3.550479            0           0           0  
      7.917439  3.051280  5.935663            0           0           0  
      7.920974  0.001606  8.410505            0           0           0  
      7.919976  4.572628  1.115846            0           0           0  
     -0.000026  6.096834  3.550479            0           0           0  
     -2.641075  7.621647  5.948827            0           0           0  
     -2.641556  4.576701  8.383095            0           0           0  
      6.599976  6.858935  1.115846            0           0           0  
     -1.320026  8.383141  3.550479            0           0           0  
     -1.308516  5.329300  5.970367            0           0           0  
     -3.959975  6.861312  8.366465            0           0           0  
     -1.320025  6.858935  1.115846            0           0           0  
     -3.960026  8.383141  3.550479            0           0           0  
      1.320026  5.325359  5.972929            0           0           0  
     -1.321703  6.861474  8.383361            0           0           0  
     -0.000025  4.572628  1.115846            0           0           0  
     -2.640026  6.096834  3.550479            0           0           0  
     -0.002737  7.623979  5.935322            0           0           0  
     -0.022219  4.587978  8.518030            0           0           0  
      2.639975  4.572628  1.115846            0           0           0  
      5.279975  6.096834  3.550479            0           0           0  
      2.642789  7.623979  5.935322            0           0           0  
      2.662268  4.587978  8.518030            0           0           0  
      1.319976  6.858935  1.115846            0           0           0  
      3.959974  8.383141  3.550479            0           0           0  
      3.948567  5.329300  5.970367            0           0           0  
      1.320025  6.871092  8.316339            0           0           0  
      3.959975  6.858935  1.115846            0           0           0  
      1.319974  8.383141  3.550479            0           0           0  
      6.600026  5.337335  5.948762            0           0           0  
      3.961752  6.861474  8.383361            0           0           0  
      5.279975  4.572628  1.115846            0           0           0  
      2.639974  6.096834  3.550479            0           0           0  
      5.281126  7.621647  5.948827            0           0           0  
      5.281605  4.576701  8.383095            0           0           0  
      1.320000  3.806030  9.538186     0.999933   -0.011586   -0.000195  
 
 Finite differences POTIM=  1.500000000000000E-002
  LATTYP: Found a hexagonal cell.
 ALAT       =    10.5600004196
 C/A-ratio  =     1.8939393187
  
  Lattice vectors:
  
 A1 = (  10.5600004196,   0.0000000000,   0.0000000000)
 A2 = (  -5.2800002098,   9.1452286274,   0.0000000000)
 A3 = (   0.0000000000,   0.0000000000,  20.0000000000)


Analysis of symmetry for initial positions (statically):
=====================================================================
 Subroutine PRICEL returns:
 Original cell was already a primitive cell.
 

 Routine SETGRP: Setting up the symmetry group for a 
 hexagonal supercell.


 Subroutine GETGRP returns: Found  1 space group operations
 (whereof  1 operations were pure point group operations)
 out of a pool of 24 trial point group operations.


The static configuration has the point symmetry C_1 .


Analysis of symmetry for dynamics (positions and initial velocities):
=====================================================================
 Subroutine PRICEL returns:
 Original cell was already a primitive cell.
 

 Routine SETGRP: Setting up the symmetry group for a 
 hexagonal supercell.


 Subroutine GETGRP returns: Found  1 space group operations
 (whereof  1 operations were pure point group operations)
 out of a pool of 24 trial point group operations.


The dynamic configuration has the point symmetry C_1 .


Analysis of constrained symmetry for selective dynamics:
=====================================================================
 Subroutine PRICEL returns:
 Original cell was already a primitive cell.
 

 Routine SETGRP: Setting up the symmetry group for a 
 hexagonal supercell.


 Subroutine GETGRP returns: Found  1 space group operations
 (whereof  1 operations were pure point group operations)
 out of a pool of 24 trial point group operations.


The constrained configuration has the point symmetry C_1 .


Analysis of structural, dynamic, and magnetic symmetry:
=====================================================================
 Subroutine PRICEL returns:
 Original cell was already a primitive cell.
 

 Routine SETGRP: Setting up the symmetry group for a 
 hexagonal supercell.


 Subroutine GETGRP returns: Found  1 space group operations
 (whereof  1 operations were pure point group operations)
 out of a pool of 24 trial point group operations.


The magnetic configuration has the point symmetry C_1 .


 Subroutine INISYM returns: Found  1 space group operations
 (whereof  1 operations are pure point group operations),
 and found     1 'primitive' translations

 
 KPOINTS: mesh auto                               

Automatic generation of k-mesh.
Space group operators:
 irot       det(A)        alpha          n_x          n_y          n_z        tau_x        tau_y        tau_z
    1     1.000000     0.000000     1.000000     0.000000     0.000000     0.000000     0.000000     0.000000
 
 Subroutine IBZKPT returns following result:
 ===========================================
 
 Found      4 irreducible k-points:
 
 Following reciprocal coordinates:
            Coordinates               Weight
  0.000000  0.000000  0.000000      1.000000
  0.500000 -0.000000  0.000000      1.000000
  0.000000  0.500000  0.000000      1.000000
  0.500000  0.500000  0.000000      1.000000
 
 Following cartesian coordinates:
            Coordinates               Weight
  0.000000  0.000000  0.000000      1.000000
  0.047348  0.027337  0.000000      1.000000
  0.000000  0.054673  0.000000      1.000000
  0.047348  0.082010  0.000000      1.000000
 
 TETIRR: Found     12 inequivalent tetrahedra from       24
     LOOP+:  cpu time  397.4899: real time  398.5312
    4ORBIT:  cpu time    0.0000: real time    0.0000
 BZINTS: Fermi energy:  2.703206;641.000000 electrons
         Band energy:-513.729472;  BLOECHL correction: -0.114779

 total amount of memory used by VASP MPI-rank0   328155. kBytes
=======================================================================

   base      :      30000. kBytes
   nonlr-proj:      89264. kBytes
   fftplans  :      13334. kBytes
   grid      :     112154. kBytes
   one-center:       2021. kBytes
   wavefun   :      81382. kBytes
 
  
  
 General timing and accounting informations for this job:
 ========================================================
  
                  Total CPU time used (sec):     5508.850
                            User time (sec):     5492.781
                          System time (sec):       16.070
                         Elapsed time (sec):     5526.512
  
                   Maximum memory used (kb):      971924.
                   Average memory used (kb):           0.
  
                          Minor page faults:      1934627
                          Major page faults:            0
                 Voluntary context switches:         3971
