 vasp.5.4.4.18Apr17-6-g9f103f2a35 (build Nov 30 2020 22:55:02) complex          
  
 executed on             LinuxIFC date 2023.09.08  21:33:33
 running on   40 total cores
 distrk:  each k-point on   40 cores,    1 groups
 distr:  one band on NCORES_PER_BAND=   4 cores,   10 groups


--------------------------------------------------------------------------------------------------------


 INCAR:
 POTCAR:    PAW_PBE Pt 04Feb2005                  
 POTCAR:    PAW_PBE Pt 04Feb2005                  
   VRHFIN =Pt: s1d9                                                             
   LEXCH  = PE                                                                  
   EATOM  =   729.1176 eV,   53.5886 Ry                                         
                                                                                
   TITEL  = PAW_PBE Pt 04Feb2005                                                
   LULTRA =        F    use ultrasoft PP ?                                      
   IUNSCR =        1    unscreen: 0-lin 1-nonlin 2-no                           
   RPACOR =    2.330    partial core radius                                     
   POMASS =  195.080; ZVAL   =   10.000    mass and valenz                      
   RCORE  =    2.600    outmost cutoff radius                                   
   RWIGS  =    2.750; RWIGS  =    1.455    wigner-seitz radius (au A)           
   ENMAX  =  230.283; ENMIN  =  172.712 eV                                      
   ICORE  =        3    local potential                                         
   LCOR   =        T    correct aug charges                                     
   LPAW   =        T    paw PP                                                  
   EAUG   =  358.966                                                            
   DEXC   =    0.000                                                            
   RMAX   =    2.658    core radius for proj-oper                               
   RAUG   =    1.300    factor for augmentation sphere                          
   RDEP   =    2.761    radius for radial grids                                 
   RDEPT  =    2.203    core radius for aug-charge                              
                                                                                
   Atomic configuration                                                         
   16 entries                                                                   
     n  l   j            E        occ.                                          
     1  0  0.50    -78401.1885   2.0000                                         
     2  0  0.50    -13770.7750   2.0000                                         
     2  1  1.50    -11931.0468   6.0000                                         
     3  0  0.50     -3234.7234   2.0000                                         
     3  1  1.50     -2699.2216   6.0000                                         
     3  2  2.50     -2119.5714  10.0000                                         
     4  0  0.50      -695.1528   2.0000                                         
     4  1  1.50      -519.6034   6.0000                                         
     4  2  2.50      -306.6786  10.0000                                         
     4  3  3.50       -70.1041  14.0000                                         
     5  0  0.50      -101.7747   2.0000                                         
     5  1  1.50       -55.9873   6.0000                                         
     5  2  2.50        -6.1423   9.0000                                         
     6  0  0.50        -5.6573   1.0000                                         
     6  1  1.50        -6.8029   0.0000                                         
     5  3  2.50        -1.3606   0.0000                                         
   Description                                                                  
     l       E           TYP  RCUT    TYP  RCUT                                 
     2     -6.1423404     23  2.500                                             
     2     -7.5029230     23  2.500                                             
     0     -5.6573207     23  2.500                                             
     0      0.7416693     23  2.500                                             
     1     -2.7211652     23  2.600                                             
     1     20.4087390     23  2.600                                             
     3     -1.3605826     23  2.500                                             
  local pseudopotential read in
  partial core-charges read in
  partial kinetic energy density read in
  atomic valenz-charges read in
  non local Contribution for L=           2  read in
    real space projection operators read in
  non local Contribution for L=           2  read in
    real space projection operators read in
  non local Contribution for L=           0  read in
    real space projection operators read in
  non local Contribution for L=           0  read in
    real space projection operators read in
  non local Contribution for L=           1  read in
    real space projection operators read in
  non local Contribution for L=           1  read in
    real space projection operators read in
    PAW grid and wavefunctions read in
 
   number of l-projection  operators is LMAX  =           6
   number of lm-projection operators is LMMAX =          18
 
 Optimization of the real space projectors (new method)

 maximal supplied QI-value         = 14.36
 optimisation between [QCUT,QGAM] = [ 11.92, 23.98] = [ 39.79,161.09] Ry 
 Optimized for a Real-space Cutoff    1.49 Angstroem

   l    n(q)    QCUT    max X(q) W(low)/X(q) W(high)/X(q)  e(spline) 
   2     10    11.920    66.195    0.79E-04    0.18E-03    0.24E-06
   2     10    11.920    64.643    0.81E-04    0.19E-03    0.24E-06
   0     11    11.920    95.520    0.28E-04    0.54E-04    0.18E-06
   0     11    11.920    63.403    0.27E-04    0.52E-04    0.17E-06
   1     10    11.920    19.961    0.18E-04    0.11E-03    0.23E-06
   1     10    11.920    13.289    0.25E-04    0.87E-04    0.19E-06
  PAW_PBE Pt 04Feb2005                  :
 energy of atom  1       EATOM= -729.1176
 kinetic energy error for atom=    0.0021 (will be added to EATOM!!)
 
 
 POSCAR: Pt111                                   
  positions in direct lattice
  velocities in cartesian coordinates
 exchange correlation table for  LEXCH =        8
   RHO(1)=    0.500       N(1)  =     2000
   RHO(2)=  100.500       N(2)  =     4000
 


--------------------------------------------------------------------------------------------------------


 ion  position               nearest neighbor table
   1  0.785  0.869  0.330-   3 2.74   2 2.74  73 2.74  56 2.74  43 2.74  72 2.74  71 2.77  20 2.77
                            55 2.77  27 2.81  35 2.81  34 2.81
   2  0.035  0.869  0.330-  57 2.74   3 2.74   1 2.74  23 2.74  47 2.74  72 2.74  55 2.77  65 2.77
                            68 2.77  29 2.81  27 2.81  39 2.81
   3  0.035  0.619  0.330-   2 2.74   1 2.74   9 2.74  56 2.74  15 2.74  57 2.74  12 2.77  55 2.77
                            76 2.77  39 2.81  28 2.81  35 2.82
   4  0.787  0.868  0.018-   5 2.74  58 2.74  75 2.74   6 2.74  74 2.74  44 2.74  21 2.81  78 2.81
                            19 2.82
   5  0.037  0.868  0.018-  74 2.74  48 2.74   4 2.74  24 2.74   6 2.74  59 2.75  49 2.81  70 2.81
                            78 2.82
   6  0.037  0.618  0.018-  18 2.74  59 2.74   4 2.74  58 2.74   5 2.74  10 2.74  70 2.81  46 2.81
                            21 2.82
   7  0.619  0.202  0.123-  78 2.74  19 2.74  11 2.74  53 2.74  61 2.74  22 2.74  71 2.76  79 2.77
                            80 2.77  42 2.81  44 2.81  74 2.82
   8  0.369  0.952  0.123-  54 2.74  25 2.74  49 2.74  19 2.74  60 2.74  53 2.74  66 2.76  69 2.77
                            26 2.77  16 2.81  24 2.81  75 2.82
   9  0.035  0.369  0.330-  15 2.74  47 2.74  13 2.74   3 2.74  56 2.74  63 2.74  12 2.77  77 2.77
                            62 2.77  33 2.81  30 2.81  28 2.82
  10  0.037  0.368  0.018-  64 2.74  48 2.74  18 2.74  16 2.74  58 2.74   6 2.74  54 2.81  46 2.81
                            45 2.82
  11  0.869  0.202  0.123-  22 2.74   7 2.74  54 2.74  78 2.74  49 2.74  45 2.74  65 2.77  77 2.77
                            79 2.77  64 2.81  74 2.81  48 2.82
  12  0.952  0.536  0.227-  62 2.74  55 2.74  76 2.74  67 2.74  20 2.74  77 2.74  21 2.77  45 2.77
                             3 2.77   9 2.77  46 2.77  56 2.77
  13  0.285  0.119  0.330-  15 2.74   9 2.74  73 2.74  47 2.74  23 2.74  43 2.74  62 2.77  26 2.77
                            69 2.77  31 2.81  36 2.81  33 2.82
  14  0.535  0.619  0.330-  23 2.74  56 2.74  73 2.74  57 2.74  63 2.74  41 2.74  51 2.77  66 2.77
                            67 2.77  52 2.81  38 2.81  37 2.82
  15  0.285  0.369  0.330-  13 2.74  41 2.74  43 2.74   9 2.74   3 2.74  57 2.74  62 2.77  76 2.77
                            80 2.77  50 2.81  36 2.81  28 2.82
  16  0.287  0.118  0.018-  44 2.74  75 2.74  18 2.74  24 2.74  48 2.74  10 2.74   8 2.81  53 2.81
                            54 2.82
  17  0.537  0.618  0.018-  24 2.74  59 2.74  42 2.74  64 2.74  58 2.74  75 2.74  22 2.81  25 2.81
                            60 2.82
  18  0.287  0.368  0.018-   6 2.74  59 2.74  10 2.74  44 2.74  16 2.74  42 2.74  53 2.81  61 2.81
                            46 2.82
  19  0.619  0.952  0.123-  78 2.74  21 2.74  25 2.74   7 2.74   8 2.74  53 2.74  20 2.77  71 2.77
                            69 2.77  44 2.81  75 2.81   4 2.82
  20  0.702  0.786  0.227-  66 2.74  71 2.74  69 2.74  67 2.74  55 2.74  12 2.74  19 2.77   1 2.77
                            56 2.77  25 2.77  21 2.77  73 2.77
  21  0.869  0.702  0.123-  19 2.74  45 2.74  25 2.74  78 2.74  46 2.74  70 2.74  12 2.77  55 2.77
                            20 2.77   4 2.81  58 2.81   6 2.82
  22  0.619  0.452  0.123-  45 2.74  61 2.74  11 2.74  25 2.74   7 2.74  60 2.74  79 2.76  67 2.77
                            51 2.77  17 2.81  42 2.81  64 2.82
  23  0.285  0.869  0.330-  14 2.74  57 2.74  73 2.74   2 2.74  13 2.74  47 2.74  68 2.77  26 2.77
                            66 2.77  31 2.81  37 2.81  29 2.82
  24  0.287  0.868  0.018-  17 2.74  59 2.74  48 2.74   5 2.74  16 2.74  75 2.74  60 2.81   8 2.81
                            49 2.82
  25  0.619  0.702  0.123-  21 2.74  45 2.74  19 2.74   8 2.74  22 2.74  60 2.74  67 2.77  20 2.77
                            66 2.77  17 2.81  75 2.81  58 2.82
  26  0.202  0.036  0.227-  77 2.74  65 2.74  68 2.74  62 2.74  66 2.74  69 2.74  54 2.76  49 2.77
                            23 2.77  13 2.77   8 2.77  47 2.77
  27  0.868  0.953  0.436-  29 2.73  39 2.74  34 2.74  32 2.74  40 2.74  35 2.74   1 2.81  72 2.81
                             2 2.81
  28  0.117  0.453  0.436-  39 2.74  50 2.74  30 2.74  33 2.74  35 2.74  36 2.74   3 2.81   9 2.82
                            15 2.82
  29  0.117  0.953  0.436-  27 2.73  31 2.74  39 2.74  32 2.74  37 2.74  33 2.74   2 2.81  47 2.81
                            23 2.82
  30  0.868  0.453  0.436-  33 2.74  32 2.74  35 2.74  28 2.74  52 2.74  38 2.74  63 2.81   9 2.81
                            56 2.81
  31  0.367  0.953  0.436-  33 2.74  37 2.74  36 2.74  29 2.74  52 2.74  34 2.75  23 2.81  13 2.81
                            73 2.82
  32  0.867  0.203  0.436-  30 2.74  38 2.74  33 2.74  27 2.74  29 2.74  40 2.74  63 2.81  72 2.81
                            47 2.82
  33  0.117  0.203  0.436-  30 2.74  31 2.74  36 2.74  32 2.74  28 2.74  29 2.74   9 2.81  47 2.81
                            13 2.82
  34  0.618  0.953  0.436-  35 2.74  36 2.74  40 2.74  27 2.74  52 2.74  31 2.75  73 2.81  43 2.81
                             1 2.81
  35  0.867  0.703  0.436-  52 2.74  34 2.74  30 2.74  28 2.74  27 2.74  39 2.74  56 2.81   1 2.81
                             3 2.82
  36  0.368  0.203  0.436-  31 2.74  34 2.74  33 2.74  40 2.74  50 2.74  28 2.74  13 2.81  15 2.81
                            43 2.82
  37  0.368  0.703  0.436-  52 2.74  31 2.74  38 2.74  29 2.74  50 2.74  39 2.74  23 2.81  57 2.81
                            14 2.82
  38  0.617  0.453  0.436-  40 2.74  32 2.74  37 2.74  50 2.74  52 2.74  30 2.74  41 2.81  14 2.81
                            63 2.82
  39  0.117  0.703  0.436-  28 2.74  50 2.74  29 2.74  27 2.74  35 2.74  37 2.74   3 2.81   2 2.81
                            57 2.81
  40  0.617  0.203  0.436-  38 2.74  34 2.74  36 2.74  50 2.74  32 2.74  27 2.74  41 2.81  43 2.81
                            72 2.82
  41  0.534  0.369  0.330-  57 2.74  15 2.74  43 2.74  63 2.74  72 2.74  14 2.74  80 2.77  51 2.77
                            79 2.77  40 2.81  38 2.81  50 2.82
  42  0.537  0.368  0.018-  74 2.74  44 2.74  64 2.74  17 2.74  59 2.74  18 2.74   7 2.81  22 2.81
                            61 2.82
  43  0.535  0.119  0.330-  41 2.74  15 2.74  72 2.74  13 2.74  73 2.74   1 2.74  80 2.76  69 2.77
                            71 2.77  40 2.81  34 2.81  36 2.82
  44  0.537  0.118  0.018-  16 2.74  42 2.74  75 2.74  74 2.74  18 2.74   4 2.74  19 2.81   7 2.81
                            53 2.82
  45  0.869  0.452  0.123-  22 2.74  21 2.74  25 2.74  46 2.74  11 2.74  54 2.74  77 2.77  12 2.77
                            67 2.77  58 2.81  64 2.81  10 2.82
  46  0.119  0.452  0.124-  53 2.74  45 2.74  54 2.74  21 2.74  70 2.74  61 2.74  62 2.76  76 2.77
                            12 2.77   6 2.81  10 2.81  18 2.82
  47  0.035  0.119  0.330-   9 2.74  13 2.74  72 2.74  23 2.74  63 2.74   2 2.74  77 2.77  65 2.77
                            26 2.77  29 2.81  33 2.81  32 2.82
  48  0.037  0.118  0.018-   5 2.74  10 2.74  24 2.74  74 2.74  16 2.74  64 2.74  49 2.81  54 2.81
                            11 2.82
  49  0.119  0.952  0.123-  70 2.74  60 2.74  54 2.74   8 2.74  11 2.74  78 2.74  68 2.77  26 2.77
                            65 2.77  48 2.81   5 2.81  24 2.82
  50  0.367  0.453  0.436-  28 2.74  39 2.74  40 2.74  38 2.74  37 2.74  36 2.74  15 2.81  57 2.81
                            41 2.82
  51  0.452  0.536  0.227-  80 2.74  67 2.74  76 2.74  79 2.74  68 2.74  66 2.74  60 2.76  41 2.77
                            61 2.77  14 2.77  22 2.77  57 2.77
  52  0.617  0.703  0.436-  35 2.74  37 2.74  38 2.74  34 2.74  30 2.74  31 2.74  14 2.81  73 2.81
                            56 2.82
  53  0.369  0.202  0.124-  46 2.74  54 2.74   7 2.74  61 2.74   8 2.74  19 2.74  69 2.76  80 2.77
                            62 2.77  18 2.81  16 2.81  44 2.82
  54  0.119  0.202  0.123-   8 2.74  49 2.74  53 2.74  11 2.74  46 2.74  45 2.74  26 2.76  62 2.77
                            77 2.77  10 2.81  48 2.81  16 2.82
  55  0.952  0.786  0.227-  12 2.74  76 2.74  68 2.74  65 2.74  20 2.74  71 2.74   2 2.77  78 2.77
                             3 2.77  21 2.77   1 2.77  70 2.77
  56  0.785  0.619  0.330-  14 2.74  73 2.74  63 2.74   3 2.74   1 2.74   9 2.74  67 2.77  20 2.77
                            12 2.77  35 2.81  30 2.81  52 2.82
  57  0.285  0.619  0.330-   2 2.74  41 2.74  23 2.74  14 2.74   3 2.74  15 2.74  68 2.77  76 2.77
                            51 2.77  37 2.81  50 2.81  39 2.81
  58  0.787  0.618  0.018-   4 2.74  75 2.74  64 2.74  17 2.74   6 2.74  10 2.74  21 2.81  45 2.81
                            25 2.82
  59  0.287  0.618  0.018-  18 2.74  17 2.74   6 2.74  24 2.74  42 2.74   5 2.75  61 2.81  60 2.81
                            70 2.82
  60  0.369  0.702  0.123-  70 2.74  61 2.74  49 2.74   8 2.74  22 2.74  25 2.74  51 2.76  66 2.77
                            68 2.77  24 2.81  59 2.81  17 2.82
  61  0.369  0.452  0.123-  60 2.74  22 2.74   7 2.74  53 2.74  70 2.74  46 2.74  80 2.77  51 2.77
                            76 2.77  59 2.81  18 2.81  42 2.82
  62  0.202  0.286  0.227-  12 2.74  77 2.74  76 2.74  26 2.74  80 2.74  69 2.74  46 2.76  13 2.77
                            15 2.77  54 2.77   9 2.77  53 2.77
  63  0.785  0.369  0.330-  72 2.74  56 2.74  14 2.74  41 2.74   9 2.74  47 2.74  67 2.77  79 2.77
                            77 2.77  32 2.81  30 2.81  38 2.82
  64  0.787  0.368  0.018-  10 2.74  42 2.74  58 2.74  17 2.74  48 2.74  74 2.74  11 2.81  45 2.81
                            22 2.82
  65  0.952  0.036  0.227-  77 2.74  26 2.74  79 2.74  68 2.74  55 2.74  71 2.74  11 2.77   2 2.77
                            47 2.77  78 2.77  72 2.77  49 2.77
  66  0.452  0.786  0.227-  69 2.74  20 2.74  26 2.74  67 2.74  68 2.74  51 2.74   8 2.76  14 2.77
                            60 2.77  73 2.77  23 2.77  25 2.77
  67  0.702  0.536  0.227-  51 2.74  77 2.74  20 2.74  12 2.74  66 2.74  79 2.74  56 2.77  63 2.77
                            25 2.77  22 2.77  45 2.77  14 2.77
  68  0.202  0.786  0.227-  26 2.74  65 2.74  55 2.74  51 2.74  76 2.74  66 2.74  49 2.77  23 2.77
                            70 2.77  57 2.77   2 2.77  60 2.77
  69  0.452  0.036  0.227-  66 2.74  71 2.74  20 2.74  26 2.74  80 2.74  62 2.74  53 2.76  43 2.77
                            73 2.77   8 2.77  13 2.77  19 2.77
  70  0.119  0.702  0.123-  60 2.74  49 2.74  61 2.74  46 2.74  78 2.74  21 2.74  76 2.77  68 2.77
                            55 2.77   6 2.81   5 2.81  59 2.82
  71  0.702  0.036  0.227-  20 2.74  69 2.74  79 2.74  65 2.74  55 2.74  80 2.74   7 2.76   1 2.77
                            72 2.77  19 2.77  78 2.77  43 2.77
  72  0.785  0.119  0.330-  63 2.74  43 2.74  47 2.74  41 2.74   1 2.74   2 2.74  79 2.77  71 2.77
                            65 2.77  27 2.81  32 2.81  40 2.82
  73  0.535  0.869  0.330-  56 2.74  14 2.74  23 2.74  13 2.74   1 2.74  43 2.74  69 2.77  66 2.77
                            20 2.77  34 2.81  52 2.81  31 2.82
  74  0.787  0.118  0.018-  42 2.74   5 2.74  44 2.74   4 2.74  48 2.74  64 2.74  78 2.81  11 2.81
                             7 2.82
  75  0.537  0.868  0.018-  16 2.74  58 2.74   4 2.74  44 2.74  17 2.74  24 2.74  19 2.81  25 2.81
                             8 2.82
  76  0.202  0.536  0.227-  80 2.74  55 2.74  62 2.74  12 2.74  51 2.74  68 2.74  46 2.77  70 2.77
                            57 2.77  15 2.77  61 2.77   3 2.77
  77  0.952  0.286  0.227-  65 2.74  26 2.74  79 2.74  62 2.74  67 2.74  12 2.74  45 2.77  47 2.77
                             9 2.77  11 2.77  63 2.77  54 2.77
  78  0.869  0.952  0.123-   7 2.74  19 2.74  21 2.74  11 2.74  70 2.74  49 2.74  55 2.77  65 2.77
                            71 2.77  74 2.81   4 2.81   5 2.82
  79  0.702  0.286  0.227-  77 2.74  65 2.74  71 2.74  80 2.74  51 2.74  67 2.74  22 2.76  72 2.77
                             7 2.77  63 2.77  11 2.77  41 2.77
  80  0.452  0.286  0.227-  76 2.74  51 2.74  79 2.74  69 2.74  71 2.74  62 2.74  43 2.76  41 2.77
                            61 2.77  53 2.77  15 2.77   7 2.77
 
  LATTYP: Found a hexagonal cell.
 ALAT       =    10.9600000166
 C/A-ratio  =     2.0072992670
  
  Lattice vectors:
  
 A1 = (   5.4799999760,  -9.4916384585,   0.0000000000)
 A2 = ( -10.9600000060,   0.0000000000,   0.0000000000)
 A3 = (   0.0000000000,   0.0000000000, -22.0000000000)


Analysis of symmetry for initial positions (statically):
=====================================================================
 Subroutine PRICEL returns:
 Original cell was already a primitive cell.
 

 Routine SETGRP: Setting up the symmetry group for a 
 hexagonal supercell.


 Subroutine GETGRP returns: Found  1 space group operations
 (whereof  1 operations were pure point group operations)
 out of a pool of 24 trial point group operations.


The static configuration has the point symmetry C_1 .


Analysis of symmetry for dynamics (positions and initial velocities):
=====================================================================
 Subroutine PRICEL returns:
 Original cell was already a primitive cell.
 

 Routine SETGRP: Setting up the symmetry group for a 
 hexagonal supercell.


 Subroutine GETGRP returns: Found  1 space group operations
 (whereof  1 operations were pure point group operations)
 out of a pool of 24 trial point group operations.


The dynamic configuration has the point symmetry C_1 .


 Subroutine INISYM returns: Found  1 space group operations
 (whereof  1 operations are pure point group operations),
 and found     1 'primitive' translations

 
 
 KPOINTS: mesh auto                               

Automatic generation of k-mesh.
Space group operators:
 irot       det(A)        alpha          n_x          n_y          n_z        tau_x        tau_y        tau_z
    1     1.000000     0.000000     1.000000     0.000000     0.000000     0.000000     0.000000     0.000000
 
 Subroutine IBZKPT returns following result:
 ===========================================
 
 Found      4 irreducible k-points:
 
 Following reciprocal coordinates:
            Coordinates               Weight
  0.000000  0.000000  0.000000      1.000000
  0.500000  0.000000  0.000000      1.000000
  0.000000  0.500000  0.000000      1.000000
  0.500000  0.500000  0.000000      1.000000
 
 Following cartesian coordinates:
            Coordinates               Weight
  0.000000  0.000000  0.000000      1.000000
  0.045620 -0.026339  0.000000      1.000000
  0.000000  0.052678  0.000000      1.000000
  0.045620  0.026339  0.000000      1.000000
 


--------------------------------------------------------------------------------------------------------




 Dimension of arrays:
   k-points           NKPTS =      4   k-points in BZ     NKDIM =      4   number of bands    NBANDS=    480
   number of dos      NEDOS =    301   number of ions     NIONS =     80
   non local maximal  LDIM  =      6   non local SUM 2l+1 LMDIM =     18
   total plane-waves  NPLWV = ******
   max r-space proj   IRMAX =   7247   max aug-charges    IRDMAX=  31567
   dimension x,y,z NGX =    84 NGY =   84 NGZ =  168
   dimension x,y,z NGXF=   168 NGYF=  168 NGZF=  336
   support grid    NGXF=   168 NGYF=  168 NGZF=  336
   ions per type =              80
   NGX,Y,Z   is equivalent  to a cutoff of  12.74, 12.74, 12.70 a.u.
   NGXF,Y,Z  is equivalent  to a cutoff of  25.48, 25.48, 25.39 a.u.

 SYSTEM =  Pt111                                   
 POSCAR =  Pt111                                   

 Startparameter for this run:
   NWRITE =      2    write-flag & timer
   PREC   = accura    normal or accurate (medium, high low for compatibility)
   ISTART =      0    job   : 0-new  1-cont  2-samecut
   ICHARG =      2    charge: 1-file 2-atom 10-const
   ISPIN  =      1    spin polarized calculation?
   LNONCOLLINEAR =      F non collinear calculations
   LSORBIT =      F    spin-orbit coupling
   INIWAV =      1    electr: 0-lowe 1-rand  2-diag
   LASPH  =      F    aspherical Exc in radial PAW
   METAGGA=      F    non-selfconsistent MetaGGA calc.

 Electronic Relaxation 1
   ENCUT  =  550.0 eV  40.42 Ry    6.36 a.u.  20.96 20.96 42.07*2*pi/ulx,y,z
   ENINI  =  550.0     initial cutoff
   ENAUG  =  359.0 eV  augmentation charge cutoff
   NELM   =    200;   NELMIN=  2; NELMDL= -5     # of ELM steps 
   EDIFF  = 0.1E-04   stopping-criterion for ELM
   LREAL  =      T    real-space projection
   NLSPLINE    = F    spline interpolate recip. space projectors
   LCOMPAT=      F    compatible to vasp.4.4
   GGA_COMPAT  = T    GGA compatible to vasp.4.4-vasp.4.6
   LMAXPAW     = -100 max onsite density
   LMAXMIX     =    2 max onsite mixed and CHGCAR
   VOSKOWN=      0    Vosko Wilk Nusair interpolation
   ROPT   =   -0.00025
 Ionic relaxation
   EDIFFG = -.5E-01   stopping-criterion for IOM
   NSW    =    300    number of steps for IOM
   NBLOCK =      1;   KBLOCK =    300    inner block; outer block 
   IBRION =      2    ionic relax: 0-MD 1-quasi-New 2-CG
   NFREE  =      1    steps in history (QN), initial steepest desc. (CG)
   ISIF   =      2    stress and relaxation
   IWAVPR =     11    prediction:  0-non 1-charg 2-wave 3-comb
   ISYM   =      2    0-nonsym 1-usesym 2-fastsym
   LCORR  =      T    Harris-Foulkes like correction to forces

   POTIM  = 0.5000    time-step for ionic-motion
   TEIN   =    0.0    initial temperature
   TEBEG  =    0.0;   TEEND  =   0.0 temperature during run
   SMASS  =  -3.00    Nose mass-parameter (am)
   estimated Nose-frequenzy (Omega)   =  0.10E-29 period in steps =****** mass=  -0.275E-26a.u.
   SCALEE = 1.0000    scale energy and forces
   NPACO  =    256;   APACO  = 16.0  distance and # of slots for P.C.
   PSTRESS=    0.0 pullay stress

  Mass of Ions in am
   POMASS = 195.08
  Ionic Valenz
   ZVAL   =  10.00
  Atomic Wigner-Seitz radii
   RWIGS  =  -1.00
  virtual crystal weights 
   VCA    =   1.00
   NELECT =     800.0000    total number of electrons
   NUPDOWN=      -1.0000    fix difference up-down

 DOS related values:
   EMIN   =  10.00;   EMAX   =-10.00  energy-range for DOS
   EFERMI =   0.00
   ISMEAR =     1;   SIGMA  =   0.10  broadening in eV -4-tet -1-fermi 0-gaus

 Electronic relaxation 2 (details)
   IALGO  =     68    algorithm
   LDIAG  =      T    sub-space diagonalisation (order eigenvalues)
   LSUBROT=      F    optimize rotation matrix (better conditioning)
   TURBO    =      0    0=normal 1=particle mesh
   IRESTART =      0    0=no restart 2=restart with 2 vectors
   NREBOOT  =      0    no. of reboots
   NMIN     =      0    reboot dimension
   EREF     =   0.00    reference energy to select bands
   IMIX   =      4    mixing-type and parameters
     AMIX     =   0.40;   BMIX     =  1.00
     AMIX_MAG =   1.60;   BMIX_MAG =  1.00
     AMIN     =   0.10
     WC   =   100.;   INIMIX=   1;  MIXPRE=   1;  MAXMIX= -45

 Intra band minimization:
   WEIMIN = 0.0010     energy-eigenvalue tresh-hold
   EBREAK =  0.52E-08  absolut break condition
   DEPER  =   0.30     relativ break condition  

   TIME   =   0.40     timestep for ELM

  volume/ion in A,a.u.               =      28.61       193.05
  Fermi-wavevector in a.u.,A,eV,Ry     =   1.153223  2.179276 18.094710  1.329924
  Thomas-Fermi vector in A             =   2.289869
 
 Write flags
   LWAVE        =      F    write WAVECAR
   LDOWNSAMPLE  =      F    k-point downsampling of WAVECAR
   LCHARG       =      F    write CHGCAR
   LVTOT        =      F    write LOCPOT, total local potential
   LVHAR        =      F    write LOCPOT, Hartree potential only
   LELF         =      F    write electronic localiz. function (ELF)
   LORBIT       =      0    0 simple, 1 ext, 2 COOP (PROOUT), +10 PAW based schemes


 Dipole corrections
   LMONO  =      F    monopole corrections only (constant potential shift)
   LDIPOL =      F    correct potential (dipole corrections)
   IDIPOL =      0    1-x, 2-y, 3-z, 4-all directions 
   EPSILON=  1.0000000 bulk dielectric constant

 Exchange correlation treatment:
   GGA     =    --    GGA type
   LEXCH   =     8    internal setting for exchange type
   VOSKOWN=      0    Vosko Wilk Nusair interpolation
   LHFCALC =     F    Hartree Fock is set to
   LHFONE  =     F    Hartree Fock one center treatment
   AEXX    =    0.0000 exact exchange contribution

 Linear response parameters
   LEPSILON=     F    determine dielectric tensor
   LRPA    =     F    only Hartree local field effects (RPA)
   LNABLA  =     F    use nabla operator in PAW spheres
   LVEL    =     F    velocity operator in full k-point grid
   LINTERFAST=   F  fast interpolation
   KINTER  =     0    interpolate to denser k-point grid
   CSHIFT  =0.1000    complex shift for real part using Kramers Kronig
   OMEGAMAX=  -1.0    maximum frequency
   DEG_THRESHOLD= 0.2000000E-02 threshold for treating states as degnerate
   RTIME   =   -0.100 relaxation time in fs
  (WPLASMAI=    0.000 imaginary part of plasma frequency in eV, 0.658/RTIME)
   DFIELD  = 0.0000000 0.0000000 0.0000000 field for delta impulse in time
 
 Orbital magnetization related:
   ORBITALMAG=     F  switch on orbital magnetization
   LCHIMAG   =     F  perturbation theory with respect to B field
   DQ        =  0.001000  dq finite difference perturbation B field
   LLRAUG    =     F  two centre corrections for induced B field



--------------------------------------------------------------------------------------------------------


 conjugate gradient relaxation of ions
 charge density and potential will be updated during run
 non-spin polarized calculation
 RMM-DIIS sequential band-by-band and
  variant of blocked Davidson during initial phase
 perform sub-space diagonalisation
    before iterative eigenvector-optimisation
 modified Broyden-mixing scheme, WC =      100.0
 initial mixing is a Kerker type mixing with AMIX =  0.4000 and BMIX =      1.0000
 Hartree-type preconditioning will be used
 using additional bands           80
 real space projection scheme for non local part
 use partial core corrections
 calculate Harris-corrections to forces 
   (improved forces if not selfconsistent)
 use gradient corrections 
 use of overlap-Matrix (Vanderbilt PP)
 Methfessel and Paxton  Order N= 1 SIGMA  =   0.10


--------------------------------------------------------------------------------------------------------


  energy-cutoff  :      550.00
  volume of cell :     2288.62
      direct lattice vectors                 reciprocal lattice vectors
    10.960000006  0.000000000  0.000000000     0.091240876 -0.052677944  0.000000000
     5.480000030  9.491638459  0.000000000     0.000000000  0.105355888  0.000000000
     0.000000000  0.000000000 22.000000000     0.000000000  0.000000000  0.045454545

  length of vectors
    10.960000006 10.960000044 22.000000000     0.105355889  0.105355888  0.045454545


 
 k-points in units of 2pi/SCALE and weight: mesh auto                               
   0.00000000  0.00000000  0.00000000       0.250
   0.04562044 -0.02633897  0.00000000       0.250
   0.00000000  0.05267794  0.00000000       0.250
   0.04562044  0.02633897  0.00000000       0.250
 
 k-points in reciprocal lattice and weights: mesh auto                               
   0.00000000  0.00000000  0.00000000       0.250
   0.50000000  0.00000000  0.00000000       0.250
   0.00000000  0.50000000  0.00000000       0.250
   0.50000000  0.50000000  0.00000000       0.250
 
 position of ions in fractional coordinates (direct lattice) 
   0.78467206  0.86934073  0.32987460
   0.03474537  0.86917751  0.32991019
   0.03453725  0.61935992  0.33000996
   0.78712625  0.86765186  0.01757050
   0.03656860  0.86828275  0.01768104
   0.03711578  0.61779823  0.01780441
   0.61937703  0.20173626  0.12337051
   0.36932558  0.95178754  0.12339779
   0.03463743  0.36931352  0.32999598
   0.03681824  0.36766148  0.01784212
   0.86932555  0.20182459  0.12331703
   0.95197632  0.53565603  0.22670109
   0.28464553  0.11935486  0.32996815
   0.53457227  0.61943936  0.32992842
   0.28461171  0.36929502  0.33006836
   0.28721285  0.11769600  0.01776764
   0.53673156  0.61793039  0.01772424
   0.28671580  0.36806524  0.01784719
   0.61934139  0.95176790  0.12332604
   0.70194200  0.78567268  0.22659554
   0.86925911  0.70183525  0.12341632
   0.61938527  0.45180406  0.12339238
   0.28467164  0.86933408  0.32996133
   0.28696344  0.86767941  0.01772950
   0.61931520  0.70181950  0.12333580
   0.20190411  0.03569016  0.22666009
   0.86762968  0.95292260  0.43551106
   0.11748429  0.45308759  0.43587606
   0.11717672  0.95278574  0.43565126
   0.86771628  0.45268864  0.43565215
   0.36695587  0.95310391  0.43571880
   0.86734215  0.20315227  0.43566294
   0.11744718  0.20304533  0.43570827
   0.61751850  0.95299729  0.43556620
   0.86697613  0.70295312  0.43564040
   0.36752904  0.20261424  0.43575889
   0.36763905  0.70297956  0.43570725
   0.61728754  0.45285021  0.43561963
   0.11742065  0.70270915  0.43572719
   0.61726840  0.20308665  0.43555435
   0.53446335  0.36943945  0.32992523
   0.53736055  0.36754416  0.01770149
   0.53462124  0.11942714  0.32990187
   0.53685025  0.11798701  0.01763958
   0.86928508  0.45187049  0.12348232
   0.11934801  0.45178846  0.12355861
   0.03464839  0.11933441  0.32997306
   0.03704964  0.11771626  0.01763222
   0.11933606  0.95179737  0.12344715
   0.36713544  0.45305171  0.43583415
   0.45197384  0.53563817  0.22668797
   0.61739998  0.70289362  0.43563174
   0.36930342  0.20185650  0.12350703
   0.11939157  0.20170824  0.12345346
   0.95199537  0.78561479  0.22668309
   0.78452700  0.61935030  0.32989908
   0.28459763  0.61939374  0.33003892
   0.78683119  0.61803579  0.01767071
   0.28697629  0.61776354  0.01777784
   0.36922066  0.70181489  0.12348052
   0.36941860  0.45183514  0.12346855
   0.20184643  0.28572288  0.22674578
   0.78451867  0.36938140  0.32991482
   0.78700048  0.36805132  0.01760750
   0.95195442  0.03565897  0.22665263
   0.45198954  0.78574079  0.22664902
   0.70195658  0.53565202  0.22664367
   0.20197668  0.78567519  0.22670810
   0.45194577  0.03564474  0.22668205
   0.11933917  0.70187797  0.12345593
   0.70193899  0.03562413  0.22660680
   0.78457225  0.11946964  0.32985257
   0.53465046  0.86936033  0.32997022
   0.78685379  0.11787722  0.01751774
   0.53707225  0.86795273  0.01756385
   0.20196384  0.53564606  0.22672742
   0.95192950  0.28560594  0.22669704
   0.86917343  0.95188563  0.12338506
   0.70196229  0.28560392  0.22660255
   0.45192178  0.28567942  0.22672199
 
 position of ions in cartesian coordinates  (Angst):
  13.36399306  8.25146791  7.25724121
   5.14390204  8.24991868  7.25802426
   3.77262066  5.87874045  7.26021919
  13.38163597  8.23543777  0.38655104
   5.15898138  8.24142595  0.38898290
   3.79232328  5.86391745  0.39169709
   7.89388690  1.91480761  2.71415123
   9.26360412  9.03402321  2.71475133
   2.40346428  3.50539039  7.25991156
   2.41831281  3.48970981  0.39252655
  10.63380686  1.91564607  2.71297456
  13.36905548  5.08425336  4.98742408
   3.77377967  1.13287319  7.25929937
   9.25343973  5.87949443  7.25842527
   5.14308101  3.50521479  7.26150390
   3.79282696  1.11712786  0.39088799
   9.26883648  5.86517187  0.38993338
   5.15940268  3.49354222  0.39263811
  12.00366976  9.03383680  2.71317294
  11.99877060  7.45732101  4.98510195
  13.37313708  6.66156643  2.71515902
   9.26434884  4.28836077  2.71463240
   7.88395194  8.25140476  7.25914918
   7.90000245  8.23569922  0.39004907
  10.63366554  6.66141700  2.71338753
   2.40845107  0.33875809  4.98652203
  14.73123721  9.04479680  9.58124333
   3.77054784  4.30054355  9.58927323
   6.50552268  9.04349774  9.58432782
  11.99090416  4.29675686  9.58434724
   9.24484573  9.04651768  9.58581364
  10.61934441  1.92824794  9.58458470
   2.39990950  1.92723291  9.58558197
  11.99042796  9.04550573  9.58245649
  13.35424146  6.67217687  9.58408886
   5.13844438  1.92314113  9.58669558
   7.88165205  6.67242787  9.58555959
   9.24709059  4.29829044  9.58363183
   5.13777645  6.66986119  9.58599828
   7.87817656  1.92762509  9.58219575
   7.88224647  3.50658566  7.25835501
   7.90361365  3.48859632  0.38943288
   6.51390951  1.13355926  7.25784125
   6.53044757  1.11989004  0.38807067
  12.00361474  4.28899128  2.71661101
   3.78385491  4.28821268  2.71828937
   1.03369894  1.13267903  7.25940735
   1.05114913  1.11732018  0.38790892
   6.52377280  9.03411651  2.71583730
   6.50652778  4.30020302  9.58835137
   7.88893050  5.08408384  4.98713538
  10.61856084  6.67161207  9.58389834
   5.15373915  1.91594889  2.71715465
   2.41389275  1.91454169  2.71597607
  14.73903838  7.45677157  4.98702802
  11.99245558  5.87864915  7.25777972
   6.51346780  5.87906147  7.26085623
  12.01050599  5.86617227  0.38875561
   6.53060439  5.86358820  0.39111241
   7.89260402  6.66137321  2.71657152
   6.52488440  4.28865576  2.71630803
   3.77799834  2.71197832  4.98840722
  10.62253474  3.50603467  7.25812596
  10.64244655  3.49341010  0.38736489
  10.62883163  0.33846205  4.98635781
   9.25966488  7.45796746  4.98627848
  10.62881726  5.08421532  4.98616082
   6.51916447  7.45734487  4.98757831
   5.14865878  0.33832701  4.98700505
   5.15424856  6.66197189  2.71603035
   7.88847161  0.33813134  4.98534961
   9.25360547  1.13396260  7.25675663
  10.62386363  8.25165395  7.25934490
   9.26988468  1.11884799  0.38539038
  10.64269286  8.23829351  0.38640475
   5.14886411  5.08415872  4.98800314
  11.99826790  2.71086836  4.98733496
  14.74247409  9.03495421  2.71447143
   9.25861626  2.71084917  4.98525609
   6.51858593  2.71156575  4.98788369
 


--------------------------------------------------------------------------------------------------------


 k-point  1 :   0.0000 0.0000 0.0000  plane waves:   66973
 k-point  2 :   0.5000 0.0000 0.0000  plane waves:   67000
 k-point  3 :   0.0000 0.5000 0.0000  plane waves:   67000
 k-point  4 :   0.5000 0.5000 0.0000  plane waves:   67000

 maximum and minimum number of plane-waves per node :     16772    16723

 maximum number of plane-waves:     67000
 maximum index in each direction: 
   IXMAX=   20   IYMAX=   20   IZMAX=   42
   IXMIN=  -21   IYMIN=  -21   IZMIN=  -42


 real space projection operators:
  total allocation   :      78425.30 KBytes
  max/ min on nodes  :      19609.45      19603.97


 parallel 3D FFT for wavefunctions:
    minimum data exchange during FFTs selected (reduces bandwidth)
 parallel 3D FFT for charge:
    minimum data exchange during FFTs selected (reduces bandwidth)


 total amount of memory used by VASP MPI-rank0   160362. kBytes
=======================================================================

   base      :      30000. kBytes
   nonlr-proj:      33937. kBytes
   fftplans  :      17977. kBytes
   grid      :      25483. kBytes
   one-center:        311. kBytes
   wavefun   :      52654. kBytes
 
     INWAV:  cpu time    0.0000: real time    0.0000
 Broyden mixing: mesh for mixing (old mesh)
   NGX = 41   NGY = 41   NGZ = 85
  (NGX  =168   NGY  =168   NGZ  =336)
  gives a total of 142885 points

 initial charge density was supplied:
 charge density of overlapping atoms calculated
 number of electron     800.0000000 magnetization 
 keeping initial charge density in first step


--------------------------------------------------------------------------------------------------------


 Maximum index for non-local projection operator         1763
 Maximum index for augmentation-charges         1988 (set IRDMAX)


--------------------------------------------------------------------------------------------------------


 First call to EWALD:  gamma=   0.134
 Maximum number of real-space cells 4x 4x 2
 Maximum number of reciprocal cells 2x 2x 4

    FEWALD:  cpu time    0.0038: real time    0.0038


--------------------------------------- Iteration      1(   1)  ---------------------------------------


    POTLOK:  cpu time    0.1817: real time    0.1851
    SETDIJ:  cpu time    0.0164: real time    0.0168
     EDDAV:  cpu time   27.2066: real time   27.2888
       DOS:  cpu time    0.0010: real time    0.0011
    --------------------------------------------
      LOOP:  cpu time   27.4057: real time   27.4919

 eigenvalue-minimisations  :  3840
 total energy-change (2. order) : 0.5667951E+04  (-0.3940713E+05)
 number of electron     800.0000000 magnetization 
 augmentation part      800.0000000 magnetization 

 Free energy of the ion-electron system (eV)
  ---------------------------------------------------
  alpha Z        PSCENC =      2658.24768211
  Ewald energy   TEWEN  =    176568.81260540
  -Hartree energ DENC   =   -240998.01309215
  -exchange      EXHF   =         0.00000000
  -V(xc)+E(xc)   XCENC  =       287.85009143
  PAW double counting   =     55689.88283425   -53427.22359852
  entropy T*S    EENTRO =         0.00122053
  eigenvalues    EBANDS =      6559.14919444
  atomic energy  EATOM  =     58329.24398462
  Solvation  Ediel_sol  =         0.00000000
  ---------------------------------------------------
  free energy    TOTEN  =      5667.95092212 eV

  energy without entropy =     5667.94970160  energy(sigma->0) =     5667.95051528


--------------------------------------------------------------------------------------------------------




--------------------------------------- Iteration      1(   2)  ---------------------------------------


     EDDAV:  cpu time   29.5582: real time   29.6390
       DOS:  cpu time    0.0010: real time    0.0010
    --------------------------------------------
      LOOP:  cpu time   29.5592: real time   29.6400

 eigenvalue-minimisations  :  4280
 total energy-change (2. order) :-0.5809409E+04  (-0.5399283E+04)
 number of electron     800.0000000 magnetization 
 augmentation part      800.0000000 magnetization 

 Free energy of the ion-electron system (eV)
  ---------------------------------------------------
  alpha Z        PSCENC =      2658.24768211
  Ewald energy   TEWEN  =    176568.81260540
  -Hartree energ DENC   =   -240998.01309215
  -exchange      EXHF   =         0.00000000
  -V(xc)+E(xc)   XCENC  =       287.85009143
  PAW double counting   =     55689.88283425   -53427.22359852
  entropy T*S    EENTRO =         0.00345551
  eigenvalues    EBANDS =       749.73834350
  atomic energy  EATOM  =     58329.24398462
  Solvation  Ediel_sol  =         0.00000000
  ---------------------------------------------------
  free energy    TOTEN  =      -141.45769384 eV

  energy without entropy =     -141.46114934  energy(sigma->0) =     -141.45884567


--------------------------------------------------------------------------------------------------------




--------------------------------------- Iteration      1(   3)  ---------------------------------------


     EDDAV:  cpu time   31.4449: real time   31.5316
       DOS:  cpu time    0.0012: real time    0.0012
    --------------------------------------------
      LOOP:  cpu time   31.4461: real time   31.5328

 eigenvalue-minimisations  :  4660
 total energy-change (2. order) :-0.3407618E+03  (-0.3066203E+03)
 number of electron     800.0000000 magnetization 
 augmentation part      800.0000000 magnetization 

 Free energy of the ion-electron system (eV)
  ---------------------------------------------------
  alpha Z        PSCENC =      2658.24768211
  Ewald energy   TEWEN  =    176568.81260540
  -Hartree energ DENC   =   -240998.01309215
  -exchange      EXHF   =         0.00000000
  -V(xc)+E(xc)   XCENC  =       287.85009143
  PAW double counting   =     55689.88283425   -53427.22359852
  entropy T*S    EENTRO =        -0.11487508
  eigenvalues    EBANDS =       409.09482557
  atomic energy  EATOM  =     58329.24398462
  Solvation  Ediel_sol  =         0.00000000
  ---------------------------------------------------
  free energy    TOTEN  =      -482.21954236 eV

  energy without entropy =     -482.10466728  energy(sigma->0) =     -482.18125066


--------------------------------------------------------------------------------------------------------




--------------------------------------- Iteration      1(   4)  ---------------------------------------


     EDDAV:  cpu time   32.6156: real time   32.7048
       DOS:  cpu time    0.0012: real time    0.0012
    --------------------------------------------
      LOOP:  cpu time   32.6167: real time   32.7059

 eigenvalue-minimisations  :  4850
 total energy-change (2. order) :-0.1502322E+02  (-0.1433979E+02)
 number of electron     800.0000000 magnetization 
 augmentation part      800.0000000 magnetization 

 Free energy of the ion-electron system (eV)
  ---------------------------------------------------
  alpha Z        PSCENC =      2658.24768211
  Ewald energy   TEWEN  =    176568.81260540
  -Hartree energ DENC   =   -240998.01309215
  -exchange      EXHF   =         0.00000000
  -V(xc)+E(xc)   XCENC  =       287.85009143
  PAW double counting   =     55689.88283425   -53427.22359852
  entropy T*S    EENTRO =        -0.15693549
  eigenvalues    EBANDS =       394.11366529
  atomic energy  EATOM  =     58329.24398462
  Solvation  Ediel_sol  =         0.00000000
  ---------------------------------------------------
  free energy    TOTEN  =      -497.24276304 eV

  energy without entropy =     -497.08582755  energy(sigma->0) =     -497.19045121


--------------------------------------------------------------------------------------------------------




--------------------------------------- Iteration      1(   5)  ---------------------------------------


     EDDAV:  cpu time   32.0740: real time   32.1618
       DOS:  cpu time    0.0011: real time    0.0011
    CHARGE:  cpu time    2.1125: real time    2.1184
    MIXING:  cpu time    0.0069: real time    0.0074
    --------------------------------------------
      LOOP:  cpu time   34.1945: real time   34.2889

 eigenvalue-minimisations  :  4780
 total energy-change (2. order) :-0.3980416E+00  (-0.3963381E+00)
 number of electron     800.0000079 magnetization 
 augmentation part      231.9628797 magnetization 

 Broyden mixing:
  rms(total) = 0.10617E+02    rms(broyden)= 0.10617E+02
  rms(prec ) = 0.10761E+02
  weight for this iteration     100.00

 Free energy of the ion-electron system (eV)
  ---------------------------------------------------
  alpha Z        PSCENC =      2658.24768211
  Ewald energy   TEWEN  =    176568.81260540
  -Hartree energ DENC   =   -240998.01309215
  -exchange      EXHF   =         0.00000000
  -V(xc)+E(xc)   XCENC  =       287.85009143
  PAW double counting   =     55689.88283425   -53427.22359852
  entropy T*S    EENTRO =        -0.15769906
  eigenvalues    EBANDS =       393.71638728
  atomic energy  EATOM  =     58329.24398462
  Solvation  Ediel_sol  =         0.00000000
  ---------------------------------------------------
  free energy    TOTEN  =      -497.64080462 eV

  energy without entropy =     -497.48310556  energy(sigma->0) =     -497.58823827


--------------------------------------------------------------------------------------------------------




--------------------------------------- Iteration      1(   6)  ---------------------------------------


    POTLOK:  cpu time    0.1684: real time    0.1688
    SETDIJ:  cpu time    0.0146: real time    0.0147
    EDDIAG:  cpu time    4.7271: real time    4.7405
  RMM-DIIS:  cpu time   16.7966: real time   16.8427
    ORTHCH:  cpu time    0.4549: real time    0.4560
       DOS:  cpu time    0.0011: real time    0.0011
    CHARGE:  cpu time    2.0935: real time    2.0991
    MIXING:  cpu time    0.0072: real time    0.0074
    --------------------------------------------
      LOOP:  cpu time   24.2634: real time   24.3303

 eigenvalue-minimisations  :  3865
 total energy-change (2. order) :-0.9436519E+00  (-0.8512213E+01)
 number of electron     800.0000089 magnetization 
 augmentation part      245.4014948 magnetization 

 Broyden mixing:
  rms(total) = 0.86384E+01    rms(broyden)= 0.86384E+01
  rms(prec ) = 0.96389E+01
  weight for this iteration     100.00

 eigenvalues of (default mixing * dielectric matrix)
  average eigenvalue GAMMA=   1.0504
  1.0504

 Free energy of the ion-electron system (eV)
  ---------------------------------------------------
  alpha Z        PSCENC =      2658.24768211
  Ewald energy   TEWEN  =    176568.81260540
  -Hartree energ DENC   =   -239920.31464562
  -exchange      EXHF   =         0.00000000
  -V(xc)+E(xc)   XCENC  =       267.41863823
  PAW double counting   =     62573.45591667   -60438.94539024
  entropy T*S    EENTRO =        -0.17086117
  eigenvalues    EBANDS =      -536.33238655
  atomic energy  EATOM  =     58329.24398462
  Solvation  Ediel_sol  =         0.00000000
  ---------------------------------------------------
  free energy    TOTEN  =      -498.58445653 eV

  energy without entropy =     -498.41359536  energy(sigma->0) =     -498.52750281


--------------------------------------------------------------------------------------------------------




--------------------------------------- Iteration      1(   7)  ---------------------------------------


    POTLOK:  cpu time    0.1626: real time    0.1630
    SETDIJ:  cpu time    0.0145: real time    0.0145
    EDDIAG:  cpu time    4.7304: real time    4.7435
  RMM-DIIS:  cpu time   16.5355: real time   16.5811
    ORTHCH:  cpu time    0.4554: real time    0.4564
       DOS:  cpu time    0.0012: real time    0.0012
    CHARGE:  cpu time    2.1090: real time    2.1147
    MIXING:  cpu time    0.0073: real time    0.0073
    --------------------------------------------
      LOOP:  cpu time   24.0159: real time   24.0818

 eigenvalue-minimisations  :  3851
 total energy-change (2. order) :-0.9904867E+02  (-0.1865185E+02)
 number of electron     800.0000081 magnetization 
 augmentation part      239.7876161 magnetization 

 Broyden mixing:
  rms(total) = 0.95544E+01    rms(broyden)= 0.95544E+01
  rms(prec ) = 0.12157E+02
  weight for this iteration     100.00

 eigenvalues of (default mixing * dielectric matrix)
  average eigenvalue GAMMA=   1.2269
  2.2332  0.2205

 Free energy of the ion-electron system (eV)
  ---------------------------------------------------
  alpha Z        PSCENC =      2658.24768211
  Ewald energy   TEWEN  =    176568.81260540
  -Hartree energ DENC   =   -240954.34670784
  -exchange      EXHF   =         0.00000000
  -V(xc)+E(xc)   XCENC  =       263.30909097
  PAW double counting   =     65859.08126433   -63759.60331591
  entropy T*S    EENTRO =        -0.00458002
  eigenvalues    EBANDS =       437.62685435
  atomic energy  EATOM  =     58329.24398462
  Solvation  Ediel_sol  =         0.00000000
  ---------------------------------------------------
  free energy    TOTEN  =      -597.63312197 eV

  energy without entropy =     -597.62854196  energy(sigma->0) =     -597.63159530


--------------------------------------------------------------------------------------------------------




--------------------------------------- Iteration      1(   8)  ---------------------------------------


    POTLOK:  cpu time    0.1638: real time    0.1645
    SETDIJ:  cpu time    0.0146: real time    0.0146
    EDDIAG:  cpu time    4.7260: real time    4.7386
  RMM-DIIS:  cpu time   16.5712: real time   16.6171
    ORTHCH:  cpu time    0.5283: real time    0.5296
       DOS:  cpu time    0.0013: real time    0.0013
    CHARGE:  cpu time    2.1150: real time    2.1211
    MIXING:  cpu time    0.0082: real time    0.0082
    --------------------------------------------
      LOOP:  cpu time   24.1284: real time   24.1949

 eigenvalue-minimisations  :  3867
 total energy-change (2. order) : 0.8818672E+02  (-0.5826067E+01)
 number of electron     800.0000087 magnetization 
 augmentation part      247.8338337 magnetization 

 Broyden mixing:
  rms(total) = 0.50449E+01    rms(broyden)= 0.50449E+01
  rms(prec ) = 0.61854E+01
  weight for this iteration     100.00

 eigenvalues of (default mixing * dielectric matrix)
  average eigenvalue GAMMA=   0.9731
  2.1853  0.4693  0.2648

 Free energy of the ion-electron system (eV)
  ---------------------------------------------------
  alpha Z        PSCENC =      2658.24768211
  Ewald energy   TEWEN  =    176568.81260540
  -Hartree energ DENC   =   -240219.00533280
  -exchange      EXHF   =         0.00000000
  -V(xc)+E(xc)   XCENC  =       255.03758420
  PAW double counting   =     73189.86837529   -71182.22368496
  entropy T*S    EENTRO =         0.12005436
  eigenvalues    EBANDS =      -109.54767136
  atomic energy  EATOM  =     58329.24398462
  Solvation  Ediel_sol  =         0.00000000
  ---------------------------------------------------
  free energy    TOTEN  =      -509.44640314 eV

  energy without entropy =     -509.56645750  energy(sigma->0) =     -509.48642126


--------------------------------------------------------------------------------------------------------




--------------------------------------- Iteration      1(   9)  ---------------------------------------


    POTLOK:  cpu time    0.1712: real time    0.1716
    SETDIJ:  cpu time    0.0143: real time    0.0144
    EDDIAG:  cpu time    4.7297: real time    4.7429
  RMM-DIIS:  cpu time   16.5935: real time   16.6389
    ORTHCH:  cpu time    0.4562: real time    0.4576
       DOS:  cpu time    0.0011: real time    0.0011
    CHARGE:  cpu time    2.1246: real time    2.1304
    MIXING:  cpu time    0.0072: real time    0.0072
    --------------------------------------------
      LOOP:  cpu time   24.0978: real time   24.1640

 eigenvalue-minimisations  :  3860
 total energy-change (2. order) : 0.3036252E+02  (-0.6527016E+01)
 number of electron     800.0000085 magnetization 
 augmentation part      248.8343459 magnetization 

 Broyden mixing:
  rms(total) = 0.37665E+01    rms(broyden)= 0.37665E+01
  rms(prec ) = 0.49128E+01
  weight for this iteration     100.00

 eigenvalues of (default mixing * dielectric matrix)
  average eigenvalue GAMMA=   0.8813
  2.1232  0.8975  0.2392  0.2652

 Free energy of the ion-electron system (eV)
  ---------------------------------------------------
  alpha Z        PSCENC =      2658.24768211
  Ewald energy   TEWEN  =    176568.81260540
  -Hartree energ DENC   =   -240069.94739153
  -exchange      EXHF   =         0.00000000
  -V(xc)+E(xc)   XCENC  =       256.55932482
  PAW double counting   =     73369.95944781   -71360.89057806
  entropy T*S    EENTRO =        -0.01157629
  eigenvalues    EBANDS =      -231.05738364
  atomic energy  EATOM  =     58329.24398462
  Solvation  Ediel_sol  =         0.00000000
  ---------------------------------------------------
  free energy    TOTEN  =      -479.08388475 eV

  energy without entropy =     -479.07230846  energy(sigma->0) =     -479.08002598


--------------------------------------------------------------------------------------------------------




--------------------------------------- Iteration      1(  10)  ---------------------------------------


    POTLOK:  cpu time    0.1687: real time    0.1691
    SETDIJ:  cpu time    0.0146: real time    0.0146
    EDDIAG:  cpu time    4.7674: real time    4.7807
  RMM-DIIS:  cpu time   16.4988: real time   16.5441
    ORTHCH:  cpu time    0.4548: real time    0.4562
       DOS:  cpu time    0.0012: real time    0.0012
    CHARGE:  cpu time    2.1002: real time    2.1059
    MIXING:  cpu time    0.0076: real time    0.0076
    --------------------------------------------
      LOOP:  cpu time   24.0131: real time   24.0793

 eigenvalue-minimisations  :  3860
 total energy-change (2. order) :-0.3795160E+02  (-0.1667594E+01)
 number of electron     800.0000091 magnetization 
 augmentation part      247.7301324 magnetization 

 Broyden mixing:
  rms(total) = 0.60093E+01    rms(broyden)= 0.60093E+01
  rms(prec ) = 0.10199E+02
  weight for this iteration     100.00

 eigenvalues of (default mixing * dielectric matrix)
  average eigenvalue GAMMA=   0.7530
  2.1507  0.9875  0.2506  0.2506  0.1258

 Free energy of the ion-electron system (eV)
  ---------------------------------------------------
  alpha Z        PSCENC =      2658.24768211
  Ewald energy   TEWEN  =    176568.81260540
  -Hartree energ DENC   =   -240000.08363019
  -exchange      EXHF   =         0.00000000
  -V(xc)+E(xc)   XCENC  =       258.33903011
  PAW double counting   =     73429.72332136   -71415.45891566
  entropy T*S    EENTRO =        -0.07377963
  eigenvalues    EBANDS =      -345.78578205
  atomic energy  EATOM  =     58329.24398462
  Solvation  Ediel_sol  =         0.00000000
  ---------------------------------------------------
  free energy    TOTEN  =      -517.03548391 eV

  energy without entropy =     -516.96170428  energy(sigma->0) =     -517.01089070


--------------------------------------------------------------------------------------------------------




--------------------------------------- Iteration      1(  11)  ---------------------------------------


    POTLOK:  cpu time    0.1714: real time    0.1719
    SETDIJ:  cpu time    0.0148: real time    0.0148
    EDDIAG:  cpu time    4.7277: real time    4.7408
  RMM-DIIS:  cpu time   16.5689: real time   16.6141
    ORTHCH:  cpu time    0.4564: real time    0.4578
       DOS:  cpu time    0.0012: real time    0.0012
    CHARGE:  cpu time    2.0860: real time    2.0917
    MIXING:  cpu time    0.0076: real time    0.0076
    --------------------------------------------
      LOOP:  cpu time   24.0341: real time   24.0999

 eigenvalue-minimisations  :  3866
 total energy-change (2. order) : 0.4639683E+02  (-0.7102392E+00)
 number of electron     800.0000085 magnetization 
 augmentation part      248.3063024 magnetization 

 Broyden mixing:
  rms(total) = 0.22221E+01    rms(broyden)= 0.22221E+01
  rms(prec ) = 0.30063E+01
  weight for this iteration     100.00

 eigenvalues of (default mixing * dielectric matrix)
  average eigenvalue GAMMA=   0.7168
  2.1932  0.9247  0.4278  0.4278  0.2362  0.0911

 Free energy of the ion-electron system (eV)
  ---------------------------------------------------
  alpha Z        PSCENC =      2658.24768211
  Ewald energy   TEWEN  =    176568.81260540
  -Hartree energ DENC   =   -240011.27919414
  -exchange      EXHF   =         0.00000000
  -V(xc)+E(xc)   XCENC  =       258.61109976
  PAW double counting   =     73569.06810455   -71554.99252188
  entropy T*S    EENTRO =        -0.08990190
  eigenvalues    EBANDS =      -288.26051281
  atomic energy  EATOM  =     58329.24398462
  Solvation  Ediel_sol  =         0.00000000
  ---------------------------------------------------
  free energy    TOTEN  =      -470.63865427 eV

  energy without entropy =     -470.54875237  energy(sigma->0) =     -470.60868697


--------------------------------------------------------------------------------------------------------




--------------------------------------- Iteration      1(  12)  ---------------------------------------


    POTLOK:  cpu time    0.1650: real time    0.1654
    SETDIJ:  cpu time    0.0145: real time    0.0146
    EDDIAG:  cpu time    4.7301: real time    4.7431
  RMM-DIIS:  cpu time   16.6075: real time   16.6533
    ORTHCH:  cpu time    0.4550: real time    0.4561
       DOS:  cpu time    0.0012: real time    0.0012
    CHARGE:  cpu time    2.0938: real time    2.0995
    MIXING:  cpu time    0.0075: real time    0.0075
    --------------------------------------------
      LOOP:  cpu time   24.0746: real time   24.1407

 eigenvalue-minimisations  :  3860
 total energy-change (2. order) : 0.3230691E+01  (-0.2652648E+00)
 number of electron     800.0000085 magnetization 
 augmentation part      248.0813427 magnetization 

 Broyden mixing:
  rms(total) = 0.12952E+01    rms(broyden)= 0.12952E+01
  rms(prec ) = 0.15635E+01
  weight for this iteration     100.00

 eigenvalues of (default mixing * dielectric matrix)
  average eigenvalue GAMMA=   0.6798
  2.1557  0.8356  0.8356  0.3236  0.3022  0.2172  0.0889

 Free energy of the ion-electron system (eV)
  ---------------------------------------------------
  alpha Z        PSCENC =      2658.24768211
  Ewald energy   TEWEN  =    176568.81260540
  -Hartree energ DENC   =   -240080.66107828
  -exchange      EXHF   =         0.00000000
  -V(xc)+E(xc)   XCENC  =       258.45836322
  PAW double counting   =     73706.52543626   -71693.99218396
  entropy T*S    EENTRO =        -0.12316251
  eigenvalues    EBANDS =      -213.91961055
  atomic energy  EATOM  =     58329.24398462
  Solvation  Ediel_sol  =         0.00000000
  ---------------------------------------------------
  free energy    TOTEN  =      -467.40796368 eV

  energy without entropy =     -467.28480116  energy(sigma->0) =     -467.36690951


--------------------------------------------------------------------------------------------------------




--------------------------------------- Iteration      1(  13)  ---------------------------------------


    POTLOK:  cpu time    0.1656: real time    0.1660
    SETDIJ:  cpu time    0.0146: real time    0.0147
    EDDIAG:  cpu time    4.7284: real time    4.7415
  RMM-DIIS:  cpu time   16.8415: real time   16.8879
    ORTHCH:  cpu time    0.5188: real time    0.5200
       DOS:  cpu time    0.0011: real time    0.0011
    CHARGE:  cpu time    2.1045: real time    2.1106
    MIXING:  cpu time    0.0067: real time    0.0067
    --------------------------------------------
      LOOP:  cpu time   24.3813: real time   24.4485

 eigenvalue-minimisations  :  3896
 total energy-change (2. order) : 0.5583580E+00  (-0.5554900E-01)
 number of electron     800.0000085 magnetization 
 augmentation part      247.9880467 magnetization 

 Broyden mixing:
  rms(total) = 0.85136E+00    rms(broyden)= 0.85135E+00
  rms(prec ) = 0.11394E+01
  weight for this iteration     100.00

 eigenvalues of (default mixing * dielectric matrix)
  average eigenvalue GAMMA=   0.7016
  2.0175  1.1153  1.1153  0.3805  0.3805  0.2852  0.2292  0.0895

 Free energy of the ion-electron system (eV)
  ---------------------------------------------------
  alpha Z        PSCENC =      2658.24768211
  Ewald energy   TEWEN  =    176568.81260540
  -Hartree energ DENC   =   -240096.28749533
  -exchange      EXHF   =         0.00000000
  -V(xc)+E(xc)   XCENC  =       258.62620575
  PAW double counting   =     73604.95014835   -71590.88897003
  entropy T*S    EENTRO =        -0.20401987
  eigenvalues    EBANDS =      -199.34974664
  atomic energy  EATOM  =     58329.24398462
  Solvation  Ediel_sol  =         0.00000000
  ---------------------------------------------------
  free energy    TOTEN  =      -466.84960565 eV

  energy without entropy =     -466.64558577  energy(sigma->0) =     -466.78159902


--------------------------------------------------------------------------------------------------------




--------------------------------------- Iteration      1(  14)  ---------------------------------------


    POTLOK:  cpu time    0.1666: real time    0.1670
    SETDIJ:  cpu time    0.0146: real time    0.0146
    EDDIAG:  cpu time    4.7255: real time    4.7383
  RMM-DIIS:  cpu time   16.6037: real time   16.6500
    ORTHCH:  cpu time    0.4565: real time    0.4579
       DOS:  cpu time    0.0011: real time    0.0011
    CHARGE:  cpu time    2.0963: real time    2.1021
    MIXING:  cpu time    0.0085: real time    0.0085
    --------------------------------------------
      LOOP:  cpu time   24.0729: real time   24.1395

 eigenvalue-minimisations  :  3871
 total energy-change (2. order) : 0.3821879E-02  (-0.5330677E-01)
 number of electron     800.0000085 magnetization 
 augmentation part      247.9523326 magnetization 

 Broyden mixing:
  rms(total) = 0.95483E+00    rms(broyden)= 0.95483E+00
  rms(prec ) = 0.11118E+01
  weight for this iteration     100.00

 eigenvalues of (default mixing * dielectric matrix)
  average eigenvalue GAMMA=   0.7223
  1.6134  1.6134  1.6303  0.4242  0.4242  0.3322  0.2264  0.0895  0.1475

 Free energy of the ion-electron system (eV)
  ---------------------------------------------------
  alpha Z        PSCENC =      2658.24768211
  Ewald energy   TEWEN  =    176568.81260540
  -Hartree energ DENC   =   -240092.66009235
  -exchange      EXHF   =         0.00000000
  -V(xc)+E(xc)   XCENC  =       259.05353996
  PAW double counting   =     73434.22287713   -71417.10851330
  entropy T*S    EENTRO =        -0.15280372
  eigenvalues    EBANDS =      -206.50506363
  atomic energy  EATOM  =     58329.24398462
  Solvation  Ediel_sol  =         0.00000000
  ---------------------------------------------------
  free energy    TOTEN  =      -466.84578377 eV

  energy without entropy =     -466.69298005  energy(sigma->0) =     -466.79484920


--------------------------------------------------------------------------------------------------------




--------------------------------------- Iteration      1(  15)  ---------------------------------------


    POTLOK:  cpu time    0.1725: real time    0.1729
    SETDIJ:  cpu time    0.0147: real time    0.0148
    EDDIAG:  cpu time    4.7530: real time    4.7663
  RMM-DIIS:  cpu time   16.6507: real time   16.6966
    ORTHCH:  cpu time    0.4553: real time    0.4567
       DOS:  cpu time    0.0011: real time    0.0011
    CHARGE:  cpu time    2.1015: real time    2.1072
    MIXING:  cpu time    0.0086: real time    0.0086
    --------------------------------------------
      LOOP:  cpu time   24.1575: real time   24.2242

 eigenvalue-minimisations  :  3865
 total energy-change (2. order) : 0.1460392E+00  (-0.4014813E-01)
 number of electron     800.0000085 magnetization 
 augmentation part      247.7901037 magnetization 

 Broyden mixing:
  rms(total) = 0.82695E+00    rms(broyden)= 0.82695E+00
  rms(prec ) = 0.10640E+01
  weight for this iteration     100.00

 eigenvalues of (default mixing * dielectric matrix)
  average eigenvalue GAMMA=   0.6936
  1.9011  1.4863  1.4863  0.4535  0.4535  0.4197  0.2660  0.2326  0.0895  0.1476

 Free energy of the ion-electron system (eV)
  ---------------------------------------------------
  alpha Z        PSCENC =      2658.24768211
  Ewald energy   TEWEN  =    176568.81260540
  -Hartree energ DENC   =   -240093.90761735
  -exchange      EXHF   =         0.00000000
  -V(xc)+E(xc)   XCENC  =       259.60458022
  PAW double counting   =     73283.93405634   -71263.44997885
  entropy T*S    EENTRO =        -0.17904034
  eigenvalues    EBANDS =      -209.00601679
  atomic energy  EATOM  =     58329.24398462
  Solvation  Ediel_sol  =         0.00000000
  ---------------------------------------------------
  free energy    TOTEN  =      -466.69974462 eV

  energy without entropy =     -466.52070428  energy(sigma->0) =     -466.64006450


--------------------------------------------------------------------------------------------------------




--------------------------------------- Iteration      1(  16)  ---------------------------------------


    POTLOK:  cpu time    0.1802: real time    0.1807
    SETDIJ:  cpu time    0.0146: real time    0.0147
    EDDIAG:  cpu time    4.7284: real time    4.7416
  RMM-DIIS:  cpu time   16.7428: real time   16.7892
    ORTHCH:  cpu time    0.4591: real time    0.4602
       DOS:  cpu time    0.0011: real time    0.0011
    CHARGE:  cpu time    2.0939: real time    2.0996
    MIXING:  cpu time    0.0091: real time    0.0091
    --------------------------------------------
      LOOP:  cpu time   24.2293: real time   24.2963

 eigenvalue-minimisations  :  3863
 total energy-change (2. order) : 0.3168315E+00  (-0.1735218E-01)
 number of electron     800.0000085 magnetization 
 augmentation part      247.7656050 magnetization 

 Broyden mixing:
  rms(total) = 0.29769E+00    rms(broyden)= 0.29769E+00
  rms(prec ) = 0.37248E+00
  weight for this iteration     100.00

 eigenvalues of (default mixing * dielectric matrix)
  average eigenvalue GAMMA=   0.7177
  2.2108  1.4155  1.4155  0.7403  0.7403  0.3452  0.3452  0.2242  0.2242  0.0895
  0.1445

 Free energy of the ion-electron system (eV)
  ---------------------------------------------------
  alpha Z        PSCENC =      2658.24768211
  Ewald energy   TEWEN  =    176568.81260540
  -Hartree energ DENC   =   -240111.84664746
  -exchange      EXHF   =         0.00000000
  -V(xc)+E(xc)   XCENC  =       259.47564061
  PAW double counting   =     73420.60370113   -71401.67945760
  entropy T*S    EENTRO =        -0.22854289
  eigenvalues    EBANDS =      -189.01187901
  atomic energy  EATOM  =     58329.24398462
  Solvation  Ediel_sol  =         0.00000000
  ---------------------------------------------------
  free energy    TOTEN  =      -466.38291308 eV

  energy without entropy =     -466.15437019  energy(sigma->0) =     -466.30673212


--------------------------------------------------------------------------------------------------------




--------------------------------------- Iteration      1(  17)  ---------------------------------------


    POTLOK:  cpu time    0.1650: real time    0.1654
    SETDIJ:  cpu time    0.0144: real time    0.0144
    EDDIAG:  cpu time    4.7137: real time    4.7268
  RMM-DIIS:  cpu time   16.6567: real time   16.7024
    ORTHCH:  cpu time    0.4585: real time    0.4596
       DOS:  cpu time    0.0012: real time    0.0012
    CHARGE:  cpu time    2.0974: real time    2.1031
    MIXING:  cpu time    0.0091: real time    0.0091
    --------------------------------------------
      LOOP:  cpu time   24.1159: real time   24.1820

 eigenvalue-minimisations  :  3868
 total energy-change (2. order) :-0.2515028E+00  (-0.1646074E-01)
 number of electron     800.0000085 magnetization 
 augmentation part      247.6887024 magnetization 

 Broyden mixing:
  rms(total) = 0.70620E+00    rms(broyden)= 0.70620E+00
  rms(prec ) = 0.93866E+00
  weight for this iteration     100.00

 eigenvalues of (default mixing * dielectric matrix)
  average eigenvalue GAMMA=   0.7070
  2.2089  1.5112  1.5112  0.8336  0.8336  0.3590  0.3590  0.2282  0.2282  0.0895
  0.1779  0.1434

 Free energy of the ion-electron system (eV)
  ---------------------------------------------------
  alpha Z        PSCENC =      2658.24768211
  Ewald energy   TEWEN  =    176568.81260540
  -Hartree energ DENC   =   -240127.99602545
  -exchange      EXHF   =         0.00000000
  -V(xc)+E(xc)   XCENC  =       259.41881557
  PAW double counting   =     73546.85004089   -71529.06750762
  entropy T*S    EENTRO =        -0.22494520
  eigenvalues    EBANDS =      -171.91906622
  atomic energy  EATOM  =     58329.24398462
  Solvation  Ediel_sol  =         0.00000000
  ---------------------------------------------------
  free energy    TOTEN  =      -466.63441589 eV

  energy without entropy =     -466.40947068  energy(sigma->0) =     -466.55943415


--------------------------------------------------------------------------------------------------------




--------------------------------------- Iteration      1(  18)  ---------------------------------------


    POTLOK:  cpu time    0.1667: real time    0.1674
    SETDIJ:  cpu time    0.0146: real time    0.0146
    EDDIAG:  cpu time    4.7119: real time    4.7248
  RMM-DIIS:  cpu time   16.7363: real time   16.7824
    ORTHCH:  cpu time    0.5437: real time    0.5454
       DOS:  cpu time    0.0011: real time    0.0011
    CHARGE:  cpu time    2.1012: real time    2.1069
    MIXING:  cpu time    0.0086: real time    0.0086
    --------------------------------------------
      LOOP:  cpu time   24.2841: real time   24.3513

 eigenvalue-minimisations  :  3862
 total energy-change (2. order) : 0.1965810E+00  (-0.4530601E-02)
 number of electron     800.0000085 magnetization 
 augmentation part      247.7063443 magnetization 

 Broyden mixing:
  rms(total) = 0.45229E+00    rms(broyden)= 0.45229E+00
  rms(prec ) = 0.61256E+00
  weight for this iteration     100.00

 eigenvalues of (default mixing * dielectric matrix)
  average eigenvalue GAMMA=   0.6728
  2.1343  1.5741  1.5741  0.8432  0.8432  0.3587  0.3587  0.2245  0.2320  0.2320
  0.0895  0.1423  0.1401

 Free energy of the ion-electron system (eV)
  ---------------------------------------------------
  alpha Z        PSCENC =      2658.24768211
  Ewald energy   TEWEN  =    176568.81260540
  -Hartree energ DENC   =   -240128.29314610
  -exchange      EXHF   =         0.00000000
  -V(xc)+E(xc)   XCENC  =       259.55104810
  PAW double counting   =     73541.04298100   -71522.64191293
  entropy T*S    EENTRO =        -0.23993504
  eigenvalues    EBANDS =      -172.16114207
  atomic energy  EATOM  =     58329.24398462
  Solvation  Ediel_sol  =         0.00000000
  ---------------------------------------------------
  free energy    TOTEN  =      -466.43783489 eV

  energy without entropy =     -466.19789985  energy(sigma->0) =     -466.35785655


--------------------------------------------------------------------------------------------------------




--------------------------------------- Iteration      1(  19)  ---------------------------------------


    POTLOK:  cpu time    0.1670: real time    0.1674
    SETDIJ:  cpu time    0.0143: real time    0.0144
    EDDIAG:  cpu time    4.7280: real time    4.7412
  RMM-DIIS:  cpu time   16.6876: real time   16.7329
    ORTHCH:  cpu time    0.4573: real time    0.4588
       DOS:  cpu time    0.0011: real time    0.0011
    CHARGE:  cpu time    2.1011: real time    2.1068
    MIXING:  cpu time    0.0093: real time    0.0093
    --------------------------------------------
      LOOP:  cpu time   24.1656: real time   24.2317

 eigenvalue-minimisations  :  3866
 total energy-change (2. order) : 0.9313637E-01  (-0.1768025E-02)
 number of electron     800.0000085 magnetization 
 augmentation part      247.7097225 magnetization 

 Broyden mixing:
  rms(total) = 0.24239E+00    rms(broyden)= 0.24239E+00
  rms(prec ) = 0.33696E+00
  weight for this iteration     100.00

 eigenvalues of (default mixing * dielectric matrix)
  average eigenvalue GAMMA=   0.6711
  2.1222  1.6429  1.6429  0.8539  0.8539  0.4052  0.4052  0.3914  0.2731  0.2277
  0.0895  0.2066  0.1452  0.1348

 Free energy of the ion-electron system (eV)
  ---------------------------------------------------
  alpha Z        PSCENC =      2658.24768211
  Ewald energy   TEWEN  =    176568.81260540
  -Hartree energ DENC   =   -240126.97697885
  -exchange      EXHF   =         0.00000000
  -V(xc)+E(xc)   XCENC  =       259.62301716
  PAW double counting   =     73524.11736687   -71505.26757094
  entropy T*S    EENTRO =        -0.24360308
  eigenvalues    EBANDS =      -173.90120182
  atomic energy  EATOM  =     58329.24398462
  Solvation  Ediel_sol  =         0.00000000
  ---------------------------------------------------
  free energy    TOTEN  =      -466.34469852 eV

  energy without entropy =     -466.10109544  energy(sigma->0) =     -466.26349749


--------------------------------------------------------------------------------------------------------




--------------------------------------- Iteration      1(  20)  ---------------------------------------


    POTLOK:  cpu time    0.1693: real time    0.1697
    SETDIJ:  cpu time    0.0146: real time    0.0147
    EDDIAG:  cpu time    4.7379: real time    4.7510
  RMM-DIIS:  cpu time   16.7826: real time   16.8292
    ORTHCH:  cpu time    0.4567: real time    0.4578
       DOS:  cpu time    0.0011: real time    0.0011
    CHARGE:  cpu time    2.0962: real time    2.1019
    MIXING:  cpu time    0.0092: real time    0.0092
    --------------------------------------------
      LOOP:  cpu time   24.2676: real time   24.3345

 eigenvalue-minimisations  :  3888
 total energy-change (2. order) : 0.2278689E-01  (-0.7287630E-03)
 number of electron     800.0000085 magnetization 
 augmentation part      247.6998796 magnetization 

 Broyden mixing:
  rms(total) = 0.15709E+00    rms(broyden)= 0.15709E+00
  rms(prec ) = 0.20991E+00
  weight for this iteration     100.00

 eigenvalues of (default mixing * dielectric matrix)
  average eigenvalue GAMMA=   0.6931
  1.9814  1.9814  1.6395  1.0190  1.0190  0.6440  0.3939  0.3939  0.2627  0.2627
  0.2316  0.0895  0.1993  0.1447  0.1335

 Free energy of the ion-electron system (eV)
  ---------------------------------------------------
  alpha Z        PSCENC =      2658.24768211
  Ewald energy   TEWEN  =    176568.81260540
  -Hartree energ DENC   =   -240128.66070331
  -exchange      EXHF   =         0.00000000
  -V(xc)+E(xc)   XCENC  =       259.68309580
  PAW double counting   =     73523.85293364   -71504.70564062
  entropy T*S    EENTRO =        -0.24286447
  eigenvalues    EBANDS =      -172.55300481
  atomic energy  EATOM  =     58329.24398462
  Solvation  Ediel_sol  =         0.00000000
  ---------------------------------------------------
  free energy    TOTEN  =      -466.32191162 eV

  energy without entropy =     -466.07904715  energy(sigma->0) =     -466.24095680


--------------------------------------------------------------------------------------------------------




--------------------------------------- Iteration      1(  21)  ---------------------------------------


    POTLOK:  cpu time    0.1705: real time    0.1709
    SETDIJ:  cpu time    0.0147: real time    0.0147
    EDDIAG:  cpu time    4.7276: real time    4.7408
  RMM-DIIS:  cpu time   16.6980: real time   16.7518
    ORTHCH:  cpu time    0.4520: real time    0.4531
       DOS:  cpu time    0.0010: real time    0.0010
    CHARGE:  cpu time    2.1035: real time    2.1085
    MIXING:  cpu time    0.0106: real time    0.0106
    --------------------------------------------
      LOOP:  cpu time   24.1778: real time   24.2514

 eigenvalue-minimisations  :  3873
 total energy-change (2. order) : 0.1349081E-01  (-0.6230472E-03)
 number of electron     800.0000085 magnetization 
 augmentation part      247.6862754 magnetization 

 Broyden mixing:
  rms(total) = 0.79435E-01    rms(broyden)= 0.79435E-01
  rms(prec ) = 0.10466E+00
  weight for this iteration     100.00

 eigenvalues of (default mixing * dielectric matrix)
  average eigenvalue GAMMA=   0.7110
  2.0869  2.0869  1.5513  1.1675  1.1675  0.6356  0.6356  0.3803  0.3803  0.0895
  0.2472  0.2472  0.2287  0.1935  0.1448  0.1333

 Free energy of the ion-electron system (eV)
  ---------------------------------------------------
  alpha Z        PSCENC =      2658.24768211
  Ewald energy   TEWEN  =    176568.81260540
  -Hartree energ DENC   =   -240131.63322568
  -exchange      EXHF   =         0.00000000
  -V(xc)+E(xc)   XCENC  =       259.75460747
  PAW double counting   =     73527.42974143   -71507.94135537
  entropy T*S    EENTRO =        -0.24097879
  eigenvalues    EBANDS =      -169.98148201
  atomic energy  EATOM  =     58329.24398462
  Solvation  Ediel_sol  =         0.00000000
  ---------------------------------------------------
  free energy    TOTEN  =      -466.30842082 eV

  energy without entropy =     -466.06744203  energy(sigma->0) =     -466.22809455


--------------------------------------------------------------------------------------------------------




--------------------------------------- Iteration      1(  22)  ---------------------------------------


    POTLOK:  cpu time    0.1739: real time    0.1743
    SETDIJ:  cpu time    0.0148: real time    0.0148
    EDDIAG:  cpu time    4.7329: real time    4.7442
  RMM-DIIS:  cpu time   16.8136: real time   16.8535
    ORTHCH:  cpu time    0.4540: real time    0.4550
       DOS:  cpu time    0.0012: real time    0.0012
    CHARGE:  cpu time    2.0986: real time    2.1036
    MIXING:  cpu time    0.0088: real time    0.0088
    --------------------------------------------
      LOOP:  cpu time   24.2977: real time   24.3554

 eigenvalue-minimisations  :  3884
 total energy-change (2. order) : 0.2627595E-02  (-0.2574077E-03)
 number of electron     800.0000085 magnetization 
 augmentation part      247.6806030 magnetization 

 Broyden mixing:
  rms(total) = 0.45051E-01    rms(broyden)= 0.45051E-01
  rms(prec ) = 0.58406E-01
  weight for this iteration     100.00

 eigenvalues of (default mixing * dielectric matrix)
  average eigenvalue GAMMA=   0.7174
  2.3861  1.7634  1.7634  1.2261  1.2261  0.7556  0.7556  0.3812  0.3812  0.0895
  0.2712  0.2712  0.2274  0.2274  0.1925  0.1448  0.1333

 Free energy of the ion-electron system (eV)
  ---------------------------------------------------
  alpha Z        PSCENC =      2658.24768211
  Ewald energy   TEWEN  =    176568.81260540
  -Hartree energ DENC   =   -240133.63458187
  -exchange      EXHF   =         0.00000000
  -V(xc)+E(xc)   XCENC  =       259.77732763
  PAW double counting   =     73534.41034386   -71514.83942918
  entropy T*S    EENTRO =        -0.24037670
  eigenvalues    EBANDS =      -168.08334910
  atomic energy  EATOM  =     58329.24398462
  Solvation  Ediel_sol  =         0.00000000
  ---------------------------------------------------
  free energy    TOTEN  =      -466.30579322 eV

  energy without entropy =     -466.06541653  energy(sigma->0) =     -466.22566766


--------------------------------------------------------------------------------------------------------




--------------------------------------- Iteration      1(  23)  ---------------------------------------


    POTLOK:  cpu time    0.1719: real time    0.1723
[...]
   -.350E-02 -.135E+00 -.134E+04   -.478E-02 0.151E+00 0.134E+04   0.111E-01 0.425E-02 0.579E+00   -.119E-02 -.142E-01 -.706E-01
   0.210E+00 -.257E+00 0.265E+04   -.208E+00 0.194E+00 -.265E+04   -.298E-01 0.479E-01 -.896E+00   0.208E-01 0.230E-01 0.164E-01
   -.680E+00 0.140E+01 0.265E+04   0.681E+00 -.142E+01 -.265E+04   0.961E-02 -.458E-01 -.897E+00   -.789E-02 0.613E-01 0.228E-01
   0.175E+00 0.424E+00 0.265E+04   -.114E+00 -.472E+00 -.265E+04   -.395E-01 0.194E-01 -.909E+00   -.273E-01 0.351E-01 0.665E-02
   -.642E-02 -.730E-01 0.134E+04   -.321E-01 0.120E+00 -.134E+04   -.457E-03 0.592E-02 -.580E+00   0.453E-01 -.562E-01 -.727E-03
   0.141E+00 -.259E+00 0.134E+04   -.951E-01 0.213E+00 -.134E+04   -.867E-02 0.607E-02 -.582E+00   -.346E-01 0.408E-01 0.126E-01
   0.117E+00 0.139E+00 -.134E+04   -.114E+00 -.103E+00 0.134E+04   -.494E-02 -.569E-02 0.578E+00   0.674E-03 -.306E-01 -.888E-01
   -.993E+00 -.392E+00 0.265E+04   0.101E+01 0.394E+00 -.265E+04   0.246E-01 0.427E-01 -.904E+00   -.368E-01 -.358E-01 0.189E-01
   -.310E-01 -.218E-01 0.134E+04   0.393E-02 0.645E-01 -.134E+04   -.539E-02 0.105E-02 -.578E+00   0.330E-01 -.471E-01 0.616E-02
   0.292E-01 0.887E-01 -.500E+00   -.191E-01 -.590E-01 0.558E+00   -.359E-03 -.279E-02 -.377E-02   -.878E-02 -.278E-01 -.552E-01
   -.550E-01 0.643E-01 -.134E+04   0.646E-01 -.572E-01 0.134E+04   0.428E-02 0.437E-03 0.583E+00   -.173E-01 -.376E-02 -.805E-01
   -.899E-01 -.104E+00 -.134E+04   0.907E-01 0.921E-01 0.134E+04   0.264E-02 -.366E-02 0.583E+00   -.139E-02 0.183E-01 -.448E-01
   -.889E-01 0.176E+00 -.134E+04   0.103E+00 -.149E+00 0.134E+04   0.828E-02 -.626E-02 0.576E+00   -.208E-01 -.220E-01 -.577E-01
   0.632E+00 -.793E+00 0.265E+04   -.562E+00 0.788E+00 -.265E+04   -.436E-01 0.355E-01 -.905E+00   -.352E-01 -.213E-01 0.199E-01
   0.352E-01 0.558E-01 0.265E+04   -.672E-01 -.791E-01 -.265E+04   0.774E-02 0.954E-02 -.899E+00   0.263E-01 0.169E-01 -.145E-01
   0.122E+00 0.237E+00 0.265E+04   -.954E-01 -.192E+00 -.265E+04   0.140E-02 -.137E-01 -.908E+00   -.273E-01 -.318E-01 -.260E-02
   -.244E-02 -.469E-01 0.134E+04   -.192E-01 0.372E-01 -.134E+04   0.361E-02 0.205E-02 -.581E+00   0.224E-01 0.411E-02 -.806E-02
   -.296E-03 -.134E-01 0.724E+00   -.162E-02 0.773E-02 -.673E+00   0.763E-03 -.225E-02 0.709E-02   0.366E-02 0.800E-02 -.582E-01
   0.541E-01 0.559E-01 0.134E+04   -.488E-01 -.845E-01 -.134E+04   -.671E-02 0.661E-03 -.584E+00   0.448E-02 0.238E-01 -.217E-02
   0.179E-01 0.221E-01 0.134E+04   -.542E-01 0.132E-01 -.134E+04   -.626E-02 0.300E-02 -.584E+00   0.468E-01 -.427E-01 0.131E-01
   -.727E-01 0.623E-01 -.134E+04   0.628E-01 -.799E-01 0.134E+04   -.232E-04 -.672E-02 0.581E+00   0.747E-02 0.255E-01 -.720E-01
   0.805E-01 -.309E+00 0.265E+04   -.560E-01 0.228E+00 -.265E+04   -.655E-02 0.352E-01 -.898E+00   -.187E-01 0.552E-01 0.934E-02
   -.133E+00 0.771E-01 0.134E+04   0.110E+00 -.889E-01 -.134E+04   0.461E-02 -.602E-02 -.578E+00   0.267E-01 0.150E-01 0.201E-02
   0.388E-01 -.468E-03 -.756E-01   -.158E-01 -.133E-01 0.137E+00   0.594E-02 -.980E-02 -.105E-02   -.257E-01 0.202E-01 -.610E-01
   0.961E+00 -.200E+00 -.265E+04   -.934E+00 0.205E+00 0.265E+04   -.325E-01 -.248E-02 0.901E+00   -.211E-02 -.170E-02 0.841E-02
   0.570E+00 0.315E+00 -.265E+04   -.568E+00 -.272E+00 0.265E+04   -.202E-01 -.299E-01 0.896E+00   0.113E-01 -.136E-01 0.145E-03
   -.426E+00 -.268E+00 -.265E+04   0.350E+00 0.269E+00 0.265E+04   0.489E-01 0.123E-01 0.901E+00   0.349E-01 -.940E-02 -.614E-02
   0.895E+00 -.682E+00 -.265E+04   -.871E+00 0.656E+00 0.265E+04   -.249E-01 0.314E-01 0.895E+00   -.755E-02 0.410E-02 0.968E-03
   -.106E+01 0.724E+00 -.265E+04   0.101E+01 -.687E+00 0.265E+04   0.623E-01 -.320E-01 0.903E+00   -.927E-03 -.893E-02 -.432E-02
   0.391E+00 0.540E+00 -.265E+04   -.407E+00 -.523E+00 0.265E+04   0.175E-02 -.326E-01 0.907E+00   0.989E-02 0.126E-01 -.322E-02
   0.443E+00 0.563E+00 -.265E+04   -.458E+00 -.527E+00 0.265E+04   -.725E-02 -.230E-01 0.896E+00   0.190E-01 -.137E-01 -.159E-01
   0.120E+00 0.253E+00 -.265E+04   -.770E-01 -.238E+00 0.265E+04   -.168E-01 -.145E-01 0.910E+00   -.322E-01 -.928E-03 0.827E-02
   -.645E+00 -.583E+00 -.265E+04   0.603E+00 0.595E+00 0.265E+04   0.673E-01 -.267E-02 0.901E+00   -.177E-01 -.481E-02 0.776E-02
   -.554E+00 -.188E-01 -.265E+04   0.547E+00 0.624E-02 0.265E+04   0.171E-01 0.319E-01 0.894E+00   -.983E-02 -.101E-01 -.377E-02
   0.388E+00 -.159E-02 -.265E+04   -.377E+00 0.902E-02 0.265E+04   -.387E-01 -.111E-01 0.897E+00   0.203E-01 0.685E-02 0.857E-02
   -.641E+00 -.115E+00 -.265E+04   0.613E+00 0.878E-01 0.265E+04   0.351E-01 0.108E-01 0.899E+00   -.467E-02 0.237E-01 0.148E-01
   0.476E-01 -.101E+01 -.265E+04   -.838E-01 0.101E+01 0.265E+04   0.152E-01 0.277E-01 0.898E+00   0.211E-01 -.138E-01 0.764E-02
   -.466E+00 0.726E+00 -.265E+04   0.460E+00 -.715E+00 0.265E+04   0.226E-01 -.236E-01 0.901E+00   -.178E-01 0.125E-01 0.107E-01
   -.179E+00 0.306E+00 -.134E+04   0.163E+00 -.295E+00 0.134E+04   0.179E-01 -.157E-01 0.581E+00   -.177E-02 -.254E-03 -.562E-01
   0.113E+01 -.122E+01 0.265E+04   -.112E+01 0.121E+01 -.265E+04   -.559E-01 0.642E-01 -.903E+00   0.338E-01 -.479E-01 -.853E-02
   -.585E-01 0.163E-01 -.134E+04   0.865E-01 -.166E-01 0.134E+04   0.880E-03 -.138E-03 0.581E+00   -.301E-01 0.227E-02 -.656E-01
   0.459E+00 -.310E+00 0.265E+04   -.468E+00 0.347E+00 -.265E+04   -.115E-01 0.232E-02 -.895E+00   0.173E-01 -.387E-01 0.331E-02
   -.948E-01 0.426E-02 0.134E+04   0.817E-01 0.402E-01 -.134E+04   0.282E-02 -.150E-03 -.589E+00   0.109E-01 -.464E-01 0.117E-01
   -.956E-01 0.589E-01 0.134E+04   0.147E+00 -.442E-01 -.134E+04   0.171E-02 -.991E-03 -.587E+00   -.484E-01 -.179E-01 0.210E-01
   0.142E-01 -.476E-01 -.134E+04   -.500E-01 0.555E-01 0.134E+04   0.623E-02 -.448E-03 0.577E+00   0.278E-01 -.737E-03 -.113E+00
   -.508E+00 -.422E+00 0.265E+04   0.540E+00 0.409E+00 -.265E+04   -.159E-01 0.327E-01 -.905E+00   -.149E-01 -.123E-01 0.375E-01
   -.132E+00 -.564E-02 0.134E+04   0.155E+00 -.492E-01 -.134E+04   0.576E-02 -.631E-02 -.585E+00   -.216E-01 0.585E-01 0.103E-01
   -.102E+01 0.520E+00 -.265E+04   0.978E+00 -.502E+00 0.265E+04   0.441E-01 -.233E-01 0.900E+00   0.265E-02 0.410E-02 0.127E-01
   -.999E-02 0.856E-01 -.271E+00   0.672E-03 -.949E-01 0.301E+00   0.478E-02 -.186E-02 -.486E-02   0.686E-02 0.102E-01 -.264E-01
   -.107E+00 -.213E+00 -.265E+04   0.119E+00 0.207E+00 0.265E+04   0.884E-02 0.192E-02 0.904E+00   -.237E-01 0.953E-02 0.110E-01
   0.225E+00 0.610E-02 0.134E+04   -.187E+00 0.351E-01 -.134E+04   -.509E-02 -.681E-02 -.593E+00   -.352E-01 -.381E-01 0.154E-01
   -.183E+00 -.994E-02 0.134E+04   0.228E+00 0.289E-01 -.134E+04   0.531E-02 0.478E-02 -.579E+00   -.449E-01 -.293E-01 0.177E-01
   0.948E-02 -.441E-01 0.769E-01   -.231E-01 0.173E-01 -.772E-03   0.146E-02 -.138E-02 -.309E-02   0.138E-01 0.289E-01 -.735E-01
   0.239E-01 -.175E+00 -.134E+04   -.278E-01 0.187E+00 0.134E+04   0.882E-02 0.355E-02 0.585E+00   -.489E-02 -.107E-01 -.633E-01
   -.667E-01 -.862E-01 -.134E+04   0.552E-01 0.731E-01 0.134E+04   0.372E-02 0.255E-02 0.580E+00   0.687E-02 0.141E-01 -.527E-01
   -.249E+00 0.621E+00 0.265E+04   0.245E+00 -.618E+00 -.265E+04   -.103E-01 -.560E-02 -.898E+00   0.110E-01 0.260E-02 0.542E-02
   0.361E+00 -.338E-01 0.265E+04   -.335E+00 -.304E-01 -.265E+04   -.194E-01 0.259E-01 -.905E+00   -.845E-02 0.470E-01 -.779E-02
   0.826E-01 -.300E-01 0.134E+04   -.754E-01 -.390E-01 -.134E+04   0.634E-02 0.155E-03 -.589E+00   -.115E-01 0.634E-01 0.183E-01
   0.221E+00 -.103E+00 0.134E+04   -.203E+00 0.107E+00 -.134E+04   -.105E-01 0.458E-02 -.585E+00   -.993E-02 -.102E-01 0.232E-01
   0.112E-01 0.788E-01 -.990E+00   0.277E-01 -.408E-01 0.104E+01   0.771E-02 -.481E-02 -.988E-02   -.431E-01 -.335E-01 -.415E-01
   -.323E-01 0.127E+00 -.134E+04   0.521E-02 -.118E+00 0.134E+04   0.850E-02 -.141E-02 0.577E+00   0.210E-01 -.115E-01 -.816E-01
   0.928E-01 0.155E-01 0.265E+04   -.956E-01 0.380E-01 -.265E+04   -.369E-01 -.454E-02 -.900E+00   0.323E-01 -.485E-01 0.151E-01
   -.155E-01 -.210E-01 0.389E+00   -.197E-01 0.101E-01 -.299E+00   0.299E-02 -.600E-02 -.174E-02   0.346E-01 0.154E-01 -.922E-01
   0.441E-01 -.365E-01 0.139E+00   -.230E-01 -.132E-02 -.108E+00   -.288E-02 -.763E-02 0.501E-02   -.176E-01 0.436E-01 -.346E-01
   -.393E-01 0.616E-01 0.335E+00   0.181E-01 -.373E-01 -.290E+00   0.730E-03 0.153E-02 -.319E-02   0.220E-01 -.253E-01 -.444E-01
   0.304E-01 -.950E-01 -.510E+00   -.324E-01 0.366E-01 0.566E+00   0.400E-02 -.212E-02 -.590E-02   -.220E-03 0.619E-01 -.515E-01
   0.389E-02 0.235E-03 0.197E-02   0.312E-01 -.459E-02 0.480E-01   0.467E-02 -.347E-02 -.605E-02   -.366E-01 0.630E-02 -.466E-01
   -.105E+00 0.186E+00 0.134E+04   0.132E+00 -.252E+00 -.134E+04   0.300E-02 -.103E-01 -.583E+00   -.234E-01 0.699E-01 0.111E-01
   -.179E-01 -.291E-01 0.773E+00   -.805E-02 0.348E-01 -.707E+00   0.258E-02 -.224E-04 0.597E-02   0.260E-01 -.389E-02 -.754E-01
   0.606E-01 0.162E-01 -.134E+04   -.796E-01 -.922E-02 0.134E+04   -.270E-02 -.872E-02 0.583E+00   0.209E-01 0.403E-02 -.967E-01
   -.108E-01 0.103E+00 -.134E+04   0.337E-01 -.113E+00 0.134E+04   0.995E-03 -.583E-02 0.578E+00   -.276E-01 0.158E-01 -.534E-01
   -.182E+00 -.272E+00 0.265E+04   0.148E+00 0.292E+00 -.265E+04   -.817E-03 0.174E-01 -.893E+00   0.346E-01 -.339E-01 0.282E-01
   0.759E+00 0.813E-01 0.265E+04   -.732E+00 -.995E-01 -.265E+04   -.430E-01 -.195E-03 -.906E+00   0.809E-02 0.195E-01 0.250E-02
   0.542E-01 0.571E-01 -.966E+00   -.335E-01 -.600E-01 0.101E+01   0.762E-03 -.296E-02 -.719E-02   -.208E-01 0.400E-02 -.342E-01
   -.456E-01 0.717E-01 -.199E+00   0.320E-01 -.291E-01 0.270E+00   0.866E-02 0.280E-02 -.330E-02   0.833E-02 -.444E-01 -.698E-01
   -.901E-01 0.103E-01 0.134E+04   0.556E-01 -.348E-01 -.134E+04   0.517E-02 -.394E-02 -.586E+00   0.315E-01 0.263E-01 -.805E-02
   0.239E-01 0.773E-01 0.826E+00   -.666E-01 -.428E-01 -.769E+00   -.199E-02 0.485E-02 0.710E-02   0.460E-01 -.367E-01 -.637E-01
   -.247E-01 0.737E-01 -.443E+00   0.358E-01 -.457E-01 0.481E+00   0.523E-02 -.325E-02 -.318E-02   -.127E-01 -.251E-01 -.332E-01
 -----------------------------------------------------------------------------------------------
   -.535E-02 -.115E-01 0.169E+01   0.575E-12 -.595E-12 -.360E-11   0.201E-01 0.947E-01 -.109E+00   -.124E-02 0.196E-02 -.167E+01
 
 
 POSITION                                       TOTAL-FORCE (eV/Angst)
 -----------------------------------------------------------------------------------
     13.36390      8.25179      7.26098        -0.001878     -0.002378      0.027749
      5.14387      8.25039      7.26188        -0.002043     -0.000823      0.028113
      3.77257      5.87826      7.26394         0.001561      0.004963      0.029240
     13.38150      8.23574      0.38621        -0.007146      0.006931     -0.023019
      5.15902      8.24109      0.38883         0.001688     -0.005941     -0.024434
      3.79191      5.86420      0.39106        -0.006671      0.004627     -0.033453
      7.89386      1.91469      2.71065         0.006396     -0.004560     -0.030210
      9.26421      9.03339      2.71123         0.001945     -0.000251     -0.029938
      2.40376      3.50585      7.26374        -0.000641     -0.001188      0.028307
      2.41851      3.49024      0.39204         0.002813      0.008634     -0.030775
     10.63412      1.91518      2.70948         0.000277     -0.004406     -0.029724
     13.36886      5.08437      4.98767         0.000847     -0.002133      0.000052
      3.77357      1.13268      7.26299        -0.003843      0.002930      0.032192
      9.25344      5.87908      7.26190         0.002113      0.001584      0.030264
      5.14291      3.50574      7.26524         0.001545     -0.001784      0.029355
      3.79233      1.11763      0.39018        -0.009473      0.008498     -0.027875
      9.26889      5.86531      0.38935         0.001228      0.002343     -0.027598
      5.15939      3.49349      0.39193         0.000165     -0.000652     -0.032467
     12.00351      9.03388      2.70970         0.004829     -0.004414     -0.030122
     11.99883      7.45725      4.98526         0.002494     -0.001014      0.001452
     13.37411      6.66107      2.71155         0.002971     -0.005212     -0.032313
      9.26446      4.28804      2.71116         0.004195     -0.005737     -0.030824
      7.88383      8.25182      7.26270        -0.002765      0.000138      0.028284
      7.89987      8.23616      0.38959        -0.001517      0.008657     -0.025072
     10.63342      6.66146      2.71017         0.007755     -0.003741     -0.028056
      2.40883      0.33854      4.98697         0.002805     -0.004275      0.000360
     14.73089      9.04493      9.58156        -0.007389     -0.000621      0.032382
      3.77008      4.30046      9.58909        -0.006564     -0.001669      0.023913
      6.50583      9.04376      9.58462         0.007253      0.002922      0.031206
     11.99051      4.29718      9.58450        -0.007283      0.008397      0.028639
      9.24522      9.04635      9.58613         0.008524     -0.004270      0.028053
     10.61906      1.92799      9.58494        -0.004082     -0.003155      0.031326
      2.39965      1.92715      9.58585        -0.003669     -0.001586      0.028697
     11.99025      9.04557      9.58301        -0.005055     -0.001478      0.033761
     13.35468      6.67223      9.58452         0.007041      0.003581      0.029797
      5.13849      1.92355      9.58679        -0.000023      0.007494      0.023158
      7.88127      6.67246      9.58586        -0.006571      0.002229      0.025318
      9.24717      4.29853      9.58389         0.001561      0.005570      0.029762
      5.13780      6.67031      9.58639         0.000243      0.006567      0.029059
      7.87821      1.92751      9.58262        -0.001364     -0.001287      0.031359
      7.88218      3.50704      7.26221        -0.000262     -0.005698      0.028488
      7.90305      3.48916      0.38881        -0.008549      0.009940     -0.028914
      6.51372      1.13306      7.26170        -0.001408      0.000866      0.029493
      6.53027      1.12007      0.38789        -0.003137      0.000654     -0.022729
     12.00380      4.28841      2.71272         0.000344     -0.003328     -0.034703
      3.78375      4.28815      2.71436         0.003927     -0.005228     -0.032678
      1.03344      1.13258      7.26310        -0.001804      0.005670      0.025792
      1.05114      1.11762      0.38753        -0.000114      0.006811     -0.026925
      6.52353      9.03418      2.71203         0.006007     -0.003394     -0.031743
      6.50676      4.30011      9.58848         0.003001     -0.001387      0.026408
      7.88908      5.08437      4.98730         0.001869     -0.002354     -0.000899
     10.61843      6.67167      9.58446        -0.002607      0.004246      0.029544
      5.15415      1.91566      2.71356        -0.002287     -0.004645     -0.035352
      2.41373      1.91461      2.71243         0.005239     -0.006517     -0.027970
     14.73908      7.45682      4.98673         0.001367     -0.000319      0.000907
     11.99272      5.87835      7.26154         0.000315      0.003871      0.031899
      6.51345      5.87858      7.26424        -0.001083      0.002369      0.030644
     12.01044      5.86600      0.38831        -0.003508      0.000154     -0.023363
      6.53047      5.86404      0.39020        -0.002733      0.007760     -0.028443
      7.89334      6.66104      2.71310         0.001731     -0.006189     -0.034711
      6.52494      4.28788      2.71288        -0.002030     -0.002659     -0.031785
      3.77838      2.71148      4.98869         0.003167     -0.001448      0.000289
     10.62275      3.50607      7.26199         0.002613     -0.005001      0.026945
     10.64211      3.49347      0.38709        -0.007421     -0.000109     -0.023878
     10.62878      0.33837      4.98617         0.002296     -0.002362     -0.002390
      9.25957      7.45756      4.98619         0.000329     -0.003015      0.002736
     10.62867      5.08432      4.98627         0.001616     -0.000896     -0.000358
      6.51931      7.45699      4.98774         0.001141      0.000280     -0.000227
      5.14874      0.33833      4.98695         0.002997     -0.002526     -0.001327
      5.15388      6.66196      2.71258         0.006525     -0.007372     -0.029532
      7.88857      0.33820      4.98524         0.002859      0.000765     -0.001300
      9.25390      1.13356      7.26077        -0.000785      0.001115      0.029396
     10.62373      8.25207      7.26272        -0.003859     -0.000681      0.026094
      9.26989      1.11896      0.38524        -0.000621      0.003049     -0.019795
     10.64212      8.23840      0.38582        -0.007776      0.000676     -0.026142
      5.14927      5.08426      4.98856         0.000118     -0.003038      0.000198
     11.99826      2.71097      4.98714         0.003198     -0.000240     -0.000310
     14.74299      9.03449      2.71076         0.002083     -0.002996     -0.033445
      9.25877      2.71110      4.98516         0.001462      0.001220      0.002337
      6.51854      2.71150      4.98751         0.003506     -0.001532      0.001828
 -----------------------------------------------------------------------------------
    total drift:                                0.013512      0.085158     -0.096844


--------------------------------------------------------------------------------------------------------



  FREE ENERGIE OF THE ION-ELECTRON SYSTEM (eV)
  ---------------------------------------------------
  free  energy   TOTEN  =      -515.35983025 eV

  energy  without entropy=     -515.12549916  energy(sigma->0) =     -515.28171989
 
 d Force = 0.6618666E-02[ 0.397E-02, 0.927E-02]  d Energy = 0.6784961E-02-0.166E-03
 d Force = 0.1890721E+03[ 0.189E+03, 0.189E+03]  d Ewald  = 0.1890721E+03-0.832E-05


--------------------------------------------------------------------------------------------------------


    POTLOK:  cpu time    0.1899: real time    0.1904


--------------------------------------------------------------------------------------------------------


 Steepest descent step on ions:
 trial-energy change:   -0.006785  1 .order   -0.006619   -0.009272   -0.003965
  (g-gl).g = 0.927E-02      g.g   = 0.927E-02  gl.gl    = 0.000E+00
 g(Force)  = 0.927E-02   g(Stress)= 0.000E+00 ortho     = 0.000E+00
 gamma     =   0.00000
 trial     =   1.00000
 opt step  =   1.57634  (harmonic =   1.74714) maximal distance =0.00632658
 next E    =  -515.361005   (d E  =  -0.00796)


--------------------------------------------------------------------------------------------------------


  
 reached required accuracy - stopping structural energy minimisation
     LOOP+:  cpu time  265.9869: real time  266.6572
    4ORBIT:  cpu time    0.0000: real time    0.0000

 total amount of memory used by VASP MPI-rank0   160362. kBytes
=======================================================================

   base      :      30000. kBytes
   nonlr-proj:      33937. kBytes
   fftplans  :      17977. kBytes
   grid      :      25483. kBytes
   one-center:        311. kBytes
   wavefun   :      52654. kBytes
 
  
  
 General timing and accounting informations for this job:
 ========================================================
  
                  Total CPU time used (sec):     1012.397
                            User time (sec):     1010.565
                          System time (sec):        1.832
                         Elapsed time (sec):     1015.571
  
                   Maximum memory used (kb):      538352.
                   Average memory used (kb):           0.
  
                          Minor page faults:       396679
                          Major page faults:            0
                 Voluntary context switches:         2272
