 vasp.5.4.4.18Apr17-6-g9f103f2a35 (build Nov 30 2020 22:55:02) complex          
  
 executed on             LinuxIFC date 2023.09.08  21:37:34
 running on   40 total cores
 distrk:  each k-point on   40 cores,    1 groups
 distr:  one band on NCORES_PER_BAND=   4 cores,   10 groups


--------------------------------------------------------------------------------------------------------


 INCAR:
 POTCAR:    PAW_PBE Pt 04Feb2005                  
 POTCAR:    PAW_PBE Pt 04Feb2005                  
   VRHFIN =Pt: s1d9                                                             
   LEXCH  = PE                                                                  
   EATOM  =   729.1176 eV,   53.5886 Ry                                         
                                                                                
   TITEL  = PAW_PBE Pt 04Feb2005                                                
   LULTRA =        F    use ultrasoft PP ?                                      
   IUNSCR =        1    unscreen: 0-lin 1-nonlin 2-no                           
   RPACOR =    2.330    partial core radius                                     
   POMASS =  195.080; ZVAL   =   10.000    mass and valenz                      
   RCORE  =    2.600    outmost cutoff radius                                   
   RWIGS  =    2.750; RWIGS  =    1.455    wigner-seitz radius (au A)           
   ENMAX  =  230.283; ENMIN  =  172.712 eV                                      
   ICORE  =        3    local potential                                         
   LCOR   =        T    correct aug charges                                     
   LPAW   =        T    paw PP                                                  
   EAUG   =  358.966                                                            
   DEXC   =    0.000                                                            
   RMAX   =    2.658    core radius for proj-oper                               
   RAUG   =    1.300    factor for augmentation sphere                          
   RDEP   =    2.761    radius for radial grids                                 
   RDEPT  =    2.203    core radius for aug-charge                              
                                                                                
   Atomic configuration                                                         
   16 entries                                                                   
     n  l   j            E        occ.                                          
     1  0  0.50    -78401.1885   2.0000                                         
     2  0  0.50    -13770.7750   2.0000                                         
     2  1  1.50    -11931.0468   6.0000                                         
     3  0  0.50     -3234.7234   2.0000                                         
     3  1  1.50     -2699.2216   6.0000                                         
     3  2  2.50     -2119.5714  10.0000                                         
     4  0  0.50      -695.1528   2.0000                                         
     4  1  1.50      -519.6034   6.0000                                         
     4  2  2.50      -306.6786  10.0000                                         
     4  3  3.50       -70.1041  14.0000                                         
     5  0  0.50      -101.7747   2.0000                                         
     5  1  1.50       -55.9873   6.0000                                         
     5  2  2.50        -6.1423   9.0000                                         
     6  0  0.50        -5.6573   1.0000                                         
     6  1  1.50        -6.8029   0.0000                                         
     5  3  2.50        -1.3606   0.0000                                         
   Description                                                                  
     l       E           TYP  RCUT    TYP  RCUT                                 
     2     -6.1423404     23  2.500                                             
     2     -7.5029230     23  2.500                                             
     0     -5.6573207     23  2.500                                             
     0      0.7416693     23  2.500                                             
     1     -2.7211652     23  2.600                                             
     1     20.4087390     23  2.600                                             
     3     -1.3605826     23  2.500                                             
  local pseudopotential read in
  partial core-charges read in
  partial kinetic energy density read in
  atomic valenz-charges read in
  non local Contribution for L=           2  read in
    real space projection operators read in
  non local Contribution for L=           2  read in
    real space projection operators read in
  non local Contribution for L=           0  read in
    real space projection operators read in
  non local Contribution for L=           0  read in
    real space projection operators read in
  non local Contribution for L=           1  read in
    real space projection operators read in
  non local Contribution for L=           1  read in
    real space projection operators read in
    PAW grid and wavefunctions read in
 
   number of l-projection  operators is LMAX  =           6
   number of lm-projection operators is LMMAX =          18
 
 Optimization of the real space projectors (new method)

 maximal supplied QI-value         = 14.36
 optimisation between [QCUT,QGAM] = [ 11.92, 23.98] = [ 39.79,161.09] Ry 
 Optimized for a Real-space Cutoff    1.49 Angstroem

   l    n(q)    QCUT    max X(q) W(low)/X(q) W(high)/X(q)  e(spline) 
   2     10    11.920    66.195    0.79E-04    0.18E-03    0.24E-06
   2     10    11.920    64.643    0.81E-04    0.19E-03    0.24E-06
   0     11    11.920    95.520    0.28E-04    0.54E-04    0.18E-06
   0     11    11.920    63.403    0.27E-04    0.52E-04    0.17E-06
   1     10    11.920    19.961    0.18E-04    0.11E-03    0.23E-06
   1     10    11.920    13.289    0.25E-04    0.87E-04    0.19E-06
  PAW_PBE Pt 04Feb2005                  :
 energy of atom  1       EATOM= -729.1176
 kinetic energy error for atom=    0.0021 (will be added to EATOM!!)
 
 
 POSCAR: Pt111                                   
  positions in direct lattice
  velocities in cartesian coordinates
 exchange correlation table for  LEXCH =        8
   RHO(1)=    0.500       N(1)  =     2000
   RHO(2)=  100.500       N(2)  =     4000
 


--------------------------------------------------------------------------------------------------------


 ion  position               nearest neighbor table
   1  0.784  0.870  0.334-  73 2.66  56 2.66  72 2.66  43 2.67   2 2.67   3 2.67  20 2.82  71 2.82
                            55 2.82  27 2.86  35 2.86  34 2.87
   2  0.034  0.870  0.334-  47 2.66  57 2.66  72 2.67   1 2.67  23 2.67   3 2.67  55 2.82  65 2.82
                            68 2.83  29 2.86  27 2.86  39 2.86
   3  0.034  0.619  0.334-  15 2.66  57 2.66   9 2.66  56 2.67   2 2.67   1 2.67  12 2.82  55 2.82
                            76 2.83  39 2.86  35 2.86  28 2.86
   4  0.787  0.868  0.009-  44 2.66  75 2.66  74 2.66   5 2.67  58 2.67   6 2.67  78 2.86  21 2.86
                            19 2.87
   5  0.037  0.868  0.009-  59 2.66  24 2.66   6 2.66   4 2.67  48 2.67  74 2.67  49 2.86  70 2.86
                            78 2.86
   6  0.037  0.618  0.010-  10 2.66  59 2.66   5 2.66  58 2.66  18 2.67   4 2.67  70 2.86  46 2.86
                            21 2.86
   7  0.620  0.202  0.119-  11 2.66  61 2.66  22 2.66  78 2.66  53 2.67  19 2.67  71 2.82  79 2.82
                            80 2.83  42 2.86  44 2.86  74 2.87
   8  0.370  0.952  0.119-  60 2.66  19 2.66  53 2.66  25 2.67  54 2.67  49 2.67  66 2.82  69 2.82
                            26 2.83  16 2.86  24 2.86  75 2.87
   9  0.034  0.370  0.334-  47 2.66  63 2.66   3 2.66  15 2.66  56 2.66  13 2.67  12 2.82  77 2.82
                            62 2.83  33 2.86  30 2.86  28 2.86
  10  0.037  0.368  0.010-  16 2.66  18 2.66   6 2.66  48 2.67  58 2.67  64 2.67  54 2.86  46 2.86
                            45 2.86
  11  0.870  0.202  0.119-   7 2.66  78 2.66  22 2.66  49 2.67  54 2.67  45 2.67  65 2.82  77 2.82
                            79 2.83  64 2.86  74 2.86  48 2.87
  12  0.952  0.536  0.227-  62 2.66  67 2.66  77 2.67  20 2.67  55 2.67  76 2.67  45 2.82  21 2.82
                             9 2.82   3 2.82  56 2.82  46 2.83
  13  0.284  0.120  0.334-  47 2.66  23 2.66   9 2.67  43 2.67  15 2.67  73 2.67  62 2.82  26 2.82
                            69 2.83  31 2.86  36 2.86  33 2.87
  14  0.534  0.620  0.334-  23 2.66  73 2.66  41 2.67  63 2.67  56 2.67  57 2.67  51 2.82  66 2.82
                            67 2.83  52 2.86  38 2.86  37 2.87
  15  0.284  0.370  0.335-   3 2.66  57 2.66   9 2.66  13 2.67  43 2.67  41 2.67  76 2.82  62 2.82
                            80 2.83  36 2.86  50 2.86  28 2.87
  16  0.287  0.118  0.010-  10 2.66  48 2.66  18 2.66  24 2.66  75 2.67  44 2.67   8 2.86  53 2.86
                            54 2.87
  17  0.537  0.618  0.009-  58 2.66  75 2.66  64 2.66  42 2.67  24 2.67  59 2.67  22 2.86  25 2.86
                            60 2.87
  18  0.287  0.368  0.010-  10 2.66  16 2.66  42 2.67  44 2.67   6 2.67  59 2.67  53 2.86  61 2.86
                            46 2.87
  19  0.620  0.952  0.119-  53 2.66   8 2.66  25 2.66  21 2.67   7 2.67  78 2.67  20 2.82  71 2.82
                            69 2.83  44 2.86  75 2.86   4 2.87
  20  0.702  0.786  0.226-  66 2.66  67 2.66  71 2.66  12 2.67  69 2.67  55 2.67  25 2.82  19 2.82
                             1 2.82  56 2.82  21 2.83  73 2.83
  21  0.870  0.702  0.119-  70 2.66  25 2.66  78 2.66  45 2.67  46 2.67  19 2.67  55 2.82  12 2.82
                            20 2.83  58 2.86   4 2.86   6 2.86
  22  0.620  0.452  0.119-  11 2.66  45 2.66   7 2.66  60 2.67  61 2.67  25 2.67  79 2.82  67 2.82
                            51 2.83  17 2.86  42 2.86  64 2.87
  23  0.284  0.870  0.334-  14 2.66  73 2.66  13 2.66  47 2.67   2 2.67  57 2.67  26 2.82  68 2.82
                            66 2.83  31 2.86  37 2.86  29 2.87
  24  0.287  0.868  0.009-   5 2.66  48 2.66  16 2.66  59 2.67  75 2.67  17 2.67  60 2.86   8 2.86
                            49 2.87
  25  0.620  0.702  0.119-  19 2.66  60 2.66  45 2.66  21 2.66   8 2.67  22 2.67  20 2.82  67 2.82
                            66 2.83  17 2.86  75 2.86  58 2.87
  26  0.202  0.036  0.227-  62 2.66  69 2.66  68 2.67  77 2.67  65 2.67  66 2.67  54 2.82  23 2.82
                            49 2.82  13 2.82  47 2.83   8 2.83
  27  0.867  0.953  0.444-  35 2.66  39 2.66  34 2.66  40 2.67  32 2.67  29 2.67   1 2.86  72 2.86
                             2 2.86
  28  0.117  0.453  0.444-  30 2.66  33 2.66  35 2.66  36 2.66  39 2.67  50 2.67   9 2.86   3 2.86
                            15 2.87
  29  0.117  0.953  0.444-  37 2.66  33 2.66  31 2.67  32 2.67  39 2.67  27 2.67  47 2.86   2 2.86
                            23 2.87
  30  0.867  0.453  0.444-  28 2.66  33 2.66  32 2.66  38 2.66  52 2.67  35 2.67   9 2.86  63 2.86
                            56 2.86
  31  0.367  0.953  0.444-  52 2.66  34 2.66  37 2.66  29 2.67  36 2.67  33 2.67  13 2.86  23 2.86
                            73 2.87
  32  0.867  0.203  0.444-  33 2.66  30 2.66  38 2.67  29 2.67  40 2.67  27 2.67  63 2.86  72 2.86
                            47 2.86
  33  0.117  0.203  0.444-  28 2.66  32 2.66  29 2.66  30 2.66  36 2.67  31 2.67   9 2.86  47 2.86
                            13 2.87
  34  0.617  0.953  0.444-  31 2.66  52 2.66  27 2.66  40 2.67  36 2.67  35 2.67  43 2.86  73 2.86
                             1 2.87
  35  0.867  0.703  0.444-  39 2.66  27 2.66  28 2.66  30 2.67  34 2.67  52 2.67   3 2.86  56 2.86
                             1 2.86
  36  0.367  0.203  0.444-  50 2.66  40 2.66  28 2.66  34 2.67  33 2.67  31 2.67  15 2.86  13 2.86
                            43 2.87
  37  0.367  0.703  0.444-  29 2.66  39 2.66  31 2.66  50 2.67  52 2.67  38 2.67  57 2.86  23 2.86
                            14 2.87
  38  0.617  0.453  0.444-  30 2.66  50 2.66  40 2.66  32 2.67  52 2.67  37 2.67  41 2.86  14 2.86
                            63 2.87
  39  0.117  0.703  0.444-  35 2.66  27 2.66  37 2.66  29 2.67  28 2.67  50 2.67   3 2.86   2 2.86
                            57 2.86
  40  0.617  0.203  0.444-  50 2.66  36 2.66  38 2.66  34 2.67  32 2.67  27 2.67  41 2.86  43 2.86
                            72 2.87
  41  0.534  0.370  0.334-  63 2.66  57 2.66  43 2.67  72 2.67  14 2.67  15 2.67  51 2.82  80 2.82
                            79 2.83  40 2.86  38 2.86  50 2.87
  42  0.537  0.368  0.009-  64 2.66  17 2.67  18 2.67  59 2.67  74 2.67  44 2.67   7 2.86  22 2.86
                            61 2.87
  43  0.534  0.120  0.334-  41 2.67  72 2.67  13 2.67   1 2.67  73 2.67  15 2.67  80 2.82  69 2.82
                            71 2.83  40 2.86  34 2.86  36 2.87
  44  0.537  0.118  0.009-   4 2.66  74 2.66  18 2.67  42 2.67  75 2.67  16 2.67  19 2.86   7 2.86
                            53 2.87
  45  0.870  0.452  0.119-  22 2.66  25 2.66  54 2.66  21 2.67  46 2.67  11 2.67  77 2.82  12 2.82
                            67 2.83  58 2.86  64 2.86  10 2.86
  46  0.120  0.452  0.119-  70 2.66  61 2.66  53 2.67  21 2.67  54 2.67  45 2.67  62 2.82  76 2.82
                            12 2.83   6 2.86  10 2.86  18 2.87
  47  0.034  0.120  0.334-   9 2.66  13 2.66   2 2.66  72 2.67  23 2.67  63 2.67  77 2.82  65 2.82
                            26 2.83  29 2.86  33 2.86  32 2.86
  48  0.037  0.118  0.009-  16 2.66  24 2.66  64 2.66  74 2.67  10 2.67   5 2.67  49 2.86  54 2.86
                            11 2.87
  49  0.120  0.952  0.119-  78 2.66  70 2.66  11 2.67  60 2.67  54 2.67   8 2.67  68 2.82  26 2.82
                            65 2.83  48 2.86   5 2.86  24 2.87
  50  0.367  0.453  0.444-  36 2.66  40 2.66  38 2.66  37 2.67  28 2.67  39 2.67  15 2.86  57 2.86
                            41 2.87
  51  0.452  0.536  0.227-  79 2.66  76 2.66  68 2.66  67 2.66  66 2.67  80 2.67  61 2.82  41 2.82
                            60 2.82  14 2.82  57 2.83  22 2.83
  52  0.617  0.703  0.444-  31 2.66  34 2.66  38 2.67  37 2.67  30 2.67  35 2.67  14 2.86  73 2.86
                            56 2.87
  53  0.370  0.202  0.119-  19 2.66   8 2.66  54 2.66  46 2.67   7 2.67  61 2.67  69 2.82  80 2.82
                            62 2.83  18 2.86  16 2.86  44 2.87
  54  0.120  0.202  0.119-  53 2.66  45 2.66   8 2.67  49 2.67  46 2.67  11 2.67  26 2.82  62 2.82
                            77 2.83  10 2.86  48 2.86  16 2.87
  55  0.952  0.786  0.227-  65 2.66  68 2.66  76 2.66  20 2.67  12 2.67  71 2.67  21 2.82   2 2.82
                            78 2.82   3 2.82   1 2.82  70 2.82
  56  0.784  0.620  0.334-  73 2.66   1 2.66   9 2.66  14 2.67   3 2.67  63 2.67  67 2.82  20 2.82
                            12 2.82  35 2.86  30 2.86  52 2.87
  57  0.284  0.619  0.334-  15 2.66   3 2.66  41 2.66   2 2.66  14 2.67  23 2.67  76 2.82  68 2.82
                            51 2.83  37 2.86  50 2.86  39 2.86
  58  0.787  0.618  0.009-  17 2.66  75 2.66   6 2.66  64 2.67  10 2.67   4 2.67  45 2.86  21 2.86
                            25 2.87
  59  0.287  0.618  0.010-   5 2.66   6 2.66  24 2.67  42 2.67  18 2.67  17 2.67  60 2.86  61 2.86
                            70 2.87
  60  0.370  0.702  0.119-   8 2.66  25 2.66  22 2.67  49 2.67  61 2.67  70 2.67  66 2.82  51 2.82
                            68 2.83  59 2.86  24 2.86  17 2.87
  61  0.370  0.452  0.119-  46 2.66   7 2.66  70 2.67  22 2.67  53 2.67  60 2.67  80 2.82  51 2.82
                            76 2.83  18 2.86  59 2.86  42 2.87
  62  0.202  0.286  0.227-  12 2.66  26 2.66  77 2.66  69 2.67  80 2.67  76 2.67  13 2.82  46 2.82
                            54 2.82  15 2.82   9 2.83  53 2.83
  63  0.784  0.370  0.334-  41 2.66   9 2.66  72 2.66  14 2.67  56 2.67  47 2.67  67 2.82  79 2.82
                            77 2.83  32 2.86  30 2.86  38 2.87
  64  0.787  0.368  0.009-  74 2.66  17 2.66  42 2.66  48 2.66  58 2.67  10 2.67  11 2.86  45 2.86
                            22 2.87
  65  0.952  0.036  0.227-  55 2.66  71 2.67  68 2.67  77 2.67  26 2.67  79 2.67  11 2.82  78 2.82
                             2 2.82  47 2.82  72 2.83  49 2.83
  66  0.452  0.786  0.227-  67 2.66  20 2.66  69 2.66  51 2.67  26 2.67  68 2.67   8 2.82  60 2.82
                            73 2.82  14 2.82  25 2.83  23 2.83
  67  0.702  0.536  0.227-  66 2.66  51 2.66  12 2.66  20 2.66  77 2.67  79 2.67  25 2.82  22 2.82
                            63 2.82  56 2.82  14 2.83  45 2.83
  68  0.202  0.786  0.227-  55 2.66  76 2.66  51 2.66  26 2.67  65 2.67  66 2.67  70 2.82  23 2.82
                            49 2.82  57 2.82   2 2.83  60 2.83
  69  0.452  0.036  0.227-  66 2.66  71 2.66  26 2.66  80 2.66  62 2.67  20 2.67  53 2.82  73 2.82
                             8 2.82  43 2.82  13 2.83  19 2.83
  70  0.120  0.702  0.119-  46 2.66  21 2.66  49 2.66  61 2.67  78 2.67  60 2.67  68 2.82  76 2.82
                            55 2.82   6 2.86   5 2.86  59 2.87
  71  0.702  0.036  0.226-  79 2.66  80 2.66  69 2.66  20 2.66  65 2.67  55 2.67   7 2.82  19 2.82
                             1 2.82  72 2.82  78 2.83  43 2.83
  72  0.784  0.120  0.334-   1 2.66  63 2.66  41 2.67   2 2.67  47 2.67  43 2.67  79 2.82  71 2.82
                            65 2.83  27 2.86  32 2.86  40 2.87
  73  0.534  0.870  0.334-  56 2.66  23 2.66  14 2.66   1 2.66  43 2.67  13 2.67  69 2.82  66 2.82
                            20 2.83  34 2.86  52 2.86  31 2.87
  74  0.787  0.118  0.009-  64 2.66  44 2.66   4 2.66  48 2.67  42 2.67   5 2.67  78 2.86  11 2.86
                             7 2.87
  75  0.537  0.868  0.009-  17 2.66   4 2.66  58 2.66  24 2.67  44 2.67  16 2.67  25 2.86  19 2.86
                             8 2.87
  76  0.202  0.536  0.227-  80 2.66  68 2.66  51 2.66  55 2.66  62 2.67  12 2.67  57 2.82  46 2.82
                            70 2.82  15 2.82   3 2.83  61 2.83
  77  0.952  0.286  0.227-  62 2.66  12 2.67  67 2.67  79 2.67  26 2.67  65 2.67  45 2.82  47 2.82
                            11 2.82   9 2.82  63 2.83  54 2.83
  78  0.870  0.952  0.119-  11 2.66  49 2.66   7 2.66  21 2.66  70 2.67  19 2.67  65 2.82  55 2.82
                            71 2.83  74 2.86   4 2.86   5 2.86
  79  0.702  0.286  0.226-  51 2.66  80 2.66  71 2.66  77 2.67  67 2.67  65 2.67  22 2.82   7 2.82
                            72 2.82  63 2.82  11 2.83  41 2.83
  80  0.452  0.286  0.227-  76 2.66  79 2.66  71 2.66  69 2.66  51 2.67  62 2.67  61 2.82  43 2.82
                            53 2.82  41 2.82  15 2.83   7 2.83
 
  LATTYP: Found a hexagonal cell.
 ALAT       =    10.6599999232
 C/A-ratio  =     2.0637898835
  
  Lattice vectors:
  
 A1 = (   5.3300000753,  -9.2318306722,   0.0000000000)
 A2 = ( -10.6599999990,   0.0000000000,   0.0000000000)
 A3 = (   0.0000000000,   0.0000000000, -22.0000000000)


Analysis of symmetry for initial positions (statically):
=====================================================================
 Subroutine PRICEL returns:
 Original cell was already a primitive cell.
 

 Routine SETGRP: Setting up the symmetry group for a 
 hexagonal supercell.


 Subroutine GETGRP returns: Found  1 space group operations
 (whereof  1 operations were pure point group operations)
 out of a pool of 24 trial point group operations.


The static configuration has the point symmetry C_1 .


Analysis of symmetry for dynamics (positions and initial velocities):
=====================================================================
 Subroutine PRICEL returns:
 Original cell was already a primitive cell.
 

 Routine SETGRP: Setting up the symmetry group for a 
 hexagonal supercell.


 Subroutine GETGRP returns: Found  1 space group operations
 (whereof  1 operations were pure point group operations)
 out of a pool of 24 trial point group operations.


The dynamic configuration has the point symmetry C_1 .


 Subroutine INISYM returns: Found  1 space group operations
 (whereof  1 operations are pure point group operations),
 and found     1 'primitive' translations

 
 
 KPOINTS: mesh auto                               

Automatic generation of k-mesh.
Space group operators:
 irot       det(A)        alpha          n_x          n_y          n_z        tau_x        tau_y        tau_z
    1     1.000000     0.000000     1.000000     0.000000     0.000000     0.000000     0.000000     0.000000
 
 Subroutine IBZKPT returns following result:
 ===========================================
 
 Found      4 irreducible k-points:
 
 Following reciprocal coordinates:
            Coordinates               Weight
  0.000000  0.000000  0.000000      1.000000
  0.500000 -0.000000  0.000000      1.000000
  0.000000  0.500000  0.000000      1.000000
  0.500000  0.500000  0.000000      1.000000
 
 Following cartesian coordinates:
            Coordinates               Weight
  0.000000  0.000000  0.000000      1.000000
  0.046904 -0.027080  0.000000      1.000000
  0.000000  0.054160  0.000000      1.000000
  0.046904  0.027080  0.000000      1.000000
 


--------------------------------------------------------------------------------------------------------




 Dimension of arrays:
   k-points           NKPTS =      4   k-points in BZ     NKDIM =      4   number of bands    NBANDS=    480
   number of dos      NEDOS =    301   number of ions     NIONS =     80
   non local maximal  LDIM  =      6   non local SUM 2l+1 LMDIM =     18
   total plane-waves  NPLWV = ******
   max r-space proj   IRMAX =   7657   max aug-charges    IRDMAX=  33358
   dimension x,y,z NGX =    84 NGY =   84 NGZ =  168
   dimension x,y,z NGXF=   168 NGYF=  168 NGZF=  336
   support grid    NGXF=   168 NGYF=  168 NGZF=  336
   ions per type =              80
   NGX,Y,Z   is equivalent  to a cutoff of  13.10, 13.10, 12.70 a.u.
   NGXF,Y,Z  is equivalent  to a cutoff of  26.20, 26.20, 25.39 a.u.

 SYSTEM =  Pt111                                   
 POSCAR =  Pt111                                   

 Startparameter for this run:
   NWRITE =      2    write-flag & timer
   PREC   = accura    normal or accurate (medium, high low for compatibility)
   ISTART =      0    job   : 0-new  1-cont  2-samecut
   ICHARG =      2    charge: 1-file 2-atom 10-const
   ISPIN  =      1    spin polarized calculation?
   LNONCOLLINEAR =      F non collinear calculations
   LSORBIT =      F    spin-orbit coupling
   INIWAV =      1    electr: 0-lowe 1-rand  2-diag
   LASPH  =      F    aspherical Exc in radial PAW
   METAGGA=      F    non-selfconsistent MetaGGA calc.

 Electronic Relaxation 1
   ENCUT  =  550.0 eV  40.42 Ry    6.36 a.u.  20.38 20.38 42.07*2*pi/ulx,y,z
   ENINI  =  550.0     initial cutoff
   ENAUG  =  359.0 eV  augmentation charge cutoff
   NELM   =    200;   NELMIN=  2; NELMDL= -5     # of ELM steps 
   EDIFF  = 0.1E-04   stopping-criterion for ELM
   LREAL  =      T    real-space projection
   NLSPLINE    = F    spline interpolate recip. space projectors
   LCOMPAT=      F    compatible to vasp.4.4
   GGA_COMPAT  = T    GGA compatible to vasp.4.4-vasp.4.6
   LMAXPAW     = -100 max onsite density
   LMAXMIX     =    2 max onsite mixed and CHGCAR
   VOSKOWN=      0    Vosko Wilk Nusair interpolation
   ROPT   =   -0.00025
 Ionic relaxation
   EDIFFG = -.5E-01   stopping-criterion for IOM
   NSW    =    300    number of steps for IOM
   NBLOCK =      1;   KBLOCK =    300    inner block; outer block 
   IBRION =      2    ionic relax: 0-MD 1-quasi-New 2-CG
   NFREE  =      1    steps in history (QN), initial steepest desc. (CG)
   ISIF   =      2    stress and relaxation
   IWAVPR =     11    prediction:  0-non 1-charg 2-wave 3-comb
   ISYM   =      2    0-nonsym 1-usesym 2-fastsym
   LCORR  =      T    Harris-Foulkes like correction to forces

   POTIM  = 0.5000    time-step for ionic-motion
   TEIN   =    0.0    initial temperature
   TEBEG  =    0.0;   TEEND  =   0.0 temperature during run
   SMASS  =  -3.00    Nose mass-parameter (am)
   estimated Nose-frequenzy (Omega)   =  0.10E-29 period in steps =****** mass=  -0.260E-26a.u.
   SCALEE = 1.0000    scale energy and forces
   NPACO  =    256;   APACO  = 16.0  distance and # of slots for P.C.
   PSTRESS=    0.0 pullay stress

  Mass of Ions in am
   POMASS = 195.08
  Ionic Valenz
   ZVAL   =  10.00
  Atomic Wigner-Seitz radii
   RWIGS  =  -1.00
  virtual crystal weights 
   VCA    =   1.00
   NELECT =     800.0000    total number of electrons
   NUPDOWN=      -1.0000    fix difference up-down

 DOS related values:
   EMIN   =  10.00;   EMAX   =-10.00  energy-range for DOS
   EFERMI =   0.00
   ISMEAR =     1;   SIGMA  =   0.10  broadening in eV -4-tet -1-fermi 0-gaus

 Electronic relaxation 2 (details)
   IALGO  =     68    algorithm
   LDIAG  =      T    sub-space diagonalisation (order eigenvalues)
   LSUBROT=      F    optimize rotation matrix (better conditioning)
   TURBO    =      0    0=normal 1=particle mesh
   IRESTART =      0    0=no restart 2=restart with 2 vectors
   NREBOOT  =      0    no. of reboots
   NMIN     =      0    reboot dimension
   EREF     =   0.00    reference energy to select bands
   IMIX   =      4    mixing-type and parameters
     AMIX     =   0.40;   BMIX     =  1.00
     AMIX_MAG =   1.60;   BMIX_MAG =  1.00
     AMIN     =   0.10
     WC   =   100.;   INIMIX=   1;  MIXPRE=   1;  MAXMIX= -45

 Intra band minimization:
   WEIMIN = 0.0010     energy-eigenvalue tresh-hold
   EBREAK =  0.52E-08  absolut break condition
   DEPER  =   0.30     relativ break condition  

   TIME   =   0.40     timestep for ELM

  volume/ion in A,a.u.               =      27.06       182.63
  Fermi-wavevector in a.u.,A,eV,Ry     =   1.174759  2.219973 18.776851  1.380060
  Thomas-Fermi vector in A             =   2.311151
 
 Write flags
   LWAVE        =      F    write WAVECAR
   LDOWNSAMPLE  =      F    k-point downsampling of WAVECAR
   LCHARG       =      F    write CHGCAR
   LVTOT        =      F    write LOCPOT, total local potential
   LVHAR        =      F    write LOCPOT, Hartree potential only
   LELF         =      F    write electronic localiz. function (ELF)
   LORBIT       =      0    0 simple, 1 ext, 2 COOP (PROOUT), +10 PAW based schemes


 Dipole corrections
   LMONO  =      F    monopole corrections only (constant potential shift)
   LDIPOL =      F    correct potential (dipole corrections)
   IDIPOL =      0    1-x, 2-y, 3-z, 4-all directions 
   EPSILON=  1.0000000 bulk dielectric constant

 Exchange correlation treatment:
   GGA     =    --    GGA type
   LEXCH   =     8    internal setting for exchange type
   VOSKOWN=      0    Vosko Wilk Nusair interpolation
   LHFCALC =     F    Hartree Fock is set to
   LHFONE  =     F    Hartree Fock one center treatment
   AEXX    =    0.0000 exact exchange contribution

 Linear response parameters
   LEPSILON=     F    determine dielectric tensor
   LRPA    =     F    only Hartree local field effects (RPA)
   LNABLA  =     F    use nabla operator in PAW spheres
   LVEL    =     F    velocity operator in full k-point grid
   LINTERFAST=   F  fast interpolation
   KINTER  =     0    interpolate to denser k-point grid
   CSHIFT  =0.1000    complex shift for real part using Kramers Kronig
   OMEGAMAX=  -1.0    maximum frequency
   DEG_THRESHOLD= 0.2000000E-02 threshold for treating states as degnerate
   RTIME   =   -0.100 relaxation time in fs
  (WPLASMAI=    0.000 imaginary part of plasma frequency in eV, 0.658/RTIME)
   DFIELD  = 0.0000000 0.0000000 0.0000000 field for delta impulse in time
 
 Orbital magnetization related:
   ORBITALMAG=     F  switch on orbital magnetization
   LCHIMAG   =     F  perturbation theory with respect to B field
   DQ        =  0.001000  dq finite difference perturbation B field
   LLRAUG    =     F  two centre corrections for induced B field



--------------------------------------------------------------------------------------------------------


 conjugate gradient relaxation of ions
 charge density and potential will be updated during run
 non-spin polarized calculation
 RMM-DIIS sequential band-by-band and
  variant of blocked Davidson during initial phase
 perform sub-space diagonalisation
    before iterative eigenvector-optimisation
 modified Broyden-mixing scheme, WC =      100.0
 initial mixing is a Kerker type mixing with AMIX =  0.4000 and BMIX =      1.0000
 Hartree-type preconditioning will be used
 using additional bands           80
 real space projection scheme for non local part
 use partial core corrections
 calculate Harris-corrections to forces 
   (improved forces if not selfconsistent)
 use gradient corrections 
 use of overlap-Matrix (Vanderbilt PP)
 Methfessel and Paxton  Order N= 1 SIGMA  =   0.10


--------------------------------------------------------------------------------------------------------


  energy-cutoff  :      550.00
  volume of cell :     2165.05
      direct lattice vectors                 reciprocal lattice vectors
    10.659999999  0.000000000  0.000000000     0.093808630 -0.054160438  0.000000000
     5.329999924  9.231830672  0.000000000     0.000000000  0.108320878  0.000000000
     0.000000000  0.000000000 22.000000000     0.000000000  0.000000000  0.045454545

  length of vectors
    10.659999999 10.659999847 22.000000000     0.108320876  0.108320878  0.045454545


 
 k-points in units of 2pi/SCALE and weight: mesh auto                               
   0.00000000  0.00000000  0.00000000       0.250
   0.04690432 -0.02708022  0.00000000       0.250
   0.00000000  0.05416044  0.00000000       0.250
   0.04690432  0.02708022  0.00000000       0.250
 
 k-points in reciprocal lattice and weights: mesh auto                               
   0.00000000  0.00000000  0.00000000       0.250
   0.50000000 -0.00000000  0.00000000       0.250
   0.00000000  0.50000000  0.00000000       0.250
   0.50000000  0.50000000  0.00000000       0.250
 
 position of ions in fractional coordinates (direct lattice) 
   0.78427871  0.86956109  0.33403843
   0.03431949  0.86955590  0.33419113
   0.03438301  0.61942111  0.33435932
   0.78719686  0.86781740  0.00920734
   0.03742736  0.86754232  0.00938891
   0.03731769  0.61764020  0.00956612
   0.61967973  0.20164816  0.11898405
   0.36967088  0.95159545  0.11911787
   0.03421459  0.36953338  0.33441786
   0.03747623  0.36762616  0.00961287
   0.86957920  0.20158104  0.11895459
   0.95181868  0.53562601  0.22674285
   0.28424898  0.11956090  0.33435269
   0.53423112  0.61960869  0.33417264
   0.28415234  0.36964853  0.33452433
   0.28716095  0.11773604  0.00955887
   0.53748247  0.61763009  0.00939974
   0.28738029  0.36754733  0.00966883
   0.61956950  0.95162562  0.11898285
   0.70183673  0.78567589  0.22649549
   0.86970341  0.70163971  0.11906311
   0.61974477  0.45158484  0.11908270
   0.28437387  0.86953013  0.33421457
   0.28723431  0.86772389  0.00941434
   0.61972441  0.70162734  0.11904415
   0.20181016  0.03566548  0.22669270
   0.86706584  0.95308327  0.44378942
   0.11700341  0.45305864  0.44427254
   0.11718018  0.95316035  0.44395691
   0.86707457  0.45313097  0.44400966
   0.36726488  0.95301689  0.44399955
   0.86712243  0.20313707  0.44385674
   0.11701112  0.20315986  0.44408341
   0.61704432  0.95314757  0.44382954
   0.86725452  0.70314164  0.44391017
   0.36708117  0.20326289  0.44417541
   0.36696414  0.70317537  0.44404209
   0.61710153  0.45313500  0.44394871
   0.11698701  0.70322395  0.44407612
   0.61706148  0.20317102  0.44380639
   0.53429750  0.36956434  0.33420298
   0.53729480  0.36772262  0.00938193
   0.53425756  0.11958427  0.33418485
   0.53744732  0.11760919  0.00931500
   0.86968470  0.45162578  0.11912876
   0.11977939  0.45162882  0.11933874
   0.03430760  0.11953627  0.33422511
   0.03735056  0.11767589  0.00937838
   0.11959597  0.95158776  0.11909876
   0.36719351  0.45300353  0.44420665
   0.45185765  0.53567683  0.22671992
   0.61700498  0.70321678  0.44386174
   0.36969168  0.20151189  0.11925355
   0.11965639  0.20161621  0.11926056
   0.95193015  0.78565911  0.22662545
   0.78426774  0.61958468  0.33416093
   0.28424458  0.61949396  0.33438990
   0.78733338  0.61765568  0.00935973
   0.28722709  0.61770450  0.00958703
   0.36976716  0.70164814  0.11917833
   0.36971887  0.45157648  0.11927960
   0.20173861  0.28566366  0.22690995
   0.78423209  0.36956450  0.33418126
   0.78732632  0.36762179  0.00930569
   0.95181804  0.03558592  0.22653012
   0.45193928  0.78565051  0.22659087
   0.70179607  0.53571911  0.22660877
   0.20188859  0.78560735  0.22674276
   0.45177568  0.03568647  0.22666096
   0.11967474  0.70158666  0.11923317
   0.70172640  0.03572017  0.22644903
   0.78429111  0.11954436  0.33402967
   0.53432551  0.86952624  0.33408945
   0.78733560  0.11769611  0.00916614
   0.53736608  0.86758613  0.00927431
   0.20192086  0.53565626  0.22687908
   0.95174779  0.28565283  0.22669122
   0.86966222  0.95165077  0.11894673
   0.70171593  0.28567320  0.22648064
   0.45176685  0.28569018  0.22673731
 
 position of ions in cartesian coordinates  (Angst):
  12.99517155  8.02764076  7.34884545
   5.00057859  8.02759279  7.35220483
   3.66803738  5.71839082  7.35590493
  13.01698517  8.01154330  0.20256152
   5.02297619  8.00900376  0.20655609
   3.68982881  5.70194971  0.21045470
   7.68057062  1.86158166  2.61764901
   9.01269529  8.78496802  2.62059303
   2.33434041  3.41146959  7.35719294
   2.35894400  3.39386243  0.21148310
  10.34414122  1.86096203  2.61700097
  13.00127375  4.94480867  4.98834280
   3.66735367  1.10376595  7.35575920
   8.99741804  5.72012253  7.35179803
   4.99929055  3.41253263  7.35953528
   3.68866881  1.08691914  0.21029518
   9.02153148  5.70185640  0.20679429
   5.02250113  3.39313469  0.21271420
  11.67677532  8.78524661  2.61762268
  11.66923195  7.25322679  4.98290082
  13.01077789  6.47741897  2.61938840
   9.01342636  4.16895476  2.61981946
   7.66602095  8.02735493  7.35272056
   7.68688598  8.01068000  0.20711555
  10.34593585  6.47730479  2.61897125
   2.34139333  0.32925766  4.98723936
  14.32285563  8.79870332  9.76336734
   3.66205889  4.18256068  9.77399589
   6.32948537  8.79941498  9.76705194
  11.65820293  4.18322837  9.76821262
   8.99462358  8.79809055  9.76799006
  10.32624564  1.87532704  9.76484822
   2.33018064  1.87553746  9.76983507
  11.65796889  8.79929699  9.76424979
  12.99267801  6.49128454  9.76602379
   4.99647646  1.87648861  9.77185911
   7.65976243  6.49159597  9.76892605
   8.99351189  4.18326561  9.76687162
   4.99526512  6.49204445  9.76967461
   7.66077688  1.87564044  9.76374052
   7.66538926  3.41175544  7.35246556
   7.68752405  3.39475294  0.20640236
   6.33256978  1.10398178  7.35206679
   6.35604545  1.08574814  0.20493010
  11.67800428  4.16933276  2.62083270
   3.68402987  4.16936077  2.62545234
   1.00284735  1.10353857  7.35295242
   1.02536947  1.08636388  0.20632433
   6.34685577  8.78489705  2.62017269
   6.32879158  4.18205186  9.77254631
   7.67196004  4.94527777  4.98783819
  10.32541847  6.49197822  9.76495830
   5.01497166  1.86032362  2.62357816
   2.35015150  1.86128672  2.62373241
  14.33513837  7.25307188  4.98575984
  11.66268042  5.71990085  7.35154044
   6.33195002  5.71906338  7.35657785
  11.68507860  5.70209265  0.20591396
   6.35420575  5.70254332  0.21091457
   7.68150248  6.47749683  2.62192333
   6.34810571  4.16887758  2.62415129
   3.67312082  2.63719850  4.99201879
  10.32969284  3.41175692  7.35198780
  10.35232268  3.39382209  0.20472528
  10.33605332  0.32852321  4.98366257
   9.00518986  7.25299249  4.98499915
  10.33652888  4.94566807  4.98539299
   6.33941951  7.25259400  4.98834074
   5.00613764  0.32945143  4.98654103
   5.01518959  6.47692921  2.62312969
   7.67079196  0.32976257  4.98187866
   8.99771461  1.10361327  7.34865276
  10.33048466  8.02731897  7.34996784
   9.02031779  1.08655056  0.20165517
  10.35255645  8.00940821  0.20403481
   5.00752416  4.94508786  4.99133980
  11.66816095  2.63709851  4.98720680
  14.34289774  8.78547873  2.61682801
   9.00292989  2.63728659  4.98257400
   6.33856328  2.63744339  4.98822093
 


--------------------------------------------------------------------------------------------------------


 k-point  1 :   0.0000 0.0000 0.0000  plane waves:   63475
 k-point  2 :   0.5000-0.0000 0.0000  plane waves:   63428
 k-point  3 :   0.0000 0.5000 0.0000  plane waves:   63428
 k-point  4 :   0.5000 0.5000 0.0000  plane waves:   63428

 maximum and minimum number of plane-waves per node :     15884    15811

 maximum number of plane-waves:     63475
 maximum index in each direction: 
   IXMAX=   20   IYMAX=   20   IZMAX=   42
   IXMIN=  -20   IYMIN=  -20   IZMIN=  -42


 real space projection operators:
  total allocation   :      83235.23 KBytes
  max/ min on nodes  :      20811.09      20805.89


 parallel 3D FFT for wavefunctions:
    minimum data exchange during FFTs selected (reduces bandwidth)
 parallel 3D FFT for charge:
    minimum data exchange during FFTs selected (reduces bandwidth)


 total amount of memory used by VASP MPI-rank0   159676. kBytes
=======================================================================

   base      :      30000. kBytes
   nonlr-proj:      36027. kBytes
   fftplans  :      17966. kBytes
   grid      :      25483. kBytes
   one-center:        311. kBytes
   wavefun   :      49889. kBytes
 
     INWAV:  cpu time    0.0000: real time    0.0000
 Broyden mixing: mesh for mixing (old mesh)
   NGX = 41   NGY = 41   NGZ = 85
  (NGX  =168   NGY  =168   NGZ  =336)
  gives a total of 142885 points

 initial charge density was supplied:
 charge density of overlapping atoms calculated
 number of electron     800.0000000 magnetization 
 keeping initial charge density in first step


--------------------------------------------------------------------------------------------------------


 Maximum index for non-local projection operator         1878
 Maximum index for augmentation-charges         2049 (set IRDMAX)


--------------------------------------------------------------------------------------------------------


 First call to EWALD:  gamma=   0.137
 Maximum number of real-space cells 4x 4x 2
 Maximum number of reciprocal cells 2x 2x 4

    FEWALD:  cpu time    0.0134: real time    0.0135


--------------------------------------- Iteration      1(   1)  ---------------------------------------


    POTLOK:  cpu time    0.1941: real time    0.1975
    SETDIJ:  cpu time    0.0181: real time    0.0186
     EDDAV:  cpu time   27.3127: real time   27.4160
       DOS:  cpu time    0.0010: real time    0.0011
    --------------------------------------------
      LOOP:  cpu time   27.5260: real time   27.6332

 eigenvalue-minimisations  :  3840
 total energy-change (2. order) : 0.5734465E+04  (-0.3982439E+05)
 number of electron     800.0000000 magnetization 
 augmentation part      800.0000000 magnetization 

 Free energy of the ion-electron system (eV)
  ---------------------------------------------------
  alpha Z        PSCENC =      2809.97302481
  Ewald energy   TEWEN  =    169035.34144029
  -Hartree energ DENC   =   -233932.20469124
  -exchange      EXHF   =         0.00000000
  -V(xc)+E(xc)   XCENC  =       296.86179655
  PAW double counting   =     55689.88283425   -53427.22359852
  entropy T*S    EENTRO =        -0.00187315
  eigenvalues    EBANDS =      6932.59182261
  atomic energy  EATOM  =     58329.24398462
  Solvation  Ediel_sol  =         0.00000000
  ---------------------------------------------------
  free energy    TOTEN  =      5734.46474024 eV

  energy without entropy =     5734.46661338  energy(sigma->0) =     5734.46536462


--------------------------------------------------------------------------------------------------------




--------------------------------------- Iteration      1(   2)  ---------------------------------------


     EDDAV:  cpu time   29.3035: real time   29.4052
       DOS:  cpu time    0.0010: real time    0.0010
    --------------------------------------------
      LOOP:  cpu time   29.3045: real time   29.4062

 eigenvalue-minimisations  :  4250
 total energy-change (2. order) :-0.5877330E+04  (-0.5463977E+04)
 number of electron     800.0000000 magnetization 
 augmentation part      800.0000000 magnetization 

 Free energy of the ion-electron system (eV)
  ---------------------------------------------------
  alpha Z        PSCENC =      2809.97302481
  Ewald energy   TEWEN  =    169035.34144029
  -Hartree energ DENC   =   -233932.20469124
  -exchange      EXHF   =         0.00000000
  -V(xc)+E(xc)   XCENC  =       296.86179655
  PAW double counting   =     55689.88283425   -53427.22359852
  entropy T*S    EENTRO =         0.01012576
  eigenvalues    EBANDS =      1055.25009956
  atomic energy  EATOM  =     58329.24398462
  Solvation  Ediel_sol  =         0.00000000
  ---------------------------------------------------
  free energy    TOTEN  =      -142.86498391 eV

  energy without entropy =     -142.87510967  energy(sigma->0) =     -142.86835916


--------------------------------------------------------------------------------------------------------




--------------------------------------- Iteration      1(   3)  ---------------------------------------


     EDDAV:  cpu time   31.2252: real time   31.3034
       DOS:  cpu time    0.0012: real time    0.0012
    --------------------------------------------
      LOOP:  cpu time   31.2264: real time   31.3046

 eigenvalue-minimisations  :  4580
 total energy-change (2. order) :-0.3375811E+03  (-0.3028808E+03)
 number of electron     800.0000000 magnetization 
 augmentation part      800.0000000 magnetization 

 Free energy of the ion-electron system (eV)
  ---------------------------------------------------
  alpha Z        PSCENC =      2809.97302481
  Ewald energy   TEWEN  =    169035.34144029
  -Hartree energ DENC   =   -233932.20469124
  -exchange      EXHF   =         0.00000000
  -V(xc)+E(xc)   XCENC  =       296.86179655
  PAW double counting   =     55689.88283425   -53427.22359852
  entropy T*S    EENTRO =        -0.05425295
  eigenvalues    EBANDS =       717.73338904
  atomic energy  EATOM  =     58329.24398462
  Solvation  Ediel_sol  =         0.00000000
  ---------------------------------------------------
  free energy    TOTEN  =      -480.44607313 eV

  energy without entropy =     -480.39182019  energy(sigma->0) =     -480.42798882


--------------------------------------------------------------------------------------------------------




--------------------------------------- Iteration      1(   4)  ---------------------------------------


     EDDAV:  cpu time   32.5836: real time   32.6629
       DOS:  cpu time    0.0011: real time    0.0011
    --------------------------------------------
      LOOP:  cpu time   32.5847: real time   32.6640

 eigenvalue-minimisations  :  4850
 total energy-change (2. order) :-0.1465604E+02  (-0.1410534E+02)
 number of electron     800.0000000 magnetization 
 augmentation part      800.0000000 magnetization 

 Free energy of the ion-electron system (eV)
  ---------------------------------------------------
  alpha Z        PSCENC =      2809.97302481
  Ewald energy   TEWEN  =    169035.34144029
  -Hartree energ DENC   =   -233932.20469124
  -exchange      EXHF   =         0.00000000
  -V(xc)+E(xc)   XCENC  =       296.86179655
  PAW double counting   =     55689.88283425   -53427.22359852
  entropy T*S    EENTRO =        -0.06465667
  eigenvalues    EBANDS =       703.08775552
  atomic energy  EATOM  =     58329.24398462
  Solvation  Ediel_sol  =         0.00000000
  ---------------------------------------------------
  free energy    TOTEN  =      -495.10211037 eV

  energy without entropy =     -495.03745370  energy(sigma->0) =     -495.08055815


--------------------------------------------------------------------------------------------------------




--------------------------------------- Iteration      1(   5)  ---------------------------------------


     EDDAV:  cpu time   31.8725: real time   31.9479
       DOS:  cpu time    0.0011: real time    0.0011
    CHARGE:  cpu time    2.0863: real time    2.0914
    MIXING:  cpu time    0.0071: real time    0.0077
    --------------------------------------------
      LOOP:  cpu time   33.9670: real time   34.0482

 eigenvalue-minimisations  :  4720
 total energy-change (2. order) :-0.3633071E+00  (-0.3623359E+00)
 number of electron     800.0000002 magnetization 
 augmentation part      232.0866184 magnetization 

 Broyden mixing:
  rms(total) = 0.11443E+02    rms(broyden)= 0.11443E+02
  rms(prec ) = 0.11550E+02
  weight for this iteration     100.00

 Free energy of the ion-electron system (eV)
  ---------------------------------------------------
  alpha Z        PSCENC =      2809.97302481
  Ewald energy   TEWEN  =    169035.34144029
  -Hartree energ DENC   =   -233932.20469124
  -exchange      EXHF   =         0.00000000
  -V(xc)+E(xc)   XCENC  =       296.86179655
  PAW double counting   =     55689.88283425   -53427.22359852
  entropy T*S    EENTRO =        -0.06454077
  eigenvalues    EBANDS =       702.72433248
  atomic energy  EATOM  =     58329.24398462
  Solvation  Ediel_sol  =         0.00000000
  ---------------------------------------------------
  free energy    TOTEN  =      -495.46541752 eV

  energy without entropy =     -495.40087675  energy(sigma->0) =     -495.44390393


--------------------------------------------------------------------------------------------------------




--------------------------------------- Iteration      1(   6)  ---------------------------------------


    POTLOK:  cpu time    0.1721: real time    0.1725
    SETDIJ:  cpu time    0.0153: real time    0.0153
    EDDIAG:  cpu time    4.6861: real time    4.6976
  RMM-DIIS:  cpu time   16.9093: real time   16.9492
    ORTHCH:  cpu time    0.4400: real time    0.4410
       DOS:  cpu time    0.0011: real time    0.0011
    CHARGE:  cpu time    2.0913: real time    2.0963
    MIXING:  cpu time    0.0070: real time    0.0073
    --------------------------------------------
      LOOP:  cpu time   24.3222: real time   24.3804

 eigenvalue-minimisations  :  3848
 total energy-change (2. order) : 0.1826973E+02  (-0.6817132E+01)
 number of electron     799.9999999 magnetization 
 augmentation part      243.8195551 magnetization 

 Broyden mixing:
  rms(total) = 0.77605E+01    rms(broyden)= 0.77605E+01
  rms(prec ) = 0.83288E+01
  weight for this iteration     100.00

 eigenvalues of (default mixing * dielectric matrix)
  average eigenvalue GAMMA=   1.6398
  1.6398

 Free energy of the ion-electron system (eV)
  ---------------------------------------------------
  alpha Z        PSCENC =      2809.97302481
  Ewald energy   TEWEN  =    169035.34144029
  -Hartree energ DENC   =   -232991.61162316
  -exchange      EXHF   =         0.00000000
  -V(xc)+E(xc)   XCENC  =       277.25410897
  PAW double counting   =     63410.78195665   -61281.63859730
  entropy T*S    EENTRO =        -0.03950857
  eigenvalues    EBANDS =       -66.50047647
  atomic energy  EATOM  =     58329.24398462
  Solvation  Ediel_sol  =         0.00000000
  ---------------------------------------------------
  free energy    TOTEN  =      -477.19569015 eV

  energy without entropy =     -477.15618157  energy(sigma->0) =     -477.18252062


--------------------------------------------------------------------------------------------------------




--------------------------------------- Iteration      1(   7)  ---------------------------------------


    POTLOK:  cpu time    0.1670: real time    0.1673
    SETDIJ:  cpu time    0.0192: real time    0.0193
    EDDIAG:  cpu time    4.7194: real time    4.7305
  RMM-DIIS:  cpu time   16.7416: real time   16.7811
    ORTHCH:  cpu time    0.4409: real time    0.4419
       DOS:  cpu time    0.0012: real time    0.0012
    CHARGE:  cpu time    2.1584: real time    2.1635
    MIXING:  cpu time    0.0071: real time    0.0071
    --------------------------------------------
      LOOP:  cpu time   24.2546: real time   24.3119

 eigenvalue-minimisations  :  3879
 total energy-change (2. order) :-0.2540898E+03  (-0.3140951E+02)
 number of electron     800.0000003 magnetization 
 augmentation part      237.0884728 magnetization 

 Broyden mixing:
  rms(total) = 0.13049E+02    rms(broyden)= 0.13049E+02
  rms(prec ) = 0.16867E+02
  weight for this iteration     100.00

 eigenvalues of (default mixing * dielectric matrix)
  average eigenvalue GAMMA=   1.2424
  2.2762  0.2086

 Free energy of the ion-electron system (eV)
  ---------------------------------------------------
  alpha Z        PSCENC =      2809.97302481
  Ewald energy   TEWEN  =    169035.34144029
  -Hartree energ DENC   =   -234223.34421976
  -exchange      EXHF   =         0.00000000
  -V(xc)+E(xc)   XCENC  =       270.56292158
  PAW double counting   =     69503.47697365   -67442.21765050
  entropy T*S    EENTRO =        -0.02260223
  eigenvalues    EBANDS =       985.70065800
  atomic energy  EATOM  =     58329.24398462
  Solvation  Ediel_sol  =         0.00000000
  ---------------------------------------------------
  free energy    TOTEN  =      -731.28546953 eV

  energy without entropy =     -731.26286730  energy(sigma->0) =     -731.27793545


--------------------------------------------------------------------------------------------------------




--------------------------------------- Iteration      1(   8)  ---------------------------------------


    POTLOK:  cpu time    0.1674: real time    0.1678
    SETDIJ:  cpu time    0.0153: real time    0.0154
    EDDIAG:  cpu time    4.6828: real time    4.6940
  RMM-DIIS:  cpu time   16.6155: real time   16.6548
    ORTHCH:  cpu time    0.4382: real time    0.4393
       DOS:  cpu time    0.0011: real time    0.0011
    CHARGE:  cpu time    2.0962: real time    2.1012
    MIXING:  cpu time    0.0069: real time    0.0070
    --------------------------------------------
      LOOP:  cpu time   24.0235: real time   24.0805

 eigenvalue-minimisations  :  3853
 total energy-change (2. order) : 0.1997616E+03  (-0.9219752E+01)
 number of electron     800.0000002 magnetization 
 augmentation part      245.9348066 magnetization 

 Broyden mixing:
  rms(total) = 0.65141E+01    rms(broyden)= 0.65141E+01
  rms(prec ) = 0.80891E+01
  weight for this iteration     100.00

 eigenvalues of (default mixing * dielectric matrix)
  average eigenvalue GAMMA=   0.9566
  2.2097  0.3301  0.3301

 Free energy of the ion-electron system (eV)
  ---------------------------------------------------
  alpha Z        PSCENC =      2809.97302481
  Ewald energy   TEWEN  =    169035.34144029
  -Hartree energ DENC   =   -233250.79455278
  -exchange      EXHF   =         0.00000000
  -V(xc)+E(xc)   XCENC  =       264.27074935
  PAW double counting   =     75214.74592104   -73225.98954013
  entropy T*S    EENTRO =        -0.02795247
  eigenvalues    EBANDS =       291.71304501
  atomic energy  EATOM  =     58329.24398462
  Solvation  Ediel_sol  =         0.00000000
  ---------------------------------------------------
  free energy    TOTEN  =      -531.52388026 eV

  energy without entropy =     -531.49592779  energy(sigma->0) =     -531.51456277


--------------------------------------------------------------------------------------------------------




--------------------------------------- Iteration      1(   9)  ---------------------------------------


    POTLOK:  cpu time    0.1639: real time    0.1643
    SETDIJ:  cpu time    0.0153: real time    0.0153
    EDDIAG:  cpu time    4.6781: real time    4.6893
  RMM-DIIS:  cpu time   16.7168: real time   16.7563
    ORTHCH:  cpu time    0.4407: real time    0.4418
       DOS:  cpu time    0.0011: real time    0.0011
    CHARGE:  cpu time    2.1312: real time    2.1362
    MIXING:  cpu time    0.0070: real time    0.0070
    --------------------------------------------
      LOOP:  cpu time   24.1541: real time   24.2113

 eigenvalue-minimisations  :  3863
 total energy-change (2. order) : 0.4520368E+02  (-0.7722083E+01)
 number of electron     800.0000001 magnetization 
 augmentation part      247.6004799 magnetization 

 Broyden mixing:
  rms(total) = 0.47055E+01    rms(broyden)= 0.47055E+01
  rms(prec ) = 0.63609E+01
  weight for this iteration     100.00

 eigenvalues of (default mixing * dielectric matrix)
  average eigenvalue GAMMA=   0.8454
  2.0465  0.7747  0.3416  0.2185

 Free energy of the ion-electron system (eV)
  ---------------------------------------------------
  alpha Z        PSCENC =      2809.97302481
  Ewald energy   TEWEN  =    169035.34144029
  -Hartree energ DENC   =   -233048.40650750
  -exchange      EXHF   =         0.00000000
  -V(xc)+E(xc)   XCENC  =       265.69320862
  PAW double counting   =     75265.97431546   -73275.59597456
  entropy T*S    EENTRO =        -0.18351574
  eigenvalues    EBANDS =       131.63982619
  atomic energy  EATOM  =     58329.24398462
  Solvation  Ediel_sol  =         0.00000000
  ---------------------------------------------------
  free energy    TOTEN  =      -486.32019780 eV

  energy without entropy =     -486.13668206  energy(sigma->0) =     -486.25902589


--------------------------------------------------------------------------------------------------------




--------------------------------------- Iteration      1(  10)  ---------------------------------------


    POTLOK:  cpu time    0.1702: real time    0.1706
    SETDIJ:  cpu time    0.0154: real time    0.0154
    EDDIAG:  cpu time    4.6787: real time    4.6899
  RMM-DIIS:  cpu time   16.6858: real time   16.7252
    ORTHCH:  cpu time    0.4416: real time    0.4427
       DOS:  cpu time    0.0011: real time    0.0011
    CHARGE:  cpu time    2.0839: real time    2.0888
    MIXING:  cpu time    0.0065: real time    0.0065
    --------------------------------------------
      LOOP:  cpu time   24.0833: real time   24.1402

 eigenvalue-minimisations  :  3869
 total energy-change (2. order) :-0.1559866E+02  (-0.2832478E+01)
 number of electron     799.9999998 magnetization 
 augmentation part      247.4210756 magnetization 

 Broyden mixing:
  rms(total) = 0.57571E+01    rms(broyden)= 0.57571E+01
  rms(prec ) = 0.94742E+01
  weight for this iteration     100.00

 eigenvalues of (default mixing * dielectric matrix)
  average eigenvalue GAMMA=   0.7265
  2.0884  0.8906  0.2569  0.2569  0.1396

 Free energy of the ion-electron system (eV)
  ---------------------------------------------------
  alpha Z        PSCENC =      2809.97302481
  Ewald energy   TEWEN  =    169035.34144029
  -Hartree energ DENC   =   -232885.99377869
  -exchange      EXHF   =         0.00000000
  -V(xc)+E(xc)   XCENC  =       268.23255766
  PAW double counting   =     74919.15474700   -72918.43669519
  entropy T*S    EENTRO =         0.01311478
  eigenvalues    EBANDS =       -59.44725782
  atomic energy  EATOM  =     58329.24398462
  Solvation  Ediel_sol  =         0.00000000
  ---------------------------------------------------
  free energy    TOTEN  =      -501.91886253 eV

  energy without entropy =     -501.93197730  energy(sigma->0) =     -501.92323412


--------------------------------------------------------------------------------------------------------




--------------------------------------- Iteration      1(  11)  ---------------------------------------


    POTLOK:  cpu time    0.1724: real time    0.1728
    SETDIJ:  cpu time    0.0153: real time    0.0153
    EDDIAG:  cpu time    4.6769: real time    4.6881
  RMM-DIIS:  cpu time   16.6920: real time   16.7315
    ORTHCH:  cpu time    0.4377: real time    0.4388
       DOS:  cpu time    0.0011: real time    0.0011
    CHARGE:  cpu time    2.1019: real time    2.1070
    MIXING:  cpu time    0.0076: real time    0.0076
    --------------------------------------------
      LOOP:  cpu time   24.1050: real time   24.1622

 eigenvalue-minimisations  :  3879
 total energy-change (2. order) : 0.2805635E+02  (-0.6823079E+00)
 number of electron     800.0000000 magnetization 
 augmentation part      247.7810373 magnetization 

 Broyden mixing:
  rms(total) = 0.32512E+01    rms(broyden)= 0.32512E+01
  rms(prec ) = 0.46242E+01
  weight for this iteration     100.00

 eigenvalues of (default mixing * dielectric matrix)
  average eigenvalue GAMMA=   0.7126
  2.2697  0.9670  0.3634  0.3634  0.2278  0.0841

 Free energy of the ion-electron system (eV)
  ---------------------------------------------------
  alpha Z        PSCENC =      2809.97302481
  Ewald energy   TEWEN  =    169035.34144029
  -Hartree energ DENC   =   -232885.80061892
  -exchange      EXHF   =         0.00000000
  -V(xc)+E(xc)   XCENC  =       268.50607593
  PAW double counting   =     75087.17535410   -73086.93807276
  entropy T*S    EENTRO =        -0.18255703
  eigenvalues    EBANDS =       -31.18114224
  atomic energy  EATOM  =     58329.24398462
  Solvation  Ediel_sol  =         0.00000000
  ---------------------------------------------------
  free energy    TOTEN  =      -473.86251119 eV

  energy without entropy =     -473.67995416  energy(sigma->0) =     -473.80165884


--------------------------------------------------------------------------------------------------------




--------------------------------------- Iteration      1(  12)  ---------------------------------------


    POTLOK:  cpu time    0.1710: real time    0.1715
    SETDIJ:  cpu time    0.0193: real time    0.0193
    EDDIAG:  cpu time    4.7093: real time    4.7205
  RMM-DIIS:  cpu time   16.7178: real time   16.7574
    ORTHCH:  cpu time    0.4378: real time    0.4388
       DOS:  cpu time    0.0012: real time    0.0012
    CHARGE:  cpu time    2.1031: real time    2.1080
    MIXING:  cpu time    0.0079: real time    0.0080
    --------------------------------------------
      LOOP:  cpu time   24.1674: real time   24.2247

 eigenvalue-minimisations  :  3860
 total energy-change (2. order) : 0.8330562E+01  (-0.3941422E+00)
 number of electron     800.0000001 magnetization 
 augmentation part      247.4829636 magnetization 

 Broyden mixing:
  rms(total) = 0.18173E+01    rms(broyden)= 0.18173E+01
  rms(prec ) = 0.19630E+01
  weight for this iteration     100.00

 eigenvalues of (default mixing * dielectric matrix)
  average eigenvalue GAMMA=   0.6677
  2.2968  0.6413  0.6413  0.4016  0.4016  0.2104  0.0812

 Free energy of the ion-electron system (eV)
  ---------------------------------------------------
  alpha Z        PSCENC =      2809.97302481
  Ewald energy   TEWEN  =    169035.34144029
  -Hartree energ DENC   =   -232962.90143923
  -exchange      EXHF   =         0.00000000
  -V(xc)+E(xc)   XCENC  =       268.13499373
  PAW double counting   =     75712.49415872   -73718.48238363
  entropy T*S    EENTRO =        -0.00840568
  eigenvalues    EBANDS =        60.67267748
  atomic energy  EATOM  =     58329.24398462
  Solvation  Ediel_sol  =         0.00000000
  ---------------------------------------------------
  free energy    TOTEN  =      -465.53194887 eV

  energy without entropy =     -465.52354319  energy(sigma->0) =     -465.52914698


--------------------------------------------------------------------------------------------------------




--------------------------------------- Iteration      1(  13)  ---------------------------------------


    POTLOK:  cpu time    0.1663: real time    0.1667
    SETDIJ:  cpu time    0.0154: real time    0.0154
    EDDIAG:  cpu time    4.6952: real time    4.7063
  RMM-DIIS:  cpu time   16.7975: real time   16.8401
    ORTHCH:  cpu time    0.4414: real time    0.4428
       DOS:  cpu time    0.0011: real time    0.0011
    CHARGE:  cpu time    2.0646: real time    2.0716
    MIXING:  cpu time    0.0076: real time    0.0076
    --------------------------------------------
      LOOP:  cpu time   24.1890: real time   24.2516

 eigenvalue-minimisations  :  3891
 total energy-change (2. order) : 0.1225071E+01  (-0.2041832E+00)
 number of electron     800.0000001 magnetization 
 augmentation part      247.1199827 magnetization 

 Broyden mixing:
  rms(total) = 0.11847E+01    rms(broyden)= 0.11847E+01
  rms(prec ) = 0.14128E+01
  weight for this iteration     100.00

 eigenvalues of (default mixing * dielectric matrix)
  average eigenvalue GAMMA=   0.6668
  2.2481  0.8524  0.5674  0.5674  0.4000  0.4000  0.2175  0.0816

 Free energy of the ion-electron system (eV)
  ---------------------------------------------------
  alpha Z        PSCENC =      2809.97302481
  Ewald energy   TEWEN  =    169035.34144029
  -Hartree energ DENC   =   -232996.43654910
  -exchange      EXHF   =         0.00000000
  -V(xc)+E(xc)   XCENC  =       267.96444237
  PAW double counting   =     75723.16045703   -73729.65660693
  entropy T*S    EENTRO =        -0.10520103
  eigenvalues    EBANDS =        96.20813040
  atomic energy  EATOM  =     58329.24398462
  Solvation  Ediel_sol  =         0.00000000
  ---------------------------------------------------
  free energy    TOTEN  =      -464.30687754 eV

  energy without entropy =     -464.20167651  energy(sigma->0) =     -464.27181053


--------------------------------------------------------------------------------------------------------




--------------------------------------- Iteration      1(  14)  ---------------------------------------


    POTLOK:  cpu time    0.1662: real time    0.1666
    SETDIJ:  cpu time    0.0151: real time    0.0152
    EDDIAG:  cpu time    4.6698: real time    4.6859
  RMM-DIIS:  cpu time   16.7118: real time   16.7616
    ORTHCH:  cpu time    0.4386: real time    0.4397
       DOS:  cpu time    0.0011: real time    0.0011
    CHARGE:  cpu time    2.1265: real time    2.1316
    MIXING:  cpu time    0.0082: real time    0.0082
    --------------------------------------------
      LOOP:  cpu time   24.1374: real time   24.2098

 eigenvalue-minimisations  :  3854
 total energy-change (2. order) : 0.3447025E-01  (-0.7930945E-01)
 number of electron     800.0000001 magnetization 
 augmentation part      247.0790662 magnetization 

 Broyden mixing:
  rms(total) = 0.12045E+01    rms(broyden)= 0.12045E+01
  rms(prec ) = 0.14354E+01
  weight for this iteration     100.00

 eigenvalues of (default mixing * dielectric matrix)
  average eigenvalue GAMMA=   0.6498
  2.1027  0.8952  0.8952  0.6462  0.3828  0.3828  0.2202  0.2412  0.0815

 Free energy of the ion-electron system (eV)
  ---------------------------------------------------
  alpha Z        PSCENC =      2809.97302481
  Ewald energy   TEWEN  =    169035.34144029
  -Hartree energ DENC   =   -232992.07129834
  -exchange      EXHF   =         0.00000000
  -V(xc)+E(xc)   XCENC  =       268.26825860
  PAW double counting   =     75643.74826921   -73648.76994110
  entropy T*S    EENTRO =        -0.14013461
  eigenvalues    EBANDS =        90.13398922
  atomic energy  EATOM  =     58329.24398462
  Solvation  Ediel_sol  =         0.00000000
  ---------------------------------------------------
  free energy    TOTEN  =      -464.27240728 eV

  energy without entropy =     -464.13227267  energy(sigma->0) =     -464.22569575


--------------------------------------------------------------------------------------------------------




--------------------------------------- Iteration      1(  15)  ---------------------------------------


    POTLOK:  cpu time    0.1721: real time    0.1725
    SETDIJ:  cpu time    0.0157: real time    0.0157
    EDDIAG:  cpu time    4.6798: real time    4.6909
  RMM-DIIS:  cpu time   16.7918: real time   16.8315
    ORTHCH:  cpu time    0.4367: real time    0.4378
       DOS:  cpu time    0.0011: real time    0.0011
    CHARGE:  cpu time    2.1116: real time    2.1166
    MIXING:  cpu time    0.0085: real time    0.0085
    --------------------------------------------
      LOOP:  cpu time   24.2173: real time   24.2746

 eigenvalue-minimisations  :  3881
 total energy-change (2. order) : 0.4484810E+00  (-0.3081977E-01)
 number of electron     800.0000000 magnetization 
 augmentation part      247.5114295 magnetization 

 Broyden mixing:
  rms(total) = 0.91660E+00    rms(broyden)= 0.91660E+00
  rms(prec ) = 0.10360E+01
  weight for this iteration     100.00

 eigenvalues of (default mixing * dielectric matrix)
  average eigenvalue GAMMA=   0.6579
  2.0877  1.0703  1.0703  0.7435  0.3768  0.3768  0.2168  0.2775  0.2775  0.0815

 Free energy of the ion-electron system (eV)
  ---------------------------------------------------
  alpha Z        PSCENC =      2809.97302481
  Ewald energy   TEWEN  =    169035.34144029
  -Hartree energ DENC   =   -232970.52071392
  -exchange      EXHF   =         0.00000000
  -V(xc)+E(xc)   XCENC  =       268.57307147
  PAW double counting   =     75354.22634311   -73356.01480481
  entropy T*S    EENTRO =        -0.04551836
  eigenvalues    EBANDS =        65.39924653
  atomic energy  EATOM  =     58329.24398462
  Solvation  Ediel_sol  =         0.00000000
  ---------------------------------------------------
  free energy    TOTEN  =      -463.82392626 eV

  energy without entropy =     -463.77840790  energy(sigma->0) =     -463.80875347


--------------------------------------------------------------------------------------------------------




--------------------------------------- Iteration      1(  16)  ---------------------------------------


    POTLOK:  cpu time    0.1725: real time    0.1729
    SETDIJ:  cpu time    0.0153: real time    0.0153
    EDDIAG:  cpu time    4.6763: real time    4.6874
  RMM-DIIS:  cpu time   16.7691: real time   16.8087
    ORTHCH:  cpu time    0.4992: real time    0.5004
       DOS:  cpu time    0.0011: real time    0.0011
    CHARGE:  cpu time    2.1491: real time    2.1542
    MIXING:  cpu time    0.0077: real time    0.0077
    --------------------------------------------
      LOOP:  cpu time   24.2903: real time   24.3478

 eigenvalue-minimisations  :  3861
 total energy-change (2. order) : 0.9015788E-01  (-0.2307644E-01)
 number of electron     800.0000000 magnetization 
 augmentation part      247.4272480 magnetization 

 Broyden mixing:
  rms(total) = 0.85228E+00    rms(broyden)= 0.85228E+00
  rms(prec ) = 0.96474E+00
  weight for this iteration     100.00

 eigenvalues of (default mixing * dielectric matrix)
  average eigenvalue GAMMA=   0.7277
  2.4465  1.2626  1.1540  1.1540  0.4158  0.4158  0.3409  0.3409  0.2170  0.0815
  0.1761

 Free energy of the ion-electron system (eV)
  ---------------------------------------------------
  alpha Z        PSCENC =      2809.97302481
  Ewald energy   TEWEN  =    169035.34144029
  -Hartree energ DENC   =   -232978.15033954
  -exchange      EXHF   =         0.00000000
  -V(xc)+E(xc)   XCENC  =       268.80220022
  PAW double counting   =     75326.77620267   -73327.46036126
  entropy T*S    EENTRO =        -0.02044679
  eigenvalues    EBANDS =        71.76052659
  atomic energy  EATOM  =     58329.24398462
  Solvation  Ediel_sol  =         0.00000000
  ---------------------------------------------------
  free energy    TOTEN  =      -463.73376838 eV

  energy without entropy =     -463.71332159  energy(sigma->0) =     -463.72695278


--------------------------------------------------------------------------------------------------------




--------------------------------------- Iteration      1(  17)  ---------------------------------------


    POTLOK:  cpu time    0.1751: real time    0.1755
    SETDIJ:  cpu time    0.0272: real time    0.0272
    EDDIAG:  cpu time    4.6840: real time    4.6952
  RMM-DIIS:  cpu time   16.7833: real time   16.8230
    ORTHCH:  cpu time    0.4410: real time    0.4420
       DOS:  cpu time    0.0011: real time    0.0011
    CHARGE:  cpu time    2.1429: real time    2.1479
    MIXING:  cpu time    0.0088: real time    0.0088
    --------------------------------------------
      LOOP:  cpu time   24.2632: real time   24.3207

 eigenvalue-minimisations  :  3860
 total energy-change (2. order) : 0.2111957E-02  (-0.3705936E-01)
 number of electron     800.0000001 magnetization 
 augmentation part      246.6741983 magnetization 

 Broyden mixing:
  rms(total) = 0.86341E+00    rms(broyden)= 0.86341E+00
  rms(prec ) = 0.10437E+01
  weight for this iteration     100.00

 eigenvalues of (default mixing * dielectric matrix)
  average eigenvalue GAMMA=   0.7002
  2.3900  1.2054  1.2054  1.1790  0.3953  0.3953  0.4391  0.4391  0.0815  0.2748
  0.2176  0.1799

 Free energy of the ion-electron system (eV)
  ---------------------------------------------------
  alpha Z        PSCENC =      2809.97302481
  Ewald energy   TEWEN  =    169035.34144029
  -Hartree energ DENC   =   -233031.00948203
  -exchange      EXHF   =         0.00000000
  -V(xc)+E(xc)   XCENC  =       269.13481195
  PAW double counting   =     75658.39982668   -73660.23157724
  entropy T*S    EENTRO =        -0.12266737
  eigenvalues    EBANDS =       125.53898186
  atomic energy  EATOM  =     58329.24398462
  Solvation  Ediel_sol  =         0.00000000
  ---------------------------------------------------
  free energy    TOTEN  =      -463.73165642 eV

  energy without entropy =     -463.60898905  energy(sigma->0) =     -463.69076730


--------------------------------------------------------------------------------------------------------




--------------------------------------- Iteration      1(  18)  ---------------------------------------


    POTLOK:  cpu time    0.1681: real time    0.1685
    SETDIJ:  cpu time    0.0153: real time    0.0153
    EDDIAG:  cpu time    4.6851: real time    4.6962
  RMM-DIIS:  cpu time   16.7948: real time   16.8345
    ORTHCH:  cpu time    0.4372: real time    0.4382
       DOS:  cpu time    0.0011: real time    0.0011
    CHARGE:  cpu time    2.1443: real time    2.1495
    MIXING:  cpu time    0.0087: real time    0.0087
    --------------------------------------------
      LOOP:  cpu time   24.2546: real time   24.3120

 eigenvalue-minimisations  :  3867
 total energy-change (2. order) : 0.2448745E+00  (-0.5923675E-02)
 number of electron     800.0000001 magnetization 
 augmentation part      246.7760520 magnetization 

 Broyden mixing:
  rms(total) = 0.56529E+00    rms(broyden)= 0.56529E+00
  rms(prec ) = 0.69199E+00
  weight for this iteration     100.00

 eigenvalues of (default mixing * dielectric matrix)
  average eigenvalue GAMMA=   0.6715
  2.3211  1.2393  1.2393  0.8445  0.8445  0.3987  0.3987  0.4347  0.2670  0.2670
  0.0815  0.2171  0.1757

 Free energy of the ion-electron system (eV)
  ---------------------------------------------------
  alpha Z        PSCENC =      2809.97302481
  Ewald energy   TEWEN  =    169035.34144029
  -Hartree energ DENC   =   -233029.29417077
  -exchange      EXHF   =         0.00000000
  -V(xc)+E(xc)   XCENC  =       269.20638462
  PAW double counting   =     75581.27873235   -73582.12196571
  entropy T*S    EENTRO =        -0.11835437
  eigenvalues    EBANDS =       123.00414224
  atomic energy  EATOM  =     58329.24398462
  Solvation  Ediel_sol  =         0.00000000
  ---------------------------------------------------
  free energy    TOTEN  =      -463.48678192 eV

  energy without entropy =     -463.36842754  energy(sigma->0) =     -463.44733046


--------------------------------------------------------------------------------------------------------




--------------------------------------- Iteration      1(  19)  ---------------------------------------


    POTLOK:  cpu time    0.1675: real time    0.1679
    SETDIJ:  cpu time    0.0151: real time    0.0151
    EDDIAG:  cpu time    4.6817: real time    4.6928
  RMM-DIIS:  cpu time   16.8922: real time   16.9321
    ORTHCH:  cpu time    0.4383: real time    0.4393
       DOS:  cpu time    0.0011: real time    0.0011
    CHARGE:  cpu time    2.1519: real time    2.1571
    MIXING:  cpu time    0.0091: real time    0.0091
    --------------------------------------------
      LOOP:  cpu time   24.3568: real time   24.4145

 eigenvalue-minimisations  :  3894
 total energy-change (2. order) : 0.1001029E+00  (-0.2082444E-02)
 number of electron     800.0000001 magnetization 
 augmentation part      246.8678892 magnetization 

 Broyden mixing:
  rms(total) = 0.38002E+00    rms(broyden)= 0.38002E+00
  rms(prec ) = 0.46167E+00
  weight for this iteration     100.00

 eigenvalues of (default mixing * dielectric matrix)
  average eigenvalue GAMMA=   0.7097
  2.1159  1.6382  1.6382  0.9640  0.9640  0.5055  0.4050  0.4050  0.3125  0.3125
  0.0815  0.2173  0.1767  0.1997

 Free energy of the ion-electron system (eV)
  ---------------------------------------------------
  alpha Z        PSCENC =      2809.97302481
  Ewald energy   TEWEN  =    169035.34144029
  -Hartree energ DENC   =   -233026.11441412
  -exchange      EXHF   =         0.00000000
  -V(xc)+E(xc)   XCENC  =       269.24599976
  PAW double counting   =     75520.82235296   -73520.98483527
  entropy T*S    EENTRO =        -0.10857299
  eigenvalues    EBANDS =       119.19434088
  atomic energy  EATOM  =     58329.24398462
  Solvation  Ediel_sol  =         0.00000000
  ---------------------------------------------------
  free energy    TOTEN  =      -463.38667904 eV

  energy without entropy =     -463.27810606  energy(sigma->0) =     -463.35048805


--------------------------------------------------------------------------------------------------------




--------------------------------------- Iteration      1(  20)  ---------------------------------------


    POTLOK:  cpu time    0.1707: real time    0.1711
    SETDIJ:  cpu time    0.0153: real time    0.0153
    EDDIAG:  cpu time    4.6778: real time    4.6889
  RMM-DIIS:  cpu time   16.7526: real time   16.7922
    ORTHCH:  cpu time    0.4386: real time    0.4396
       DOS:  cpu time    0.0011: real time    0.0011
    CHARGE:  cpu time    2.1431: real time    2.1482
    MIXING:  cpu time    0.0092: real time    0.0093
    --------------------------------------------
      LOOP:  cpu time   24.2085: real time   24.2656

 eigenvalue-minimisations  :  3873
 total energy-change (2. order) : 0.6490319E-01  (-0.3277598E-02)
 number of electron     800.0000001 magnetization 
 augmentation part      246.9765614 magnetization 

 Broyden mixing:
  rms(total) = 0.17285E+00    rms(broyden)= 0.17285E+00
  rms(prec ) = 0.20532E+00
  weight for this iteration     100.00

 eigenvalues of (default mixing * dielectric matrix)
  average eigenvalue GAMMA=   0.6991
  2.1254  1.7157  1.7157  0.9858  0.9858  0.5602  0.4081  0.4081  0.3241  0.3241
  0.0815  0.2883  0.2172  0.1776  0.1693

 Free energy of the ion-electron system (eV)
  ---------------------------------------------------
  alpha Z        PSCENC =      2809.97302481
  Ewald energy   TEWEN  =    169035.34144029
  -Hartree energ DENC   =   -233023.65485600
  -exchange      EXHF   =         0.00000000
  -V(xc)+E(xc)   XCENC  =       269.33786258
  PAW double counting   =     75443.44940502   -73442.57062253
  entropy T*S    EENTRO =        -0.09002542
  eigenvalues    EBANDS =       115.64801077
  atomic energy  EATOM  =     58329.24398462
  Solvation  Ediel_sol  =         0.00000000
  ---------------------------------------------------
  free energy    TOTEN  =      -463.32177585 eV

  energy without entropy =     -463.23175043  energy(sigma->0) =     -463.29176738


--------------------------------------------------------------------------------------------------------




--------------------------------------- Iteration      1(  21)  ---------------------------------------


    POTLOK:  cpu time    0.1716: real time    0.1720
    SETDIJ:  cpu time    0.0153: real time    0.0153
    EDDIAG:  cpu time    4.6776: real time    4.6886
  RMM-DIIS:  cpu time   16.7521: real time   16.7917
    ORTHCH:  cpu time    0.4918: real time    0.4930
       DOS:  cpu time    0.0011: real time    0.0011
    CHARGE:  cpu time    2.1503: real time    2.1554
    MIXING:  cpu time    0.0101: real time    0.0101
    --------------------------------------------
      LOOP:  cpu time   24.2699: real time   24.3272

 eigenvalue-minimisations  :  3881
 total energy-change (2. order) : 0.8540760E-02  (-0.9613709E-03)
 number of electron     800.0000001 magnetization 
 augmentation part      246.9625620 magnetization 

 Broyden mixing:
  rms(total) = 0.12806E+00    rms(broyden)= 0.12806E+00
  rms(prec ) = 0.16580E+00
  weight for this iteration     100.00

 eigenvalues of (default mixing * dielectric matrix)
  average eigenvalue GAMMA=   0.6825
  2.2154  1.6673  1.6673  1.0022  1.0022  0.5149  0.5149  0.4023  0.4023  0.3258
  0.3258  0.0815  0.2177  0.2364  0.1775  0.1660

 Free energy of the ion-electron system (eV)
  ---------------------------------------------------
  alpha Z        PSCENC =      2809.97302481
  Ewald energy   TEWEN  =    169035.34144029
  -Hartree energ DENC   =   -233026.34972783
  -exchange      EXHF   =         0.00000000
  -V(xc)+E(xc)   XCENC  =       269.39090091
  PAW double counting   =     75449.21945238   -73448.16534500
  entropy T*S    EENTRO =        -0.09267875
  eigenvalues    EBANDS =       118.12571347
  atomic energy  EATOM  =     58329.24398462
  Solvation  Ediel_sol  =         0.00000000
  ---------------------------------------------------
  free energy    TOTEN  =      -463.31323509 eV

  energy without entropy =     -463.22055634  energy(sigma->0) =     -463.28234218


--------------------------------------------------------------------------------------------------------




--------------------------------------- Iteration      1(  22)  ---------------------------------------


    POTLOK:  cpu time    0.1719: real time    0.1724
    SETDIJ:  cpu time    0.0153: real time    0.0154
    EDDIAG:  cpu time    4.6810: real time    4.6921
  RMM-DIIS:  cpu time   16.8600: real time   16.8998
    ORTHCH:  cpu time    0.4379: real time    0.4390
       DOS:  cpu time    0.0011: real time    0.0011
    CHARGE:  cpu time    2.1495: real time    2.1546
    MIXING:  cpu time    0.0089: real time    0.0090
    --------------------------------------------
      LOOP:  cpu time   24.3257: real time   24.3833

 eigenvalue-minimisations  :  3889
 total energy-change (2. order) : 0.9235942E-03  (-0.2170855E-03)
 number of electron     800.0000001 magnetization 
 augmentation part      246.9458397 magnetization 

 Broyden mixing:
  rms(total) = 0.12423E+00    rms(broyden)= 0.12423E+00
  rms(prec ) = 0.16501E+00
  weight for this iteration     100.00

 eigenvalues of (default mixing * dielectric matrix)
  average eigenvalue GAMMA=   0.7293
  2.5179  1.5273  1.5273  1.2635  1.0465  1.0465  0.8655  0.4020  0.4020  0.3146
  0.3146  0.0815  0.3050  0.2171  0.2254  0.1774  0.1640

 Free energy of the ion-electron system (eV)
  ---------------------------------------------------
  alpha Z        PSCENC =      2809.97302481
  Ewald energy   TEWEN  =    169035.34144029
  -Hartree energ DENC   =   -233028.22687343
  -exchange      EXHF   =         0.00000000
  -V(xc)+E(xc)   XCENC  =       269.41732353
  PAW double counting   =     75460.41843028   -73459.35561462
  entropy T*S    EENTRO =        -0.09353619
  eigenvalues    EBANDS =       119.96950921
  atomic energy  EATOM  =     58329.24398462
  Solvation  Ediel_sol  =         0.00000000
  ---------------------------------------------------
  free energy    TOTEN  =      -463.31231150 eV

  energy without entropy =     -463.21877531  energy(sigma->0) =     -463.28113277


--------------------------------------------------------------------------------------------------------




--------------------------------------- Iteration      1(  23)  ---------------------------------------


    POTLOK:  cpu time    0.1726: real time    0.1730
[...]

  length of vectors
    10.659999999 10.659999847 22.000000000     0.108320876  0.108320878  0.045454545


 FORCES acting on ions
    electron-ion (+dipol)            ewald-force                    non-local-force                 convergence-correction
 -----------------------------------------------------------------------------------------------
   -.458E-01 0.133E-01 -.136E+04   0.488E-01 -.172E-01 0.136E+04   0.617E-02 -.708E-02 0.477E+00   -.849E-02 0.596E-02 -.121E+00
   0.896E-01 -.910E-01 -.136E+04   -.103E+00 0.100E+00 0.136E+04   0.221E-03 -.112E-01 0.473E+00   0.777E-02 -.141E-04 -.128E+00
   0.381E+00 -.528E+00 -.136E+04   -.390E+00 0.534E+00 0.136E+04   -.104E-01 0.166E-01 0.462E+00   0.467E-02 -.601E-02 -.122E+00
   -.329E+00 0.976E+00 0.268E+04   0.346E+00 -.967E+00 -.268E+04   -.332E-02 -.198E-01 -.257E+00   -.222E-02 -.524E-02 0.114E-01
   -.405E-01 0.372E+00 0.268E+04   0.508E-01 -.375E+00 -.268E+04   -.241E-01 0.285E-01 -.257E+00   0.362E-02 -.970E-02 0.159E-01
   -.256E+00 0.600E+00 0.268E+04   0.255E+00 -.611E+00 -.268E+04   -.698E-02 0.979E-02 -.261E+00   0.468E-02 0.733E-02 0.166E-01
   0.599E+00 0.112E-02 0.136E+04   -.583E+00 -.833E-02 -.136E+04   -.172E-01 -.259E-02 -.475E+00   -.104E-01 0.138E-02 0.786E-01
   0.342E+00 -.909E-01 0.136E+04   -.336E+00 0.872E-01 -.136E+04   -.806E-02 0.938E-03 -.478E+00   -.333E-02 0.775E-03 0.755E-01
   0.114E+00 -.831E-01 -.136E+04   -.132E+00 0.964E-01 0.136E+04   0.823E-02 0.216E-03 0.461E+00   0.632E-02 -.845E-02 -.121E+00
   -.779E-01 -.418E+00 0.268E+04   0.907E-01 0.401E+00 -.268E+04   -.349E-01 0.192E-01 -.258E+00   0.255E-02 0.586E-02 0.129E-01
   -.706E+00 -.187E+00 0.136E+04   0.710E+00 0.187E+00 -.136E+04   0.160E-01 0.830E-02 -.461E+00   0.203E-02 -.739E-02 0.787E-01
   -.290E+00 -.709E-01 -.123E+01   0.278E+00 0.772E-01 0.120E+01   0.311E-02 0.626E-02 -.763E-02   0.127E-01 -.657E-02 0.317E-01
   -.385E+00 0.233E+00 -.136E+04   0.376E+00 -.221E+00 0.136E+04   0.991E-02 -.700E-02 0.473E+00   0.646E-02 -.334E-02 -.120E+00
   -.181E-01 0.239E+00 -.136E+04   0.108E-01 -.239E+00 0.136E+04   0.435E-02 -.113E-01 0.480E+00   -.471E-02 0.445E-02 -.101E+00
   -.393E+00 0.612E+00 -.136E+04   0.381E+00 -.597E+00 0.136E+04   0.128E-01 -.224E-01 0.462E+00   0.463E-02 -.979E-02 -.119E+00
   -.560E+00 -.114E+00 0.268E+04   0.567E+00 0.110E+00 -.268E+04   0.159E-01 -.413E-02 -.258E+00   0.285E-02 -.101E-01 0.150E-01
   0.132E+01 -.271E+00 0.268E+04   -.129E+01 0.247E+00 -.268E+04   -.480E-01 0.205E-01 -.257E+00   -.368E-02 0.843E-02 0.101E-01
   0.155E-01 -.549E+00 0.268E+04   0.129E-02 0.518E+00 -.268E+04   -.829E-02 0.298E-01 -.261E+00   0.477E-02 0.675E-02 0.177E-01
   -.264E+00 -.593E-01 0.136E+04   0.276E+00 0.559E-01 -.136E+04   0.110E-01 -.192E-02 -.478E+00   -.390E-02 0.182E-02 0.729E-01
   -.603E+00 0.182E-01 0.153E+01   0.612E+00 -.260E-01 -.158E+01   0.182E-02 -.167E-02 0.830E-02   0.385E-03 0.929E-02 0.351E-01
   -.414E-01 0.557E-01 0.136E+04   0.358E-01 -.540E-01 -.136E+04   -.692E-02 0.253E-03 -.472E+00   0.948E-02 0.133E-02 0.693E-01
   0.226E+00 -.361E+00 0.136E+04   -.211E+00 0.350E+00 -.136E+04   -.963E-02 0.133E-01 -.479E+00   -.105E-01 0.677E-02 0.688E-01
   0.815E-01 0.406E-01 -.136E+04   -.954E-01 -.383E-01 0.136E+04   -.737E-02 -.519E-02 0.478E+00   0.852E-02 0.198E-02 -.114E+00
   -.218E+00 0.483E+00 0.268E+04   0.231E+00 -.479E+00 -.268E+04   0.218E-03 -.499E-02 -.262E+00   0.161E-02 -.102E-01 0.146E-01
   0.323E-01 0.115E+00 0.136E+04   -.178E-01 -.130E+00 -.136E+04   -.822E-02 0.654E-03 -.480E+00   -.420E-02 0.681E-02 0.629E-01
   0.166E+00 0.467E-01 -.665E+00   -.176E+00 -.442E-01 0.631E+00   0.474E-03 -.135E-01 -.168E-02   0.365E-02 0.269E-02 0.358E-01
   0.140E+00 -.874E+00 -.268E+04   -.148E+00 0.878E+00 0.268E+04   0.209E-01 0.123E-01 0.255E+00   -.649E-02 -.428E-03 -.763E-01
   -.115E+00 -.554E+00 -.268E+04   0.911E-01 0.561E+00 0.268E+04   0.275E-01 0.113E-01 0.256E+00   0.104E-01 -.794E-02 -.740E-01
   0.556E+00 -.128E+00 -.268E+04   -.580E+00 0.151E+00 0.268E+04   -.662E-02 -.106E-01 0.253E+00   0.211E-01 -.102E-01 -.770E-01
   0.100E+01 -.804E+00 -.268E+04   -.100E+01 0.805E+00 0.268E+04   0.181E-02 0.448E-02 0.254E+00   -.647E-02 0.808E-02 -.737E-01
   -.119E+00 -.833E-01 -.268E+04   0.106E+00 0.994E-01 0.268E+04   -.486E-02 0.143E-01 0.250E+00   0.682E-02 -.793E-02 -.774E-01
   0.927E+00 0.505E+00 -.268E+04   -.932E+00 -.511E+00 0.268E+04   -.320E-02 -.944E-02 0.255E+00   -.107E-02 0.118E-01 -.772E-01
   0.830E-01 0.954E+00 -.268E+04   -.108E+00 -.940E+00 0.268E+04   0.230E-01 -.190E-01 0.251E+00   0.159E-01 -.418E-02 -.782E-01
   -.690E+00 0.346E+00 -.268E+04   0.692E+00 -.339E+00 0.268E+04   0.250E-01 -.844E-02 0.251E+00   -.215E-01 0.219E-02 -.773E-01
   0.137E+01 -.807E+00 -.268E+04   -.135E+01 0.812E+00 0.268E+04   -.326E-01 -.173E-02 0.252E+00   -.120E-01 -.446E-02 -.728E-01
   -.201E+00 0.145E+01 -.268E+04   0.185E+00 -.143E+01 0.268E+04   -.178E-02 -.390E-01 0.256E+00   0.154E-02 -.223E-02 -.782E-01
   -.687E+00 0.201E+00 -.268E+04   0.647E+00 -.190E+00 0.268E+04   0.324E-01 -.152E-01 0.252E+00   0.122E-01 -.595E-02 -.730E-01
   -.372E+00 -.982E-01 -.268E+04   0.374E+00 0.898E-01 0.268E+04   0.662E-02 0.436E-03 0.252E+00   -.108E-01 0.167E-01 -.740E-01
   -.301E+00 -.408E+00 -.268E+04   0.273E+00 0.429E+00 0.268E+04   0.226E-01 -.220E-01 0.251E+00   0.158E-01 -.141E-01 -.731E-01
   -.100E+01 0.968E+00 -.268E+04   0.100E+01 -.971E+00 0.268E+04   0.203E-01 -.160E-01 0.251E+00   -.163E-01 0.142E-01 -.781E-01
   -.466E-01 0.149E-01 -.136E+04   0.519E-01 -.101E-01 0.136E+04   -.874E-02 -.703E-03 0.475E+00   -.741E-02 0.176E-03 -.111E+00
   0.103E+01 -.904E+00 0.268E+04   -.101E+01 0.882E+00 -.268E+04   -.167E-01 0.140E-01 -.258E+00   -.239E-02 0.988E-02 0.124E-01
   0.547E-01 0.135E+00 -.136E+04   -.548E-01 -.128E+00 0.136E+04   -.260E-02 -.693E-02 0.470E+00   -.104E-01 0.423E-02 -.119E+00
   0.145E+01 -.937E+00 0.268E+04   -.142E+01 0.921E+00 -.268E+04   -.453E-01 0.281E-01 -.257E+00   -.155E-02 -.562E-02 0.133E-01
   -.240E+00 0.176E+00 0.136E+04   0.241E+00 -.187E+00 -.136E+04   -.354E-02 0.188E-02 -.475E+00   0.690E-02 0.350E-02 0.732E-01
   0.235E+00 0.152E+00 0.136E+04   -.238E+00 -.159E+00 -.136E+04   -.173E-01 -.539E-02 -.479E+00   0.115E-01 0.306E-02 0.817E-01
   0.263E+00 0.211E+00 -.136E+04   -.276E+00 -.205E+00 0.136E+04   -.344E-02 -.670E-02 0.463E+00   0.970E-02 -.196E-02 -.127E+00
   -.423E+00 -.176E+00 0.268E+04   0.427E+00 0.178E+00 -.268E+04   -.155E-01 0.112E-01 -.256E+00   0.211E-02 -.109E-01 0.119E-01
   -.437E+00 0.363E-01 0.136E+04   0.436E+00 -.289E-01 -.136E+04   0.134E-01 0.249E-02 -.472E+00   0.321E-02 -.118E-01 0.783E-01
   -.728E+00 -.578E+00 -.268E+04   0.706E+00 0.581E+00 0.268E+04   0.482E-02 0.223E-01 0.253E+00   0.688E-02 0.284E-03 -.738E-01
   0.104E+00 -.113E-01 -.101E+01   -.937E-01 0.126E-01 0.987E+00   -.247E-02 0.253E-02 -.735E-02   -.131E-01 -.102E-02 0.337E-01
   -.585E+00 0.338E+00 -.268E+04   0.587E+00 -.334E+00 0.268E+04   0.227E-01 -.206E-01 0.250E+00   -.160E-01 0.417E-02 -.735E-01
   -.234E-01 -.387E+00 0.136E+04   0.343E-01 0.373E+00 -.136E+04   -.322E-03 0.167E-01 -.481E+00   -.131E-02 0.286E-02 0.858E-01
   0.182E+00 -.146E+00 0.136E+04   -.191E+00 0.151E+00 -.136E+04   -.577E-02 -.178E-02 -.482E+00   0.969E-02 -.584E-02 0.858E-01
   0.447E+00 0.172E+00 0.386E-01   -.459E+00 -.169E+00 -.700E-01   -.211E-01 -.754E-02 0.100E-03   0.973E-02 -.906E-03 0.271E-01
   -.621E-02 -.417E-01 -.136E+04   0.121E-01 0.447E-01 0.136E+04   -.864E-03 -.838E-02 0.476E+00   -.673E-02 0.212E-02 -.109E+00
   -.513E+00 -.118E+00 -.136E+04   0.496E+00 0.125E+00 0.136E+04   0.197E-01 0.326E-02 0.470E+00   0.683E-02 -.409E-02 -.113E+00
   -.620E+00 0.517E+00 0.268E+04   0.640E+00 -.539E+00 -.268E+04   -.599E-02 0.110E-01 -.260E+00   -.420E-02 0.978E-02 0.893E-02
   -.152E+00 0.575E+00 0.268E+04   0.162E+00 -.588E+00 -.268E+04   0.497E-02 -.877E-03 -.259E+00   0.323E-02 0.635E-02 0.175E-01
   0.515E+00 0.150E+00 0.136E+04   -.496E+00 -.154E+00 -.136E+04   -.196E-01 -.375E-02 -.484E+00   -.104E-01 0.337E-02 0.674E-01
   -.137E-01 -.199E+00 0.136E+04   0.303E-01 0.188E+00 -.136E+04   0.203E-02 0.750E-02 -.485E+00   -.785E-02 0.619E-02 0.775E-01
   -.195E+00 -.182E+00 -.323E+01   0.184E+00 0.195E+00 0.322E+01   0.100E-01 -.141E-02 -.171E-01   0.700E-02 -.628E-02 0.345E-01
   0.164E+00 -.604E-02 -.136E+04   -.166E+00 0.121E-01 0.136E+04   0.249E-02 -.318E-02 0.467E+00   -.351E-02 0.128E-02 -.114E+00
   -.663E+00 -.456E+00 0.268E+04   0.678E+00 0.424E+00 -.268E+04   0.771E-03 0.258E-01 -.261E+00   -.488E-02 0.983E-02 0.705E-02
   -.180E+00 -.325E+00 0.111E+01   0.171E+00 0.336E+00 -.116E+01   0.534E-02 0.631E-02 0.482E-02   0.721E-02 -.575E-02 0.347E-01
   0.417E+00 -.185E+00 0.433E+00   -.415E+00 0.177E+00 -.476E+00   -.151E-01 0.411E-03 0.335E-02   -.759E-02 0.121E-01 0.364E-01
   -.212E+00 0.469E+00 0.203E+00   0.215E+00 -.474E+00 -.243E+00   -.500E-02 -.593E-02 -.116E-02   -.143E-02 -.109E-02 0.378E-01
   -.212E+00 -.162E+00 -.115E+01   0.211E+00 0.164E+00 0.113E+01   0.951E-02 -.100E-02 -.893E-02   -.249E-02 0.279E-02 0.273E-01
   -.232E-01 -.235E+00 -.491E+00   0.264E-01 0.233E+00 0.453E+00   -.219E-02 -.769E-02 -.302E-02   -.540E-02 0.120E-01 0.389E-01
   -.295E+00 0.111E+00 0.136E+04   0.294E+00 -.112E+00 -.136E+04   0.817E-02 0.534E-02 -.478E+00   0.513E-02 -.248E-02 0.745E-01
   -.137E+00 0.229E+00 0.204E+01   0.142E+00 -.231E+00 -.210E+01   0.195E-02 -.118E-01 0.927E-02   -.545E-02 0.482E-02 0.369E-01
   -.396E-01 0.731E-01 -.136E+04   0.400E-01 -.743E-01 0.136E+04   0.214E-02 -.385E-02 0.471E+00   -.569E-02 0.474E-02 -.125E+00
   -.194E+00 -.162E+00 -.136E+04   0.197E+00 0.159E+00 0.136E+04   0.187E-02 0.105E-02 0.481E+00   -.775E-02 0.867E-02 -.108E+00
   -.157E+00 -.125E-01 0.268E+04   0.181E+00 0.541E-02 -.268E+04   -.170E-01 0.749E-02 -.259E+00   -.335E-02 -.591E-02 0.941E-02
   0.862E+00 -.626E+00 0.268E+04   -.840E+00 0.618E+00 -.268E+04   -.232E-01 0.300E-01 -.257E+00   -.297E-02 -.658E-02 0.112E-01
   0.372E+00 0.217E+00 -.285E+01   -.379E+00 -.214E+00 0.284E+01   -.141E-01 -.568E-02 -.145E-01   0.184E-02 -.500E-02 0.260E-01
   0.119E+00 0.875E-01 -.576E+00   -.137E+00 -.773E-01 0.538E+00   -.384E-02 -.193E-02 -.464E-02   0.112E-01 -.104E-01 0.388E-01
   0.366E+00 0.319E+00 0.136E+04   -.365E+00 -.312E+00 -.136E+04   -.157E-01 -.656E-02 -.470E+00   0.400E-02 -.104E-01 0.751E-01
   -.465E+00 0.140E+00 0.143E+01   0.474E+00 -.138E+00 -.149E+01   0.107E-01 0.646E-03 0.144E-01   -.729E-02 -.507E-02 0.400E-01
   0.282E+00 0.547E-01 -.140E+01   -.277E+00 -.513E-01 0.137E+01   -.515E-02 -.383E-02 -.360E-02   -.109E-01 -.172E-02 0.363E-01
 -----------------------------------------------------------------------------------------------
   0.341E-01 -.198E-01 0.111E+01   -.618E-12 0.340E-12 0.473E-11   -.122E+00 0.253E-01 -.213E+00   0.341E-03 -.280E-03 -.112E+01
 
 
 POSITION                                       TOTAL-FORCE (eV/Angst)
 -----------------------------------------------------------------------------------
     12.99517      8.02764      7.34885         0.002344     -0.005286      0.017294
      5.00058      8.02759      7.35220        -0.004055     -0.001482      0.022325
      3.66804      5.71839      7.35590        -0.013662      0.016427      0.017242
     13.01699      8.01154      0.20256         0.011912     -0.015784      0.000814
      5.02298      8.00900      0.20656        -0.009017      0.015144     -0.005302
      3.68983      5.70195      0.21045        -0.001728      0.006433     -0.008527
      7.68057      1.86158      2.61765        -0.010201     -0.008498     -0.025211
      9.01270      8.78497      2.62059        -0.005318     -0.001173     -0.023339
      2.33434      3.41147      7.35719        -0.002005      0.004525      0.019880
      2.35894      3.39386      0.21148        -0.018377      0.007640     -0.007319
     10.34414      1.86096      2.61700         0.022435      0.001551     -0.016410
     13.00127      4.94481      4.98834         0.005136      0.005357      0.002569
      3.66735      1.10377      7.35576         0.008056      0.002117      0.027153
      8.99742      5.72012      7.35180        -0.006200     -0.008030      0.025401
      4.99929      3.41253      7.35954         0.005758     -0.016991      0.021261
      3.68867      1.08692      0.21030         0.025950     -0.017273     -0.006961
      9.02153      5.70186      0.20679        -0.020467      0.004756     -0.001708
      5.02250      3.39313      0.21271         0.013708      0.006031     -0.007673
     11.67678      8.78525      2.61762         0.020825     -0.003063     -0.026611
     11.66923      7.25323      4.98290         0.012971     -0.000307     -0.002049
     13.01078      6.47742      2.61939        -0.001800      0.003312     -0.019755
      9.01343      4.16895      2.61982        -0.003178      0.007779     -0.024825
      7.66602      8.02735      7.35272        -0.012164     -0.000580      0.021438
      7.68689      8.01068      0.20712         0.014673     -0.009929     -0.003077
     10.34594      6.47730      2.61897         0.003230     -0.007340     -0.024910
      2.34139      0.32926      4.98724        -0.005685     -0.007679      0.002026
     14.32286      8.79870      9.76337         0.007626      0.016067      0.006198
      3.66206      4.18256      9.77400         0.014343      0.009695      0.007907
      6.32949      8.79941      9.76705        -0.008276      0.001797      0.004508
     11.65820      4.18323      9.76821        -0.004816      0.013227      0.005278
      8.99462      8.79809      9.76799        -0.009982      0.022234      0.001079
     10.32625      1.87533      9.76485        -0.008459     -0.003996      0.006335
      2.33018      1.87554      9.76984         0.014912     -0.010197      0.006148
     11.65797      8.79930      9.76425         0.007026      0.001296      0.004254
     12.99268      6.49128      9.76602        -0.025400     -0.001186      0.004136
      4.99648      1.87649      9.77186        -0.014121     -0.015199      0.001726
      7.65976      6.49160      9.76893         0.005061     -0.010142      0.000464
      8.99351      4.18327      9.76687        -0.000552      0.008060      0.001401
      4.99527      6.49204      9.76967         0.012055     -0.014497      0.004236
      7.66078      1.87564      9.76374         0.008908     -0.005048      0.006988
      7.66539      3.41176      7.35247        -0.009222      0.003534      0.021113
      7.68752      3.39475      0.20640         0.000276      0.002298     -0.001964
      6.33257      1.10398      7.35207        -0.011478      0.004596      0.017140
      6.35605      1.08575      0.20493        -0.014552      0.006668     -0.000979
     11.67800      4.16933      2.62083         0.005437     -0.006334     -0.020447
      3.68403      4.16936      2.62545        -0.008244     -0.009315     -0.015205
      1.00285      1.10354      7.35295        -0.005437     -0.002463      0.015997
      1.02537      1.08636      0.20632        -0.008313      0.002358     -0.003334
      6.34686      8.78490      2.62017         0.016399     -0.001097     -0.017873
      6.32879      4.18205      9.77255        -0.008516      0.025528      0.001669
      7.67196      4.94528      4.98784        -0.004469      0.002143      0.002183
     10.32542      6.49198      9.76496         0.010065     -0.012683      0.001938
      5.01497      1.86032      2.62358         0.010121      0.005176     -0.020602
      2.35015      1.86129      2.62373        -0.004686     -0.002030     -0.021245
     14.33514      7.25307      4.98576        -0.022107     -0.005562     -0.001458
     11.66268      5.71990      7.35154         0.000245     -0.003911      0.024169
      6.33195      5.71906      7.35658         0.010227      0.006252      0.027405
     11.68508      5.70209      0.20591         0.010496     -0.001116     -0.004133
      6.35421      5.70254      0.21091         0.018681     -0.008046     -0.002626
      7.68150      6.47750      2.62192        -0.009965     -0.004733     -0.023920
      6.34811      4.16888      2.62415         0.010965      0.001753     -0.024289
      3.67312      2.63720      4.99202         0.006461      0.004814      0.005656
     10.32969      3.41176      7.35199        -0.001948      0.003297      0.013712
     10.35232      3.39382      0.20473         0.012298      0.003856     -0.004644
     10.33605      0.32852      4.98366         0.004217      0.010757     -0.001434
      9.00519      7.25299      4.98500        -0.019852      0.004613     -0.000038
     10.33653      4.94567      4.98539        -0.001893     -0.012857     -0.000815
      6.33942      7.25259      4.98834         0.006031      0.004271     -0.001198
      5.00614      0.32945      4.98654        -0.002829      0.002632      0.001314
      5.01519      6.47693      2.62313         0.012227      0.002285     -0.019917
      7.67079      0.32976      4.98188         0.003384     -0.008775     -0.002475
      8.99771      1.10361      7.34865        -0.001566     -0.000795      0.016459
     10.33048      8.02732      7.34997        -0.001878      0.007337      0.022126
      9.02032      1.08655      0.20166         0.004587     -0.005338     -0.004415
     10.35256      8.00941      0.20403        -0.003396      0.015669     -0.002004
      5.00752      4.94509      4.99134        -0.018402     -0.007773      0.006355
     11.66816      2.63710      4.98721        -0.008875     -0.002461     -0.000700
     14.34290      8.78548      2.61683        -0.009689     -0.009410     -0.024891
      9.00293      2.63729      4.98257         0.013784     -0.002462      0.003355
      6.33856      2.63744      4.98822        -0.010050     -0.002445      0.005634
 -----------------------------------------------------------------------------------
    total drift:                               -0.087782      0.005236     -0.221984


--------------------------------------------------------------------------------------------------------



  FREE ENERGIE OF THE ION-ELECTRON SYSTEM (eV)
  ---------------------------------------------------
  free  energy   TOTEN  =      -514.31349193 eV

  energy  without entropy=     -514.23564805  energy(sigma->0) =     -514.28754397
 


--------------------------------------------------------------------------------------------------------


    POTLOK:  cpu time    0.1976: real time    0.1981


--------------------------------------------------------------------------------------------------------




--------------------------------------------------------------------------------------------------------


  
 reached required accuracy - stopping structural energy minimisation
     LOOP+:  cpu time  842.6688: real time  844.8182
    4ORBIT:  cpu time    0.0000: real time    0.0000

 total amount of memory used by VASP MPI-rank0   159676. kBytes
=======================================================================

   base      :      30000. kBytes
   nonlr-proj:      36027. kBytes
   fftplans  :      17966. kBytes
   grid      :      25483. kBytes
   one-center:        311. kBytes
   wavefun   :      49889. kBytes
 
  
  
 General timing and accounting informations for this job:
 ========================================================
  
                  Total CPU time used (sec):      853.431
                            User time (sec):      849.654
                          System time (sec):        3.777
                         Elapsed time (sec):      856.300
  
                   Maximum memory used (kb):      533596.
                   Average memory used (kb):           0.
  
                          Minor page faults:       394146
                          Major page faults:            0
                 Voluntary context switches:         5332
