 vasp.5.4.4.18Apr17-6-g9f103f2a35 (build Nov 30 2020 22:55:02) complex          
  
 executed on             LinuxIFC date 2023.09.07  19:59:22
 running on   40 total cores
 distrk:  each k-point on   40 cores,    1 groups
 distr:  one band on NCORES_PER_BAND=   4 cores,   10 groups


--------------------------------------------------------------------------------------------------------


 INCAR:
 POTCAR:    PAW_PBE Pt 04Feb2005                  
 POTCAR:    PAW_PBE H 15Jun2001                   
 POTCAR:    PAW_PBE Pt 04Feb2005                  
   VRHFIN =Pt: s1d9                                                             
   LEXCH  = PE                                                                  
   EATOM  =   729.1176 eV,   53.5886 Ry                                         
                                                                                
   TITEL  = PAW_PBE Pt 04Feb2005                                                
   LULTRA =        F    use ultrasoft PP ?                                      
   IUNSCR =        1    unscreen: 0-lin 1-nonlin 2-no                           
   RPACOR =    2.330    partial core radius                                     
   POMASS =  195.080; ZVAL   =   10.000    mass and valenz                      
   RCORE  =    2.600    outmost cutoff radius                                   
   RWIGS  =    2.750; RWIGS  =    1.455    wigner-seitz radius (au A)           
   ENMAX  =  230.283; ENMIN  =  172.712 eV                                      
   ICORE  =        3    local potential                                         
   LCOR   =        T    correct aug charges                                     
   LPAW   =        T    paw PP                                                  
   EAUG   =  358.966                                                            
   DEXC   =    0.000                                                            
   RMAX   =    2.658    core radius for proj-oper                               
   RAUG   =    1.300    factor for augmentation sphere                          
   RDEP   =    2.761    radius for radial grids                                 
   RDEPT  =    2.203    core radius for aug-charge                              
                                                                                
   Atomic configuration                                                         
   16 entries                                                                   
     n  l   j            E        occ.                                          
     1  0  0.50    -78401.1885   2.0000                                         
     2  0  0.50    -13770.7750   2.0000                                         
     2  1  1.50    -11931.0468   6.0000                                         
     3  0  0.50     -3234.7234   2.0000                                         
     3  1  1.50     -2699.2216   6.0000                                         
     3  2  2.50     -2119.5714  10.0000                                         
     4  0  0.50      -695.1528   2.0000                                         
     4  1  1.50      -519.6034   6.0000                                         
     4  2  2.50      -306.6786  10.0000                                         
     4  3  3.50       -70.1041  14.0000                                         
     5  0  0.50      -101.7747   2.0000                                         
     5  1  1.50       -55.9873   6.0000                                         
     5  2  2.50        -6.1423   9.0000                                         
     6  0  0.50        -5.6573   1.0000                                         
     6  1  1.50        -6.8029   0.0000                                         
     5  3  2.50        -1.3606   0.0000                                         
   Description                                                                  
     l       E           TYP  RCUT    TYP  RCUT                                 
     2     -6.1423404     23  2.500                                             
     2     -7.5029230     23  2.500                                             
     0     -5.6573207     23  2.500                                             
     0      0.7416693     23  2.500                                             
     1     -2.7211652     23  2.600                                             
     1     20.4087390     23  2.600                                             
     3     -1.3605826     23  2.500                                             
  local pseudopotential read in
  partial core-charges read in
  partial kinetic energy density read in
  atomic valenz-charges read in
  non local Contribution for L=           2  read in
    real space projection operators read in
  non local Contribution for L=           2  read in
    real space projection operators read in
  non local Contribution for L=           0  read in
    real space projection operators read in
  non local Contribution for L=           0  read in
    real space projection operators read in
  non local Contribution for L=           1  read in
    real space projection operators read in
  non local Contribution for L=           1  read in
    real space projection operators read in
    PAW grid and wavefunctions read in
 
   number of l-projection  operators is LMAX  =           6
   number of lm-projection operators is LMMAX =          18
 
 POTCAR:    PAW_PBE H 15Jun2001                   
   VRHFIN =H: ultrasoft test                                                    
   LEXCH  = PE                                                                  
   EATOM  =    12.4884 eV,    0.9179 Ry                                         
                                                                                
   TITEL  = PAW_PBE H 15Jun2001                                                 
   LULTRA =        F    use ultrasoft PP ?                                      
   IUNSCR =        0    unscreen: 0-lin 1-nonlin 2-no                           
   RPACOR =    0.000    partial core radius                                     
   POMASS =    1.000; ZVAL   =    1.000    mass and valenz                      
   RCORE  =    1.100    outmost cutoff radius                                   
   RWIGS  =    0.700; RWIGS  =    0.370    wigner-seitz radius (au A)           
   ENMAX  =  250.000; ENMIN  =  200.000 eV                                      
   RCLOC  =    0.701    cutoff for local pot                                    
   LCOR   =        T    correct aug charges                                     
   LPAW   =        T    paw PP                                                  
   EAUG   =  400.000                                                            
   RMAX   =    1.123    core radius for proj-oper                               
   RAUG   =    1.200    factor for augmentation sphere                          
   RDEP   =    1.112    radius for radial grids                                 
   RDEPT  =    0.926    core radius for aug-charge                              
                                                                                
   Atomic configuration                                                         
    2 entries                                                                   
     n  l   j            E        occ.                                          
     1  0  0.50        -6.4927   1.0000                                         
     2  1  0.50        -3.4015   0.0000                                         
   Description                                                                  
     l       E           TYP  RCUT    TYP  RCUT                                 
     0     -6.4927494     23  1.100                                             
     0      6.8029130     23  1.100                                             
     1     -4.0817478     23  1.100                                             
  local pseudopotential read in
  atomic valenz-charges read in
  non local Contribution for L=           0  read in
    real space projection operators read in
  non local Contribution for L=           0  read in
    real space projection operators read in
  non local Contribution for L=           1  read in
    real space projection operators read in
    PAW grid and wavefunctions read in
 
   number of l-projection  operators is LMAX  =           3
   number of lm-projection operators is LMMAX =           5
 
 Optimization of the real space projectors (new method)

 maximal supplied QI-value         = 14.36
 optimisation between [QCUT,QGAM] = [ 11.92, 23.98] = [ 39.79,161.09] Ry 
 Optimized for a Real-space Cutoff    1.49 Angstroem

   l    n(q)    QCUT    max X(q) W(low)/X(q) W(high)/X(q)  e(spline) 
   2     10    11.920    66.195    0.79E-04    0.18E-03    0.24E-06
   2     10    11.920    64.643    0.81E-04    0.19E-03    0.24E-06
   0     11    11.920    95.520    0.28E-04    0.54E-04    0.18E-06
   0     11    11.920    63.403    0.27E-04    0.52E-04    0.17E-06
   1     10    11.920    19.961    0.18E-04    0.11E-03    0.23E-06
   1     10    11.920    13.289    0.25E-04    0.87E-04    0.19E-06
 Optimization of the real space projectors (new method)

 maximal supplied QI-value         = 34.20
 optimisation between [QCUT,QGAM] = [ 11.97, 23.94] = [ 40.13,160.53] Ry 
 Optimized for a Real-space Cutoff    1.18 Angstroem

   l    n(q)    QCUT    max X(q) W(low)/X(q) W(high)/X(q)  e(spline) 
   0      8    11.971    19.460    0.15E-03    0.31E-03    0.25E-06
   0      8    11.971    12.209    0.13E-03    0.29E-03    0.25E-06
   1      8    11.971     4.655    0.22E-03    0.24E-03    0.21E-06
  PAW_PBE Pt 04Feb2005                  :
 energy of atom  1       EATOM= -729.1176
 kinetic energy error for atom=    0.0021 (will be added to EATOM!!)
  PAW_PBE H 15Jun2001                   :
 energy of atom  2       EATOM=  -12.4884
 kinetic energy error for atom=    0.0008 (will be added to EATOM!!)
 
 
 POSCAR: Pt111                                   
  positions in cartesian coordinates
  No initial velocities read in
 exchange correlation table for  LEXCH =        8
   RHO(1)=    0.500       N(1)  =     2000
   RHO(2)=  100.500       N(2)  =     4000
 


--------------------------------------------------------------------------------------------------------


 ion  position               nearest neighbor table
   1  0.784  0.869  0.327-  71 2.74  20 2.74  55 2.74  27 2.78  35 2.78  34 2.79  43 2.80  56 2.80
                             3 2.80  73 2.80   2 2.81  72 2.81
   2  0.034  0.870  0.327-  55 2.74  65 2.74  68 2.74  29 2.78  39 2.78  27 2.78  72 2.80   3 2.80
                            57 2.81  23 2.81  47 2.81   1 2.81
   3  0.034  0.620  0.327-  12 2.73  55 2.74  76 2.74  39 2.78  28 2.78  35 2.79   9 2.80   1 2.80
                             2 2.80  56 2.81  57 2.81  15 2.81
   4  0.788  0.867  0.023-  21 2.78  78 2.78  19 2.79   6 2.80  58 2.81   5 2.81  75 2.81  44 2.81
                            74 2.81
   5  0.037  0.868  0.023-  49 2.78  70 2.78  78 2.79  74 2.80  24 2.81   4 2.81  59 2.81  48 2.81
                             6 2.81
   6  0.037  0.617  0.024-  46 2.78  70 2.78  21 2.79   4 2.80  18 2.80  59 2.80  10 2.80  58 2.81
                             5 2.81
   7  0.620  0.202  0.126-  71 2.73  79 2.74  80 2.75  42 2.78  44 2.78  74 2.79  53 2.80  78 2.81
                            22 2.81  19 2.81  61 2.81  11 2.81
   8  0.370  0.952  0.126-  66 2.73  69 2.74  26 2.74  16 2.78  24 2.78  75 2.80  25 2.80  19 2.80
                            49 2.80  54 2.81  60 2.81  53 2.81
   9  0.035  0.370  0.327-  12 2.74  77 2.74  62 2.74  33 2.78  28 2.78  30 2.78   3 2.80  15 2.81
                            13 2.81  56 2.81  63 2.81  47 2.81
  10  0.037  0.368  0.024-  54 2.78  46 2.78  45 2.79  48 2.80   6 2.80  18 2.81  58 2.81  64 2.81
                            16 2.81
  11  0.870  0.202  0.126-  65 2.73  77 2.74  79 2.74  64 2.78  74 2.79  48 2.79  45 2.80  49 2.81
                            54 2.81   7 2.81  22 2.81  78 2.81
  12  0.952  0.536  0.227-  21 2.73   3 2.73   9 2.74  45 2.74  46 2.74  56 2.74  77 2.80  55 2.80
                            76 2.80  20 2.81  67 2.81  62 2.81
  13  0.285  0.119  0.327-  62 2.74  26 2.74  69 2.74  31 2.78  36 2.78  33 2.79  73 2.80  43 2.80
                            23 2.81  47 2.81   9 2.81  15 2.81
  14  0.534  0.619  0.327-  51 2.74  66 2.74  67 2.74  52 2.78  38 2.78  37 2.79  41 2.80  57 2.80
                            73 2.80  56 2.80  23 2.81  63 2.81
  15  0.285  0.370  0.327-  76 2.73  62 2.74  80 2.74  50 2.78  36 2.78  28 2.79  41 2.80  57 2.80
                             9 2.81  43 2.81  13 2.81   3 2.81
  16  0.288  0.118  0.023-   8 2.78  53 2.78  54 2.79  44 2.80  18 2.80  75 2.80  48 2.81  24 2.81
                            10 2.81
  17  0.537  0.617  0.023-  22 2.78  25 2.78  60 2.79  59 2.80  24 2.80  42 2.80  64 2.81  58 2.81
                            75 2.81
  18  0.287  0.368  0.024-  53 2.78  61 2.78  46 2.79  59 2.80   6 2.80  16 2.80  10 2.81  42 2.81
                            44 2.81
  19  0.620  0.952  0.126-  20 2.73  71 2.74  69 2.75  44 2.78  75 2.78   4 2.79  21 2.80   8 2.80
                            53 2.81  78 2.81  25 2.81   7 2.81
  20  0.701  0.786  0.226-  19 2.73  25 2.74   1 2.74  56 2.74  21 2.74  73 2.74  67 2.80  69 2.80
                            12 2.81  66 2.81  55 2.81  71 2.81
  21  0.869  0.702  0.126-  12 2.73  55 2.74  20 2.74   4 2.78  58 2.78   6 2.79  45 2.80  19 2.80
                            46 2.81  70 2.81  78 2.81  25 2.81
  22  0.619  0.452  0.126-  79 2.73  67 2.74  51 2.75  17 2.78  42 2.78  64 2.79  25 2.80  61 2.80
                            60 2.81   7 2.81  45 2.81  11 2.81
  23  0.284  0.870  0.327-  68 2.74  26 2.74  66 2.74  31 2.78  37 2.78  29 2.79  73 2.80  57 2.80
                            47 2.80  14 2.81   2 2.81  13 2.81
  24  0.287  0.868  0.023-  60 2.78   8 2.78  49 2.79  48 2.80  17 2.80   5 2.81  75 2.81  16 2.81
                            59 2.81
  25  0.619  0.702  0.126-  20 2.74  67 2.74  66 2.75  17 2.78  75 2.78  58 2.79  22 2.80   8 2.80
                            60 2.80  45 2.81  19 2.81  21 2.81
  26  0.202  0.036  0.227-  54 2.73  23 2.74  49 2.74  13 2.74  47 2.74   8 2.74  66 2.80  69 2.80
                            77 2.81  65 2.81  62 2.81  68 2.81
  27  0.867  0.953  0.430-   1 2.78  72 2.78   2 2.78  40 2.80  29 2.80  34 2.80  39 2.81  35 2.81
                            32 2.81
  28  0.118  0.453  0.430-   3 2.78   9 2.78  15 2.79  39 2.80  50 2.80  36 2.81  35 2.81  30 2.81
                            33 2.81
  29  0.117  0.953  0.430-   2 2.78  47 2.78  23 2.79  32 2.80  39 2.80  27 2.80  31 2.81  37 2.81
                            33 2.81
  30  0.868  0.453  0.430-  63 2.78   9 2.78  56 2.78  33 2.80  35 2.80  32 2.81  38 2.81  28 2.81
                            52 2.81
  31  0.367  0.953  0.430-  13 2.78  23 2.78  73 2.79  33 2.80  37 2.80  29 2.81  36 2.81  34 2.81
                            52 2.81
  32  0.867  0.203  0.430-  63 2.78  72 2.78  47 2.79  29 2.80  38 2.80  30 2.81  40 2.81  27 2.81
                            33 2.81
  33  0.117  0.203  0.430-   9 2.78  47 2.79  13 2.79  30 2.80  31 2.80  36 2.81  32 2.81  28 2.81
                            29 2.81
  34  0.617  0.953  0.430-  43 2.78  73 2.78   1 2.79  35 2.80  36 2.80  27 2.80  52 2.81  31 2.81
                            40 2.81
  35  0.867  0.703  0.430-  56 2.78   1 2.78   3 2.79  52 2.80  34 2.80  30 2.80  27 2.81  28 2.81
                            39 2.81
  36  0.367  0.203  0.430-  13 2.78  15 2.78  43 2.79  40 2.80  34 2.80  33 2.81  31 2.81  28 2.81
                            50 2.81
  37  0.367  0.703  0.430-  81 1.64  57 2.78  23 2.78  14 2.79  31 2.80  52 2.80  50 2.80  39 2.81
                            29 2.81  38 2.81
  38  0.618  0.453  0.430-  81 2.00  41 2.78  14 2.78  63 2.79  32 2.80  52 2.80  50 2.80  40 2.81
                            30 2.81  37 2.81
  39  0.117  0.703  0.430-   3 2.78   2 2.78  57 2.79  28 2.80  29 2.80  27 2.81  37 2.81  50 2.81
                            35 2.81
  40  0.617  0.203  0.430-  43 2.78  41 2.78  72 2.79  27 2.80  36 2.80  32 2.81  38 2.81  34 2.81
                            50 2.81
  41  0.535  0.370  0.327-  51 2.74  80 2.74  79 2.75  38 2.78  40 2.78  50 2.79  14 2.80  15 2.80
                            63 2.80  72 2.80  57 2.81  43 2.81
  42  0.537  0.367  0.023-   7 2.78  22 2.78  61 2.80  44 2.80  17 2.80  18 2.81  64 2.81  74 2.81
                            59 2.81
  43  0.535  0.119  0.327-  69 2.74  80 2.74  71 2.74  40 2.78  34 2.78  36 2.79   1 2.80  13 2.80
                            72 2.80  73 2.81  15 2.81  41 2.81
  44  0.538  0.117  0.023-  19 2.78   7 2.78  53 2.80  16 2.80  42 2.80  75 2.80  74 2.81   4 2.81
                            18 2.81
  45  0.869  0.452  0.126-  77 2.73  12 2.74  67 2.74  58 2.78  64 2.79  10 2.79  11 2.80  21 2.80
                            25 2.81  22 2.81  46 2.81  54 2.81
  46  0.119  0.452  0.127-  62 2.73  76 2.74  12 2.74   6 2.78  10 2.78  18 2.79  54 2.80  70 2.80
                            61 2.80  21 2.81  45 2.81  53 2.81
  47  0.035  0.120  0.327-  77 2.73  65 2.74  26 2.74  29 2.78  33 2.79  32 2.79  23 2.80  63 2.81
                            72 2.81   2 2.81  13 2.81   9 2.81
  48  0.038  0.118  0.023-  49 2.78  54 2.78  11 2.79  10 2.80  24 2.80  16 2.81  74 2.81   5 2.81
                            64 2.81
  49  0.120  0.952  0.126-  68 2.73  26 2.74  65 2.74  48 2.78   5 2.78  24 2.79  60 2.80   8 2.80
                            11 2.81  54 2.81  78 2.81  70 2.81
  50  0.367  0.453  0.430-  81 2.03  15 2.78  57 2.78  41 2.79  28 2.80  37 2.80  38 2.80  39 2.81
                            40 2.81  36 2.81
  51  0.452  0.536  0.227-  61 2.73  14 2.74  41 2.74  60 2.74  57 2.74  22 2.75  66 2.80  80 2.80
                            67 2.80  76 2.81  68 2.81  79 2.81
  52  0.617  0.703  0.430-  14 2.78  73 2.78  56 2.79  35 2.80  37 2.80  38 2.80  34 2.81  30 2.81
                            31 2.81
  53  0.370  0.202  0.127-  69 2.73  80 2.73  62 2.74  18 2.78  16 2.78  44 2.80   7 2.80  61 2.80
                            54 2.80  19 2.81  46 2.81   8 2.81
  54  0.120  0.202  0.126-  26 2.73  62 2.74  77 2.74  10 2.78  48 2.78  16 2.79  46 2.80  53 2.80
                             8 2.81  11 2.81  49 2.81  45 2.81
  55  0.951  0.786  0.227-  78 2.73  21 2.74   3 2.74   2 2.74   1 2.74  70 2.74  71 2.80  12 2.80
                            68 2.81  20 2.81  76 2.81  65 2.81
  56  0.784  0.620  0.327-  67 2.74  20 2.74  12 2.74  35 2.78  30 2.78  52 2.79  63 2.80   1 2.80
                            73 2.80  14 2.80   3 2.81   9 2.81
  57  0.284  0.620  0.327-  76 2.74  68 2.74  51 2.74  50 2.78  37 2.78  39 2.79  14 2.80  23 2.80
                            15 2.80   2 2.81  41 2.81   3 2.81
  58  0.787  0.617  0.023-  45 2.78  21 2.78  25 2.79  75 2.80  64 2.80   4 2.81  10 2.81   6 2.81
                            17 2.81
  59  0.287  0.617  0.023-  60 2.78  61 2.78  70 2.79  18 2.80  17 2.80   6 2.80   5 2.81  42 2.81
                            24 2.81
  60  0.369  0.702  0.126-  66 2.73  51 2.74  68 2.74  59 2.78  24 2.78  17 2.79  49 2.80  25 2.80
                            61 2.80  70 2.80  22 2.81   8 2.81
  61  0.369  0.452  0.127-  80 2.73  51 2.73  76 2.75  59 2.78  18 2.78  42 2.80  53 2.80  22 2.80
                            60 2.80  46 2.80  70 2.81   7 2.81
  62  0.202  0.286  0.227-  46 2.73  13 2.74  15 2.74  54 2.74   9 2.74  53 2.74  76 2.80  80 2.80
                            69 2.80  26 2.81  77 2.81  12 2.81
  63  0.785  0.370  0.327-  67 2.73  79 2.74  77 2.74  30 2.78  32 2.78  38 2.79  56 2.80  41 2.80
                            47 2.81  72 2.81  14 2.81   9 2.81
  64  0.787  0.367  0.023-  11 2.78  45 2.79  22 2.79  74 2.80  58 2.80  42 2.81  10 2.81  48 2.81
                            17 2.81
  65  0.952  0.036  0.227-  11 2.73  78 2.74  47 2.74   2 2.74  49 2.74  72 2.74  68 2.80  79 2.80
                            26 2.81  77 2.81  71 2.81  55 2.81
  66  0.451  0.786  0.227-  60 2.73   8 2.73  73 2.74  14 2.74  23 2.74  25 2.75  51 2.80  26 2.80
                            68 2.80  20 2.81  67 2.81  69 2.81
  67  0.702  0.536  0.227-  63 2.73  56 2.74  22 2.74  25 2.74  45 2.74  14 2.74  79 2.80  20 2.80
                            51 2.80  66 2.81  77 2.81  12 2.81
  68  0.201  0.786  0.227-  49 2.73  70 2.74  23 2.74  57 2.74   2 2.74  60 2.74  65 2.80  66 2.80
                            76 2.81  55 2.81  51 2.81  26 2.81
  69  0.452  0.036  0.227-  53 2.73  43 2.74   8 2.74  73 2.74  13 2.74  19 2.75  20 2.80  26 2.80
                            62 2.80  71 2.81  80 2.81  66 2.81
  70  0.119  0.702  0.126-  68 2.74  76 2.74  55 2.74   6 2.78   5 2.78  59 2.79  78 2.80  46 2.80
                            60 2.80  61 2.81  21 2.81  49 2.81
  71  0.702  0.035  0.226-   7 2.73  19 2.74   1 2.74  72 2.74  78 2.74  43 2.74  55 2.80  80 2.80
                            69 2.81  65 2.81  20 2.81  79 2.81
  72  0.784  0.120  0.327-  79 2.74  71 2.74  65 2.74  32 2.78  27 2.78  40 2.79   2 2.80  43 2.80
                            41 2.80  47 2.81  63 2.81   1 2.81
  73  0.534  0.869  0.327-  69 2.74  66 2.74  20 2.74  34 2.78  52 2.78  31 2.79  56 2.80  14 2.80
                            13 2.80  23 2.80   1 2.80  43 2.81
  74  0.788  0.117  0.023-  78 2.78  11 2.79   7 2.79   5 2.80  64 2.80  48 2.81  42 2.81  44 2.81
                             4 2.81
  75  0.538  0.868  0.023-  25 2.78  19 2.78   8 2.80  58 2.80  16 2.80  44 2.80  24 2.81   4 2.81
                            17 2.81
  76  0.202  0.536  0.227-  15 2.73  57 2.74  46 2.74  70 2.74   3 2.74  61 2.75  62 2.80  12 2.80
                            51 2.81  68 2.81  55 2.81  80 2.81
  77  0.952  0.286  0.227-  45 2.73  47 2.73  11 2.74   9 2.74  63 2.74  54 2.74  12 2.80  26 2.81
                            79 2.81  62 2.81  67 2.81  65 2.81
  78  0.870  0.952  0.126-  55 2.73  65 2.74  71 2.74  74 2.78   4 2.78   5 2.79  70 2.80   7 2.81
                            19 2.81  21 2.81  49 2.81  11 2.81
  79  0.702  0.286  0.226-  22 2.73  72 2.74   7 2.74  63 2.74  11 2.74  41 2.75  67 2.80  65 2.80
                            80 2.81  77 2.81  51 2.81  71 2.81
  80  0.452  0.286  0.227-  61 2.73  53 2.73  43 2.74  41 2.74  15 2.74   7 2.75  62 2.80  71 2.80
                            51 2.80  79 2.81  69 2.81  76 2.81
  81  0.438  0.565  0.473-  37 1.64  38 2.00  50 2.03
 
  LATTYP: Found a hexagonal cell.
 ALAT       =    11.2227001190
 C/A-ratio  =     1.9603125600
  
  Lattice vectors:
  
 A1 = (   5.6113500595,  -9.7191434021,   0.0000000000)
 A2 = ( -11.2227001190,   0.0000000000,   0.0000000000)
 A3 = (   0.0000000000,   0.0000000000, -22.0000000000)


Analysis of symmetry for initial positions (statically):
=====================================================================
 Subroutine PRICEL returns:
 Original cell was already a primitive cell.
 

 Routine SETGRP: Setting up the symmetry group for a 
 hexagonal supercell.


 Subroutine GETGRP returns: Found  1 space group operations
 (whereof  1 operations were pure point group operations)
 out of a pool of 24 trial point group operations.


The static configuration has the point symmetry C_1 .


Analysis of symmetry for dynamics (positions and initial velocities):
=====================================================================
 Subroutine PRICEL returns:
 Original cell was already a primitive cell.
 

 Routine SETGRP: Setting up the symmetry group for a 
 hexagonal supercell.


 Subroutine GETGRP returns: Found  1 space group operations
 (whereof  1 operations were pure point group operations)
 out of a pool of 24 trial point group operations.


The dynamic configuration has the point symmetry C_1 .


Analysis of constrained symmetry for selective dynamics:
=====================================================================
 Subroutine PRICEL returns:
 Original cell was already a primitive cell.
 

 Routine SETGRP: Setting up the symmetry group for a 
 hexagonal supercell.


 Subroutine GETGRP returns: Found  1 space group operations
 (whereof  1 operations were pure point group operations)
 out of a pool of 24 trial point group operations.


The constrained configuration has the point symmetry C_1 .


Analysis of structural, dynamic, and magnetic symmetry:
=====================================================================
 Subroutine PRICEL returns:
 Original cell was already a primitive cell.
 

 Routine SETGRP: Setting up the symmetry group for a 
 hexagonal supercell.


 Subroutine GETGRP returns: Found  1 space group operations
 (whereof  1 operations were pure point group operations)
 out of a pool of 24 trial point group operations.


The magnetic configuration has the point symmetry C_1 .


 Subroutine INISYM returns: Found  1 space group operations
 (whereof  1 operations are pure point group operations),
 and found     1 'primitive' translations

 
 
 KPOINTS: mesh auto                               

Automatic generation of k-mesh.
Space group operators:
 irot       det(A)        alpha          n_x          n_y          n_z        tau_x        tau_y        tau_z
    1     1.000000     0.000000     1.000000     0.000000     0.000000     0.000000     0.000000     0.000000
 
 Subroutine IBZKPT returns following result:
 ===========================================
 
 Found      4 irreducible k-points:
 
 Following reciprocal coordinates:
            Coordinates               Weight
  0.000000  0.000000  0.000000      1.000000
  0.500000  0.000000  0.000000      1.000000
  0.000000  0.500000  0.000000      1.000000
  0.500000  0.500000  0.000000      1.000000
 
 Following cartesian coordinates:
            Coordinates               Weight
  0.000000  0.000000  0.000000      1.000000
  0.044553 -0.025722  0.000000      1.000000
  0.000000  0.051445  0.000000      1.000000
  0.044553  0.025722  0.000000      1.000000
 


--------------------------------------------------------------------------------------------------------




 Dimension of arrays:
   k-points           NKPTS =      4   k-points in BZ     NKDIM =      4   number of bands    NBANDS=    530
   number of dos      NEDOS =    301   number of ions     NIONS =     81
   non local maximal  LDIM  =      6   non local SUM 2l+1 LMDIM =     18
   total plane-waves  NPLWV = ******
   max r-space proj   IRMAX =   7929   max aug-charges    IRDMAX=  34542
   dimension x,y,z NGX =    90 NGY =   90 NGZ =  168
   dimension x,y,z NGXF=   180 NGYF=  180 NGZF=  336
   support grid    NGXF=   180 NGYF=  180 NGZF=  336
   ions per type =              80   1
   NGX,Y,Z   is equivalent  to a cutoff of  13.33, 13.33, 12.70 a.u.
   NGXF,Y,Z  is equivalent  to a cutoff of  26.66, 26.66, 25.39 a.u.

 SYSTEM =  Pt111                                   
 POSCAR =  Pt111                                   

 Startparameter for this run:
   NWRITE =      2    write-flag & timer
   PREC   = accura    normal or accurate (medium, high low for compatibility)
   ISTART =      0    job   : 0-new  1-cont  2-samecut
   ICHARG =      2    charge: 1-file 2-atom 10-const
   ISPIN  =      2    spin polarized calculation?
   LNONCOLLINEAR =      F non collinear calculations
   LSORBIT =      F    spin-orbit coupling
   INIWAV =      1    electr: 0-lowe 1-rand  2-diag
   LASPH  =      F    aspherical Exc in radial PAW
   METAGGA=      F    non-selfconsistent MetaGGA calc.

 Electronic Relaxation 1
   ENCUT  =  550.0 eV  40.42 Ry    6.36 a.u.  21.46 21.46 42.07*2*pi/ulx,y,z
   ENINI  =  550.0     initial cutoff
   ENAUG  =  400.0 eV  augmentation charge cutoff
   NELM   =    200;   NELMIN=  2; NELMDL= -5     # of ELM steps 
   EDIFF  = 0.1E-04   stopping-criterion for ELM
   LREAL  =      T    real-space projection
   NLSPLINE    = F    spline interpolate recip. space projectors
   LCOMPAT=      F    compatible to vasp.4.4
   GGA_COMPAT  = T    GGA compatible to vasp.4.4-vasp.4.6
   LMAXPAW     = -100 max onsite density
   LMAXMIX     =    2 max onsite mixed and CHGCAR
   VOSKOWN=      0    Vosko Wilk Nusair interpolation
   ROPT   =   -0.00025  -0.00025
 Ionic relaxation
   EDIFFG = -.5E-01   stopping-criterion for IOM
   NSW    =    300    number of steps for IOM
   NBLOCK =      1;   KBLOCK =    300    inner block; outer block 
   IBRION =      2    ionic relax: 0-MD 1-quasi-New 2-CG
   NFREE  =      1    steps in history (QN), initial steepest desc. (CG)
   ISIF   =      2    stress and relaxation
   IWAVPR =     11    prediction:  0-non 1-charg 2-wave 3-comb
   ISYM   =      2    0-nonsym 1-usesym 2-fastsym
   LCORR  =      T    Harris-Foulkes like correction to forces

   POTIM  = 0.5000    time-step for ionic-motion
   TEIN   =    0.0    initial temperature
   TEBEG  =    0.0;   TEEND  =   0.0 temperature during run
   SMASS  =  -3.00    Nose mass-parameter (am)
   estimated Nose-frequenzy (Omega)   =  0.10E-29 period in steps =****** mass=  -0.288E-26a.u.
   SCALEE = 1.0000    scale energy and forces
   NPACO  =    256;   APACO  = 16.0  distance and # of slots for P.C.
   PSTRESS=    0.0 pullay stress

  Mass of Ions in am
   POMASS = 195.08  1.00
  Ionic Valenz
   ZVAL   =  10.00  1.00
  Atomic Wigner-Seitz radii
   RWIGS  =  -1.00 -1.00
  virtual crystal weights 
   VCA    =   1.00  1.00
   NELECT =     801.0000    total number of electrons
   NUPDOWN=      -1.0000    fix difference up-down

 DOS related values:
   EMIN   =  10.00;   EMAX   =-10.00  energy-range for DOS
   EFERMI =   0.00
   ISMEAR =     1;   SIGMA  =   0.10  broadening in eV -4-tet -1-fermi 0-gaus

 Electronic relaxation 2 (details)
   IALGO  =     68    algorithm
   LDIAG  =      T    sub-space diagonalisation (order eigenvalues)
   LSUBROT=      F    optimize rotation matrix (better conditioning)
   TURBO    =      0    0=normal 1=particle mesh
   IRESTART =      0    0=no restart 2=restart with 2 vectors
   NREBOOT  =      0    no. of reboots
   NMIN     =      0    reboot dimension
   EREF     =   0.00    reference energy to select bands
   IMIX   =      4    mixing-type and parameters
     AMIX     =   0.40;   BMIX     =  1.00
     AMIX_MAG =   1.60;   BMIX_MAG =  1.00
     AMIN     =   0.10
     WC   =   100.;   INIMIX=   1;  MIXPRE=   1;  MAXMIX= -45

 Intra band minimization:
   WEIMIN = 0.0010     energy-eigenvalue tresh-hold
   EBREAK =  0.47E-08  absolut break condition
   DEPER  =   0.30     relativ break condition  

   TIME   =   0.40     timestep for ELM

  volume/ion in A,a.u.               =      29.63       199.92
  Fermi-wavevector in a.u.,A,eV,Ry     =   1.135629  2.146027 17.546785  1.289652
  Thomas-Fermi vector in A             =   2.272333
 
 Write flags
   LWAVE        =      F    write WAVECAR
   LDOWNSAMPLE  =      F    k-point downsampling of WAVECAR
   LCHARG       =      F    write CHGCAR
   LVTOT        =      F    write LOCPOT, total local potential
   LVHAR        =      F    write LOCPOT, Hartree potential only
   LELF         =      F    write electronic localiz. function (ELF)
   LORBIT       =      0    0 simple, 1 ext, 2 COOP (PROOUT), +10 PAW based schemes


 Dipole corrections
   LMONO  =      F    monopole corrections only (constant potential shift)
   LDIPOL =      F    correct potential (dipole corrections)
   IDIPOL =      0    1-x, 2-y, 3-z, 4-all directions 
   EPSILON=  1.0000000 bulk dielectric constant

 Exchange correlation treatment:
   GGA     =    --    GGA type
   LEXCH   =     8    internal setting for exchange type
   VOSKOWN=      0    Vosko Wilk Nusair interpolation
   LHFCALC =     F    Hartree Fock is set to
   LHFONE  =     F    Hartree Fock one center treatment
   AEXX    =    0.0000 exact exchange contribution

 Linear response parameters
   LEPSILON=     F    determine dielectric tensor
   LRPA    =     F    only Hartree local field effects (RPA)
   LNABLA  =     F    use nabla operator in PAW spheres
   LVEL    =     F    velocity operator in full k-point grid
   LINTERFAST=   F  fast interpolation
   KINTER  =     0    interpolate to denser k-point grid
   CSHIFT  =0.1000    complex shift for real part using Kramers Kronig
   OMEGAMAX=  -1.0    maximum frequency
   DEG_THRESHOLD= 0.2000000E-02 threshold for treating states as degnerate
   RTIME   =   -0.100 relaxation time in fs
  (WPLASMAI=    0.000 imaginary part of plasma frequency in eV, 0.658/RTIME)
   DFIELD  = 0.0000000 0.0000000 0.0000000 field for delta impulse in time
 
 Orbital magnetization related:
   ORBITALMAG=     F  switch on orbital magnetization
   LCHIMAG   =     F  perturbation theory with respect to B field
   DQ        =  0.001000  dq finite difference perturbation B field
   LLRAUG    =     F  two centre corrections for induced B field



--------------------------------------------------------------------------------------------------------


 conjugate gradient relaxation of ions
   using selective dynamics as specified on POSCAR
   WARNING: If single coordinates had been selected the selection of coordinates
            is made according to the corresponding   d i r e c t   coordinates!
            Don't support selection of single cartesian coordinates -- sorry ...
  !
 charge density and potential will be updated during run
 spin polarized calculation
 RMM-DIIS sequential band-by-band and
  variant of blocked Davidson during initial phase
 perform sub-space diagonalisation
    before iterative eigenvector-optimisation
 modified Broyden-mixing scheme, WC =      100.0
 initial mixing is a Kerker type mixing with AMIX =  0.4000 and BMIX =      1.0000
 Hartree-type preconditioning will be used
 using additional bands          129
 real space projection scheme for non local part
 use partial core corrections
 calculate Harris-corrections to forces 
   (improved forces if not selfconsistent)
 use gradient corrections 
 use of overlap-Matrix (Vanderbilt PP)
 Methfessel and Paxton  Order N= 1 SIGMA  =   0.10


--------------------------------------------------------------------------------------------------------


  energy-cutoff  :      550.00
  volume of cell :     2399.65
      direct lattice vectors                 reciprocal lattice vectors
    11.222700119  0.000000000  0.000000000     0.089105116 -0.051444863  0.000000000
     5.611350060  9.719143402  0.000000000     0.000000000  0.102889726  0.000000000
     0.000000000  0.000000000 22.000000000     0.000000000  0.000000000  0.045454545

  length of vectors
    11.222700119 11.222700119 22.000000000     0.102889726  0.102889726  0.045454545


 
 k-points in units of 2pi/SCALE and weight: mesh auto                               
   0.00000000  0.00000000  0.00000000       0.250
   0.04455256 -0.02572243  0.00000000       0.250
   0.00000000  0.05144486  0.00000000       0.250
   0.04455256  0.02572243  0.00000000       0.250
 
 k-points in reciprocal lattice and weights: mesh auto                               
   0.00000000  0.00000000  0.00000000       0.250
   0.50000000  0.00000000  0.00000000       0.250
   0.00000000  0.50000000  0.00000000       0.250
   0.50000000  0.50000000  0.00000000       0.250
 
 position of ions in fractional coordinates (direct lattice) 
   0.78390011  0.86932118  0.32687432
   0.03411128  0.86959463  0.32701204
   0.03393528  0.61978790  0.32710507
   0.78778234  0.86708081  0.02322838
   0.03741891  0.86782571  0.02343044
   0.03733223  0.61744215  0.02358518
   0.61967002  0.20167069  0.12620282
   0.36966679  0.95165476  0.12629235
   0.03479551  0.36972208  0.32712007
   0.03726394  0.36764546  0.02367965
   0.86975264  0.20201185  0.12632517
   0.95166515  0.53591541  0.22677767
   0.28481926  0.11934560  0.32716511
   0.53414422  0.61942680  0.32712921
   0.28493290  0.36956012  0.32720185
   0.28790237  0.11758341  0.02349269
   0.53686476  0.61741667  0.02320581
   0.28715680  0.36776859  0.02360717
   0.61950132  0.95151513  0.12618906
   0.70137820  0.78552678  0.22647760
   0.86911134  0.70165331  0.12633239
   0.61906014  0.45203508  0.12627515
   0.28423052  0.86953165  0.32708724
   0.28745236  0.86772760  0.02328729
   0.61884343  0.70163225  0.12615123
   0.20204472  0.03585587  0.22670231
   0.86680159  0.95303643  0.42975136
   0.11756517  0.45342606  0.43007460
   0.11654819  0.95336097  0.42989985
   0.86768032  0.45272449  0.42989560
   0.36658436  0.95327045  0.43012796
   0.86729089  0.20295485  0.42978672
   0.11729154  0.20330212  0.42992902
   0.61700318  0.95277769  0.42993188
   0.86673143  0.70299521  0.42994645
   0.36743094  0.20295835  0.43008280
   0.36708301  0.70334397  0.43019211
   0.61757419  0.45270731  0.42999123
   0.11693467  0.70328473  0.42999993
   0.61735857  0.20278118  0.42984102
   0.53468031  0.36957150  0.32707277
   0.53742047  0.36722028  0.02336212
   0.53482013  0.11904635  0.32698150
   0.53766488  0.11740608  0.02331284
   0.86924553  0.45187393  0.12639505
   0.11943584  0.45183688  0.12660821
   0.03455656  0.11952612  0.32688753
   0.03779183  0.11775766  0.02349972
   0.11970360  0.95181534  0.12632195
   0.36736713  0.45328417  0.43016686
   0.45156792  0.53588251  0.22677243
   0.61714655  0.70273227  0.43006385
   0.36984651  0.20182574  0.12650961
   0.11990143  0.20189339  0.12646702
   0.95131260  0.78589820  0.22662316
   0.78403078  0.61950185  0.32699221
   0.28429132  0.61971323  0.32717795
   0.78711333  0.61745470  0.02326990
   0.28710245  0.61747126  0.02341798
   0.36896035  0.70187635  0.12632636
   0.36933633  0.45184057  0.12653267
   0.20230622  0.28580151  0.22691051
   0.78456135  0.36959506  0.32692421
   0.78728009  0.36748931  0.02331929
   0.95200966  0.03579245  0.22651180
   0.45124749  0.78564809  0.22661611
   0.70157588  0.53572841  0.22666457
   0.20137029  0.78598451  0.22672967
   0.45195945  0.03559717  0.22667971
   0.11913336  0.70182942  0.12644307
   0.70198869  0.03545283  0.22645696
   0.78448779  0.11953890  0.32676575
   0.53418014  0.86917045  0.32702159
   0.78789222  0.11733673  0.02331081
   0.53753409  0.86754281  0.02310566
   0.20162058  0.53586832  0.22694428
   0.95211592  0.28592828  0.22667525
   0.86956192  0.95163725  0.12625087
   0.70215136  0.28578467  0.22644873
   0.45230178  0.28559222  0.22672169
   0.43850000  0.56520000  0.47300000
 
 position of ions in cartesian coordinates  (Angst):
  13.67554130  8.44905719  7.19123508
   5.26242053  8.45171488  7.19426478
   3.85869228  6.02380746  7.19631147
  13.70653898  8.42728275  0.51102426
   5.28961512  8.43452255  0.51546971
   3.88365249  6.00100876  0.51887389
   8.08601566  1.96006637  2.77646198
   9.48872753  9.24926910  2.77843175
   2.46513960  3.59338192  7.19664150
   2.48118936  3.57319895  0.52095234
  10.89453224  1.96338215  2.77915380
  13.68746152  5.20863870  4.98910878
   3.86613113  1.15993699  7.19763237
   9.47036100  6.02029794  7.19684271
   5.27144775  3.59180785  7.19844069
   3.89084360  1.14280999  0.51683913
   9.48961321  6.00076111  0.51052791
   5.28635297  3.57439564  0.51935764
  12.29176199  9.24791202  2.77615936
  12.27922293  7.63464741  4.98250717
  13.69099830  6.81946911  2.77931268
   9.48405336  4.39339375  2.77805329
   8.06908037  8.45110278  7.19591930
   8.09511497  8.43356894  0.51232039
  10.88219843  6.81926446  2.77532713
   2.46868715  0.34848836  4.98745082
  15.07567528  9.26269773  9.45452993
   3.86373098  4.40691289  9.46164131
   6.65762754  9.26585199  9.45779668
  12.27811159  4.40009422  9.45770330
   9.46320049  9.26497217  9.46281519
  10.87219622  1.97254724  9.45530780
   2.45712717  1.97592247  9.45843853
  12.27081084  9.26018303  9.45850136
  13.67181916  6.83251127  9.45882186
   5.26243765  1.97258132  9.46182149
   8.06637177  6.83590095  9.46422637
   9.47114918  4.39992727  9.45980700
   5.25869953  6.83532511  9.45999843
   8.06630635  1.97085940  9.45650240
   8.07435182  3.59191845  7.19560097
   8.09191031  3.56906652  0.51396658
   6.67013664  1.15702854  7.19359305
   6.69285830  1.14108654  0.51288257
  12.29090474  4.39182748  2.78069118
   3.87580752  4.39146745  2.78538061
   1.05852083  1.16169153  7.19152563
   1.08490582  1.14450361  0.51699391
   6.68436665  9.25082981  2.77908294
   6.66638728  4.40553385  9.46367093
   8.07483570  5.20831897  4.98899345
  10.86932746  6.82995574  9.46140468
   5.28319127  1.96157326  2.78321139
   2.47851226  1.96223083  2.78227450
  15.08624593  7.63825735  4.98570950
  12.27518405  6.02102730  7.19382866
   6.66794404  6.02308173  7.19791493
  12.29829137  6.00113077  0.51193787
   6.68691212  6.00129172  0.51519546
   8.07920524  6.82163686  2.77917997
   6.68038646  4.39150330  2.78371868
   3.87415438  2.77774591  4.99203129
  10.87882398  3.59214736  7.19233255
  10.89751950  3.57168134  0.51302436
  10.88496295  0.34787197  4.98325968
   9.47276178  7.63582650  4.98555448
  10.87973540  5.20682128  4.98662063
   6.67035262  7.63909615  4.98805274
   5.27195355  0.34597398  4.98695355
   5.27520854  6.82118073  2.78174761
   8.07714686  0.34457119  4.98205315
   9.47484580  1.16181574  7.18884648
  10.87216315  8.44759220  7.19447509
   9.50069554  1.14041251  0.51283775
  10.90067030  8.43177300  0.50832443
   5.26967209  5.20818107  4.99277417
  12.28975508  2.77897791  4.98685556
  15.09880243  9.24909887  2.77751917
   9.48367198  2.77758223  4.98187207
   6.67860512  2.77571176  4.98787725
   8.09268906  5.49325985 10.40600000
 


--------------------------------------------------------------------------------------------------------


 k-point  1 :   0.0000 0.0000 0.0000  plane waves:   70321
 k-point  2 :   0.5000 0.0000 0.0000  plane waves:   70264
 k-point  3 :   0.0000 0.5000 0.0000  plane waves:   70264
 k-point  4 :   0.5000 0.5000 0.0000  plane waves:   70264

 maximum and minimum number of plane-waves per node :     17611    17530

 maximum number of plane-waves:     70321
 maximum index in each direction: 
   IXMAX=   21   IYMAX=   21   IZMAX=   42
   IXMIN=  -21   IYMIN=  -21   IZMIN=  -42


 real space projection operators:
  total allocation   :      86168.91 KBytes
  max/ min on nodes  :      22019.09      21069.17


 parallel 3D FFT for wavefunctions:
    minimum data exchange during FFTs selected (reduces bandwidth)
 parallel 3D FFT for charge:
    minimum data exchange during FFTs selected (reduces bandwidth)


 total amount of memory used by VASP MPI-rank0   262817. kBytes
=======================================================================

   base      :      30000. kBytes
   nonlr-proj:      37979. kBytes
   fftplans  :      20287. kBytes
   grid      :      52194. kBytes
   one-center:        653. kBytes
   wavefun   :     121704. kBytes
 
     INWAV:  cpu time    0.0000: real time    0.0000
 Broyden mixing: mesh for mixing (old mesh)
   NGX = 43   NGY = 43   NGZ = 85
  (NGX  =180   NGY  =180   NGZ  =336)
  gives a total of 157165 points

 initial charge density was supplied:
 charge density of overlapping atoms calculated
 number of electron     801.0000000 magnetization      81.0000000
 keeping initial charge density in first step


--------------------------------------------------------------------------------------------------------


 Maximum index for non-local projection operator         2105
 Maximum index for augmentation-charges         1781 (set IRDMAX)


--------------------------------------------------------------------------------------------------------


 First call to EWALD:  gamma=   0.132
 Maximum number of real-space cells 4x 4x 2
 Maximum number of reciprocal cells 2x 2x 4

    FEWALD:  cpu time    0.0041: real time    0.0041


--------------------------------------- Iteration      1(   1)  ---------------------------------------


    POTLOK:  cpu time    0.4707: real time    0.4732
    SETDIJ:  cpu time    0.0395: real time    0.0399
     EDDAV:  cpu time   68.1188: real time   68.3212
       DOS:  cpu time    0.0024: real time    0.0053
    --------------------------------------------
      LOOP:  cpu time   68.6314: real time   68.8396

 eigenvalue-minimisations  :  8480
 total energy-change (2. order) : 0.5498290E+04  (-0.3886393E+05)
 number of electron     801.0000000 magnetization      81.0000000
 augmentation part      801.0000000 magnetization      81.0000000

 Free energy of the ion-electron system (eV)
  ---------------------------------------------------
  alpha Z        PSCENC =      2539.23836485
  Ewald energy   TEWEN  =    179295.27290211
  -Hartree energ DENC   =   -243364.47711035
  -exchange      EXHF   =         0.00000000
  -V(xc)+E(xc)   XCENC  =       289.80171742
  PAW double counting   =     55685.49641431   -53423.17961727
  entropy T*S    EENTRO =        -0.00242578
  eigenvalues    EBANDS =      6134.40867775
  atomic energy  EATOM  =     58341.73154849
  Solvation  Ediel_sol  =         0.00000000
  ---------------------------------------------------
  free energy    TOTEN  =      5498.29047154 eV

  energy without entropy =     5498.29289732  energy(sigma->0) =     5498.29128013


--------------------------------------------------------------------------------------------------------




--------------------------------------- Iteration      1(   2)  ---------------------------------------


     EDDAV:  cpu time   74.4690: real time   74.6869
       DOS:  cpu time    0.0020: real time    0.0020
    --------------------------------------------
      LOOP:  cpu time   74.4710: real time   74.6890

 eigenvalue-minimisations  :  9510
 total energy-change (2. order) :-0.5686063E+04  (-0.5210192E+04)
 number of electron     801.0000000 magnetization      81.0000000
 augmentation part      801.0000000 magnetization      81.0000000

 Free energy of the ion-electron system (eV)
  ---------------------------------------------------
  alpha Z        PSCENC =      2539.23836485
  Ewald energy   TEWEN  =    179295.27290211
  -Hartree energ DENC   =   -243364.47711035
  -exchange      EXHF   =         0.00000000
  -V(xc)+E(xc)   XCENC  =       289.80171742
  PAW double counting   =     55685.49641431   -53423.17961727
  entropy T*S    EENTRO =         0.00287784
  eigenvalues    EBANDS =       448.34033287
  atomic energy  EATOM  =     58341.73154849
  Solvation  Ediel_sol  =         0.00000000
  ---------------------------------------------------
  free energy    TOTEN  =      -187.77256972 eV

  energy without entropy =     -187.77544756  energy(sigma->0) =     -187.77352900


--------------------------------------------------------------------------------------------------------




--------------------------------------- Iteration      1(   3)  ---------------------------------------


     EDDAV:  cpu time   75.3466: real time   75.5501
       DOS:  cpu time    0.0021: real time    0.0021
    --------------------------------------------
      LOOP:  cpu time   75.3487: real time   75.5522

 eigenvalue-minimisations  :  9620
 total energy-change (2. order) :-0.2985277E+03  (-0.2746708E+03)
 number of electron     801.0000000 magnetization      81.0000000
 augmentation part      801.0000000 magnetization      81.0000000

 Free energy of the ion-electron system (eV)
  ---------------------------------------------------
  alpha Z        PSCENC =      2539.23836485
  Ewald energy   TEWEN  =    179295.27290211
  -Hartree energ DENC   =   -243364.47711035
  -exchange      EXHF   =         0.00000000
  -V(xc)+E(xc)   XCENC  =       289.80171742
  PAW double counting   =     55685.49641431   -53423.17961727
  entropy T*S    EENTRO =         0.09220764
  eigenvalues    EBANDS =       149.72327439
  atomic energy  EATOM  =     58341.73154849
  Solvation  Ediel_sol  =         0.00000000
  ---------------------------------------------------
  free energy    TOTEN  =      -486.30029841 eV

  energy without entropy =     -486.39250604  energy(sigma->0) =     -486.33103428


--------------------------------------------------------------------------------------------------------




--------------------------------------- Iteration      1(   4)  ---------------------------------------


     EDDAV:  cpu time   77.8314: real time   78.0579
       DOS:  cpu time    0.0021: real time    0.0021
    --------------------------------------------
      LOOP:  cpu time   77.8335: real time   78.0600

 eigenvalue-minimisations  : 10070
 total energy-change (2. order) :-0.7913380E+01  (-0.7828257E+01)
 number of electron     801.0000000 magnetization      81.0000000
 augmentation part      801.0000000 magnetization      81.0000000

 Free energy of the ion-electron system (eV)
  ---------------------------------------------------
  alpha Z        PSCENC =      2539.23836485
  Ewald energy   TEWEN  =    179295.27290211
  -Hartree energ DENC   =   -243364.47711035
  -exchange      EXHF   =         0.00000000
  -V(xc)+E(xc)   XCENC  =       289.80171742
  PAW double counting   =     55685.49641431   -53423.17961727
  entropy T*S    EENTRO =         0.08928420
  eigenvalues    EBANDS =       141.81281804
  atomic energy  EATOM  =     58341.73154849
  Solvation  Ediel_sol  =         0.00000000
  ---------------------------------------------------
  free energy    TOTEN  =      -494.21367819 eV

  energy without entropy =     -494.30296239  energy(sigma->0) =     -494.24343959


--------------------------------------------------------------------------------------------------------




--------------------------------------- Iteration      1(   5)  ---------------------------------------


     EDDAV:  cpu time   76.2106: real time   76.4326
       DOS:  cpu time    0.0021: real time    0.0021
    CHARGE:  cpu time    5.0000: real time    5.0146
    MIXING:  cpu time    0.0101: real time    0.0111
    --------------------------------------------
      LOOP:  cpu time   81.2229: real time   81.4605

 eigenvalue-minimisations  :  9790
 total energy-change (2. order) :-0.2644583E+00  (-0.2637158E+00)
 number of electron     800.9999992 magnetization      75.7963307
 augmentation part      233.1089462 magnetization      54.9103899

 Broyden mixing:
  rms(total) = 0.10324E+02    rms(broyden)= 0.10324E+02
  rms(prec ) = 0.10453E+02
  weight for this iteration     100.00

 Free energy of the ion-electron system (eV)
  ---------------------------------------------------
  alpha Z        PSCENC =      2539.23836485
  Ewald energy   TEWEN  =    179295.27290211
  -Hartree energ DENC   =   -243364.47711035
  -exchange      EXHF   =         0.00000000
  -V(xc)+E(xc)   XCENC  =       289.80171742
  PAW double counting   =     55685.49641431   -53423.17961727
  entropy T*S    EENTRO =         0.08896943
  eigenvalues    EBANDS =       141.54867452
  atomic energy  EATOM  =     58341.73154849
  Solvation  Ediel_sol  =         0.00000000
  ---------------------------------------------------
  free energy    TOTEN  =      -494.47813648 eV

  energy without entropy =     -494.56710591  energy(sigma->0) =     -494.50779296


--------------------------------------------------------------------------------------------------------




--------------------------------------- Iteration      1(   6)  ---------------------------------------


    POTLOK:  cpu time    0.4568: real time    0.4579
    SETDIJ:  cpu time    0.0416: real time    0.0417
    EDDIAG:  cpu time   11.9881: real time   12.0233
  RMM-DIIS:  cpu time   43.1006: real time   43.2266
    ORTHCH:  cpu time    1.2391: real time    1.2429
       DOS:  cpu time    0.0022: real time    0.0022
    CHARGE:  cpu time    4.9742: real time    4.9887
    MIXING:  cpu time    0.0109: real time    0.0112
    --------------------------------------------
      LOOP:  cpu time   61.8136: real time   61.9945

 eigenvalue-minimisations  :  8526
 total energy-change (2. order) : 0.1651367E+02  (-0.8089283E+01)
 number of electron     800.9999990 magnetization      71.8066859
 augmentation part      245.9892215 magnetization      52.0556911

 Broyden mixing:
  rms(total) = 0.80224E+01    rms(broyden)= 0.80224E+01
  rms(prec ) = 0.88037E+01
  weight for this iteration     100.00

 eigenvalues of (default mixing * dielectric matrix)
  average eigenvalue GAMMA=   0.8420
  0.8420

 Free energy of the ion-electron system (eV)
  ---------------------------------------------------
  alpha Z        PSCENC =      2539.23836485
  Ewald energy   TEWEN  =    179295.27290211
  -Hartree energ DENC   =   -242392.78843704
  -exchange      EXHF   =         0.00000000
  -V(xc)+E(xc)   XCENC  =       272.23529353
  PAW double counting   =     62070.28190038   -59928.50193311
  entropy T*S    EENTRO =        -0.04586838
  eigenvalues    EBANDS =      -675.38823986
  atomic energy  EATOM  =     58341.73154849
  Solvation  Ediel_sol  =         0.00000000
  ---------------------------------------------------
  free energy    TOTEN  =      -477.96446901 eV

  energy without entropy =     -477.91860063  energy(sigma->0) =     -477.94917955


--------------------------------------------------------------------------------------------------------




--------------------------------------- Iteration      1(   7)  ---------------------------------------


    POTLOK:  cpu time    0.4571: real time    0.4582
    SETDIJ:  cpu time    0.0415: real time    0.0416
    EDDIAG:  cpu time   12.0009: real time   12.0361
  RMM-DIIS:  cpu time   42.1399: real time   42.2632
    ORTHCH:  cpu time    1.2392: real time    1.2427
       DOS:  cpu time    0.0022: real time    0.0022
    CHARGE:  cpu time    5.0399: real time    5.0545
    MIXING:  cpu time    0.0111: real time    0.0111
    --------------------------------------------
      LOOP:  cpu time   60.9318: real time   61.1096

 eigenvalue-minimisations  :  8507
 total energy-change (2. order) :-0.1087530E+03  (-0.1317774E+02)
 number of electron     800.9999996 magnetization      64.0087590
 augmentation part      239.7594540 magnetization      53.7686815

 Broyden mixing:
  rms(total) = 0.96271E+01    rms(broyden)= 0.96271E+01
  rms(prec ) = 0.12295E+02
  weight for this iteration     100.00

 eigenvalues of (default mixing * dielectric matrix)
  average eigenvalue GAMMA=   0.8061
  1.3230  0.2891

 Free energy of the ion-electron system (eV)
  ---------------------------------------------------
  alpha Z        PSCENC =      2539.23836485
  Ewald energy   TEWEN  =    179295.27290211
  -Hartree energ DENC   =   -243359.04953229
  -exchange      EXHF   =         0.00000000
  -V(xc)+E(xc)   XCENC  =       265.71337785
  PAW double counting   =     65497.69779736   -63393.58361721
  entropy T*S    EENTRO =        -0.08783498
  eigenvalues    EBANDS =       226.34950239
  atomic energy  EATOM  =     58341.73154849
  Solvation  Ediel_sol  =         0.00000000
  ---------------------------------------------------
  free energy    TOTEN  =      -586.71749143 eV

  energy without entropy =     -586.62965645  energy(sigma->0) =     -586.68821310


--------------------------------------------------------------------------------------------------------




--------------------------------------- Iteration      1(   8)  ---------------------------------------


    POTLOK:  cpu time    0.4545: real time    0.4556
    SETDIJ:  cpu time    0.0415: real time    0.0416
    EDDIAG:  cpu time   11.9976: real time   12.0327
  RMM-DIIS:  cpu time   42.4977: real time   42.6220
    ORTHCH:  cpu time    1.2402: real time    1.2437
       DOS:  cpu time    0.0023: real time    0.0023
    CHARGE:  cpu time    5.0108: real time    5.0254
    MIXING:  cpu time    0.0114: real time    0.0114
    --------------------------------------------
      LOOP:  cpu time   61.2559: real time   61.4345

 eigenvalue-minimisations  :  8531
 total energy-change (2. order) : 0.1178948E+03  (-0.6373663E+01)
 number of electron     800.9999994 magnetization      60.2344961
 augmentation part      249.7840046 magnetization      46.9735859

 Broyden mixing:
  rms(total) = 0.45454E+01    rms(broyden)= 0.45454E+01
  rms(prec ) = 0.51108E+01
  weight for this iteration     100.00

 eigenvalues of (default mixing * dielectric matrix)
  average eigenvalue GAMMA=   0.9287
  1.9711  0.5563  0.2585

 Free energy of the ion-electron system (eV)
  ---------------------------------------------------
  alpha Z        PSCENC =      2539.23836485
  Ewald energy   TEWEN  =    179295.27290211
  -Hartree energ DENC   =   -242532.56889139
  -exchange      EXHF   =         0.00000000
  -V(xc)+E(xc)   XCENC  =       265.53055789
  PAW double counting   =     70353.12355711   -68315.26930020
  entropy T*S    EENTRO =        -0.06344123
  eigenvalues    EBANDS =      -415.81800918
  atomic energy  EATOM  =     58341.73154849
  Solvation  Ediel_sol  =         0.00000000
  ---------------------------------------------------
  free energy    TOTEN  =      -468.82271155 eV

  energy without entropy =     -468.75927031  energy(sigma->0) =     -468.80156447


--------------------------------------------------------------------------------------------------------




--------------------------------------- Iteration      1(   9)  ---------------------------------------


    POTLOK:  cpu time    0.4580: real time    0.4595
    SETDIJ:  cpu time    0.0416: real time    0.0417
    EDDIAG:  cpu time   11.9887: real time   12.0237
  RMM-DIIS:  cpu time   42.2569: real time   42.3593
    ORTHCH:  cpu time    1.2071: real time    1.2099
       DOS:  cpu time    0.0022: real time    0.0022
    CHARGE:  cpu time    4.9410: real time    4.9527
    MIXING:  cpu time    0.0118: real time    0.0118
    --------------------------------------------
      LOOP:  cpu time   60.9073: real time   61.0608

 eigenvalue-minimisations  :  8513
 total energy-change (2. order) : 0.6563783E+01  (-0.5382753E+01)
 number of electron     800.9999990 magnetization      57.3658470
 augmentation part      249.7493468 magnetization      42.6924795

 Broyden mixing:
  rms(total) = 0.42858E+01    rms(broyden)= 0.42858E+01
  rms(prec ) = 0.55758E+01
  weight for this iteration     100.00

 eigenvalues of (default mixing * dielectric matrix)
  average eigenvalue GAMMA=   0.8328
  2.1984  0.5745  0.2436  0.3146

 Free energy of the ion-electron system (eV)
  ---------------------------------------------------
  alpha Z        PSCENC =      2539.23836485
  Ewald energy   TEWEN  =    179295.27290211
  -Hartree energ DENC   =   -242480.58295831
  -exchange      EXHF   =         0.00000000
  -V(xc)+E(xc)   XCENC  =       267.77253752
  PAW double counting   =     71519.02575103   -69488.41703442
  entropy T*S    EENTRO =        -0.14063996
  eigenvalues    EBANDS =      -456.15940032
  atomic energy  EATOM  =     58341.73154849
  Solvation  Ediel_sol  =         0.00000000
  ---------------------------------------------------
  free energy    TOTEN  =      -462.25892899 eV

  energy without entropy =     -462.11828903  energy(sigma->0) =     -462.21204901


--------------------------------------------------------------------------------------------------------




--------------------------------------- Iteration      1(  10)  ---------------------------------------


    POTLOK:  cpu time    0.4578: real time    0.4589
    SETDIJ:  cpu time    0.0411: real time    0.0412
    EDDIAG:  cpu time   11.9638: real time   11.9924
  RMM-DIIS:  cpu time   42.5072: real time   42.6097
    ORTHCH:  cpu time    1.2212: real time    1.2241
       DOS:  cpu time    0.0021: real time    0.0021
    CHARGE:  cpu time    5.0658: real time    5.0778
    MIXING:  cpu time    0.0120: real time    0.0120
    --------------------------------------------
      LOOP:  cpu time   61.2710: real time   61.4182

 eigenvalue-minimisations  :  8533
 total energy-change (2. order) :-0.4325776E+02  (-0.1270393E+01)
 number of electron     800.9999995 magnetization      55.1196644
 augmentation part      248.6357281 magnetization      41.5879692

 Broyden mixing:
  rms(total) = 0.61755E+01    rms(broyden)= 0.61755E+01
  rms(prec ) = 0.10256E+02
  weight for this iteration     100.00

 eigenvalues of (default mixing * dielectric matrix)
  average eigenvalue GAMMA=   0.7287
  2.2915  0.6205  0.3305  0.2700  0.1307

 Free energy of the ion-electron system (eV)
  ---------------------------------------------------
  alpha Z        PSCENC =      2539.23836485
  Ewald energy   TEWEN  =    179295.27290211
  -Hartree energ DENC   =   -242536.03347165
  -exchange      EXHF   =         0.00000000
  -V(xc)+E(xc)   XCENC  =       268.16378000
  PAW double counting   =     72161.54462848   -70133.82675370
  entropy T*S    EENTRO =         0.04569370
  eigenvalues    EBANDS =      -441.65338086
  atomic energy  EATOM  =     58341.73154849
  Solvation  Ediel_sol  =         0.00000000
  ---------------------------------------------------
  free energy    TOTEN  =      -505.51668856 eV

  energy without entropy =     -505.56238226  energy(sigma->0) =     -505.53191980


--------------------------------------------------------------------------------------------------------




--------------------------------------- Iteration      1(  11)  ---------------------------------------


    POTLOK:  cpu time    0.4563: real time    0.4573
    SETDIJ:  cpu time    0.0396: real time    0.0397
    EDDIAG:  cpu time   11.9828: real time   12.0114
  RMM-DIIS:  cpu time   42.5450: real time   42.6456
    ORTHCH:  cpu time    1.2443: real time    1.2473
       DOS:  cpu time    0.0022: real time    0.0022
    CHARGE:  cpu time    4.9792: real time    4.9910
    MIXING:  cpu time    0.0127: real time    0.0128
    --------------------------------------------
      LOOP:  cpu time   61.2622: real time   61.4073

 eigenvalue-minimisations  :  8540
 total energy-change (2. order) : 0.5573646E+02  (-0.7380627E+00)
 number of electron     800.9999990 magnetization      53.4556022
 augmentation part      248.9659497 magnetization      33.8966703

 Broyden mixing:
  rms(total) = 0.17386E+01    rms(broyden)= 0.17386E+01
  rms(prec ) = 0.21466E+01
  weight for this iteration     100.00

 eigenvalues of (default mixing * dielectric matrix)
  average eigenvalue GAMMA=   0.7080
  2.1541  0.7151  0.7151  0.2810  0.2810  0.1014

 Free energy of the ion-electron system (eV)
  ---------------------------------------------------
  alpha Z        PSCENC =      2539.23836485
  Ewald energy   TEWEN  =    179295.27290211
  -Hartree energ DENC   =   -242597.97489963
  -exchange      EXHF   =         0.00000000
  -V(xc)+E(xc)   XCENC  =       268.48569660
  PAW double counting   =     72574.20148955   -70549.32081639
  entropy T*S    EENTRO =         0.06664484
  eigenvalues    EBANDS =      -321.48115692
  atomic energy  EATOM  =     58341.73154849
  Solvation  Ediel_sol  =         0.00000000
  ---------------------------------------------------
  free energy    TOTEN  =      -449.78022648 eV

  energy without entropy =     -449.84687132  energy(sigma->0) =     -449.80244143


--------------------------------------------------------------------------------------------------------




--------------------------------------- Iteration      1(  12)  ---------------------------------------


    POTLOK:  cpu time    0.4592: real time    0.4603
    SETDIJ:  cpu time    0.0395: real time    0.0396
    EDDIAG:  cpu time   12.0168: real time   12.0453
  RMM-DIIS:  cpu time   42.7411: real time   42.8574
    ORTHCH:  cpu time    1.2425: real time    1.2459
       DOS:  cpu time    0.0021: real time    0.0021
    CHARGE:  cpu time    4.9980: real time    5.0125
    MIXING:  cpu time    0.0131: real time    0.0131
    --------------------------------------------
      LOOP:  cpu time   61.5122: real time   61.6763

 eigenvalue-minimisations  :  8540
 total energy-change (2. order) :-0.7213268E+01  (-0.4565364E+00)
 number of electron     800.9999992 magnetization      51.8050555
 augmentation part      248.4258197 magnetization      33.1290151

 Broyden mixing:
  rms(total) = 0.10872E+01    rms(broyden)= 0.10872E+01
  rms(prec ) = 0.13620E+01
  weight for this iteration     100.00

 eigenvalues of (default mixing * dielectric matrix)
  average eigenvalue GAMMA=   0.7418
  1.9095  1.0297  1.0297  0.5447  0.2884  0.2884  0.1023

 Free energy of the ion-electron system (eV)
  ---------------------------------------------------
  alpha Z        PSCENC =      2539.23836485
  Ewald energy   TEWEN  =    179295.27290211
  -Hartree energ DENC   =   -242637.02705930
  -exchange      EXHF   =         0.00000000
  -V(xc)+E(xc)   XCENC  =       265.43820874
  PAW double counting   =     72123.58925496   -70092.78889897
  entropy T*S    EENTRO =         0.12881937
  eigenvalues    EBANDS =      -292.57663454
  atomic energy  EATOM  =     58341.73154849
  Solvation  Ediel_sol  =         0.00000000
  ---------------------------------------------------
  free energy    TOTEN  =      -456.99349428 eV

  energy without entropy =     -457.12231365  energy(sigma->0) =     -457.03643407


--------------------------------------------------------------------------------------------------------




--------------------------------------- Iteration      1(  13)  ---------------------------------------


    POTLOK:  cpu time    0.4578: real time    0.4588
    SETDIJ:  cpu time    0.0398: real time    0.0399
    EDDIAG:  cpu time   12.0163: real time   12.0514
  RMM-DIIS:  cpu time   42.8010: real time   42.9257
    ORTHCH:  cpu time    1.2355: real time    1.2395
       DOS:  cpu time    0.0021: real time    0.0021
    CHARGE:  cpu time    4.9644: real time    4.9788
    MIXING:  cpu time    0.0133: real time    0.0133
    --------------------------------------------
      LOOP:  cpu time   61.5301: real time   61.7095

 eigenvalue-minimisations  :  8534
 total energy-change (2. order) :-0.3297292E+01  (-0.2194589E+00)
 number of electron     800.9999991 magnetization      50.1716670
 augmentation part      248.2411053 magnetization      31.6742867

 Broyden mixing:
  rms(total) = 0.10950E+01    rms(broyden)= 0.10950E+01
  rms(prec ) = 0.12524E+01
  weight for this iteration     100.00

 eigenvalues of (default mixing * dielectric matrix)
  average eigenvalue GAMMA=   0.7192
  1.8047  1.1331  1.1331  0.6863  0.3088  0.3088  0.2765  0.1023

 Free energy of the ion-electron system (eV)
  ---------------------------------------------------
  alpha Z        PSCENC =      2539.23836485
  Ewald energy   TEWEN  =    179295.27290211
  -Hartree energ DENC   =   -242629.00861759
  -exchange      EXHF   =         0.00000000
  -V(xc)+E(xc)   XCENC  =       264.22881790
  PAW double counting   =     71947.88353098   -69914.31890136
  entropy T*S    EENTRO =         0.15647268
  eigenvalues    EBANDS =      -305.47490409
  atomic energy  EATOM  =     58341.73154849
  Solvation  Ediel_sol  =         0.00000000
  ---------------------------------------------------
  free energy    TOTEN  =      -460.29078602 eV

  energy without entropy =     -460.44725870  energy(sigma->0) =     -460.34294358


--------------------------------------------------------------------------------------------------------




--------------------------------------- Iteration      1(  14)  ---------------------------------------


    POTLOK:  cpu time    0.4571: real time    0.4581
    SETDIJ:  cpu time    0.0400: real time    0.0401
    EDDIAG:  cpu time   11.9928: real time   12.0278
  RMM-DIIS:  cpu time   42.6996: real time   42.8241
    ORTHCH:  cpu time    1.2351: real time    1.2386
       DOS:  cpu time    0.0022: real time    0.0022
    CHARGE:  cpu time    4.9692: real time    4.9836
    MIXING:  cpu time    0.0139: real time    0.0140
    --------------------------------------------
      LOOP:  cpu time   61.4099: real time   61.5885

 eigenvalue-minimisations  :  8518
 total energy-change (2. order) :-0.1646120E+01  (-0.9657214E-01)
 number of electron     800.9999991 magnetization      47.7840247
 augmentation part      248.1945432 magnetization      29.5557693

 Broyden mixing:
  rms(total) = 0.83278E+00    rms(broyden)= 0.83278E+00
  rms(prec ) = 0.95207E+00
  weight for this iteration     100.00

 eigenvalues of (default mixing * dielectric matrix)
  average eigenvalue GAMMA=   0.7187
  1.9279  1.0708  1.0708  0.9796  0.4802  0.1023  0.2960  0.2960  0.2444

 Free energy of the ion-electron system (eV)
  ---------------------------------------------------
  alpha Z        PSCENC =      2539.23836485
  Ewald energy   TEWEN  =    179295.27290211
  -Hartree energ DENC   =   -242630.22746306
  -exchange      EXHF   =         0.00000000
  -V(xc)+E(xc)   XCENC  =       263.07326455
  PAW double counting   =     71986.13568431   -69952.76095505
  entropy T*S    EENTRO =         0.19103401
  eigenvalues    EBANDS =      -304.59128674
  atomic energy  EATOM  =     58341.73154849
  Solvation  Ediel_sol  =         0.00000000
  ---------------------------------------------------
  free energy    TOTEN  =      -461.93690652 eV

  energy without entropy =     -462.12794053  energy(sigma->0) =     -462.00058452


--------------------------------------------------------------------------------------------------------




--------------------------------------- Iteration      1(  15)  ---------------------------------------


    POTLOK:  cpu time    0.4570: real time    0.4584
    SETDIJ:  cpu time    0.0399: real time    0.0400
    EDDIAG:  cpu time   12.0069: real time   12.0417
  RMM-DIIS:  cpu time   42.7525: real time   42.8726
    ORTHCH:  cpu time    1.2383: real time    1.2412
       DOS:  cpu time    0.0021: real time    0.0021
    CHARGE:  cpu time    4.9639: real time    4.9756
    MIXING:  cpu time    0.0145: real time    0.0145
    --------------------------------------------
      LOOP:  cpu time   61.4751: real time   61.6462

 eigenvalue-minimisations  :  8515
 total energy-change (2. order) :-0.2069190E+01  (-0.8775013E-01)
 number of electron     800.9999992 magnetization      45.3239816
 augmentation part      248.1442514 magnetization      27.4755771

 Broyden mixing:
  rms(total) = 0.58041E+00    rms(broyden)= 0.58041E+00
  rms(prec ) = 0.63676E+00
  weight for this iteration     100.00

 eigenvalues of (default mixing * dielectric matrix)
  average eigenvalue GAMMA=   0.7388
  1.9869  1.5026  0.9673  0.9673  0.6152  0.4485  0.2889  0.2889  0.1023  0.2197

 Free energy of the ion-electron system (eV)
  ---------------------------------------------------
  alpha Z        PSCENC =      2539.23836485
  Ewald energy   TEWEN  =    179295.27290211
  -Hartree energ DENC   =   -242644.75921898
  -exchange      EXHF   =         0.00000000
  -V(xc)+E(xc)   XCENC  =       261.41820145
  PAW double counting   =     72129.71534177   -70097.95606161
  entropy T*S    EENTRO =         0.19041750
  eigenvalues    EBANDS =      -288.85759208
  atomic energy  EATOM  =     58341.73154849
  Solvation  Ediel_sol  =         0.00000000
  ---------------------------------------------------
  free energy    TOTEN  =      -464.00609649 eV

  energy without entropy =     -464.19651400  energy(sigma->0) =     -464.06956899


--------------------------------------------------------------------------------------------------------




--------------------------------------- Iteration      1(  16)  ---------------------------------------


    POTLOK:  cpu time    0.4639: real time    0.4650
    SETDIJ:  cpu time    0.0399: real time    0.0400
    EDDIAG:  cpu time   11.9948: real time   12.0232
  RMM-DIIS:  cpu time   42.7649: real time   42.8767
    ORTHCH:  cpu time    1.2124: real time    1.2159
       DOS:  cpu time    0.0021: real time    0.0021
    CHARGE:  cpu time    4.9673: real time    4.9817
    MIXING:  cpu time    0.0145: real time    0.0146
    --------------------------------------------
      LOOP:  cpu time   61.4598: real time   61.6190

 eigenvalue-minimisations  :  8515
 total energy-change (2. order) :-0.1876466E+01  (-0.8286072E-01)
 number of electron     800.9999992 magnetization      42.9442433
 augmentation part      248.1098909 magnetization      25.5722725

 Broyden mixing:
  rms(total) = 0.45603E+00    rms(broyden)= 0.45603E+00
  rms(prec ) = 0.49709E+00
  weight for this iteration     100.00

 eigenvalues of (default mixing * dielectric matrix)
  average eigenvalue GAMMA=   0.7559
  2.0183  2.0183  0.9227  0.9227  0.6989  0.5405  0.1023  0.2963  0.2963  0.2833
  0.2156

 Free energy of the ion-electron system (eV)
  ---------------------------------------------------
  alpha Z        PSCENC =      2539.23836485
  Ewald energy   TEWEN  =    179295.27290211
  -Hartree energ DENC   =   -242656.03533701
  -exchange      EXHF   =         0.00000000
  -V(xc)+E(xc)   XCENC  =       260.07383492
  PAW double counting   =     72188.71106061   -70157.52516390
  entropy T*S    EENTRO =         0.18534103
  eigenvalues    EBANDS =      -277.53511385
  atomic energy  EATOM  =     58341.73154849
  Solvation  Ediel_sol  =         0.00000000
  ---------------------------------------------------
  free energy    TOTEN  =      -465.88256274 eV

  energy without entropy =     -466.06790377  energy(sigma->0) =     -465.94434309


--------------------------------------------------------------------------------------------------------




--------------------------------------- Iteration      1(  17)  ---------------------------------------


    POTLOK:  cpu time    0.4619: real time    0.4633
    SETDIJ:  cpu time    0.0401: real time    0.0402
    EDDIAG:  cpu time   12.0135: real time   12.0487
  RMM-DIIS:  cpu time   42.8269: real time   42.9462
    ORTHCH:  cpu time    1.2337: real time    1.2366
       DOS:  cpu time    0.0020: real time    0.0020
    CHARGE:  cpu time    4.9579: real time    4.9697
    MIXING:  cpu time    0.0151: real time    0.0152
    --------------------------------------------
      LOOP:  cpu time   61.5511: real time   61.7218

 eigenvalue-minimisations  :  8523
 total energy-change (2. order) :-0.1405499E+01  (-0.5891628E-01)
 number of electron     800.9999992 magnetization      40.6260172
 augmentation part      248.0287309 magnetization      23.6815095

 Broyden mixing:
  rms(total) = 0.38072E+00    rms(broyden)= 0.38071E+00
  rms(prec ) = 0.40620E+00
  weight for this iteration     100.00

 eigenvalues of (default mixing * dielectric matrix)
  average eigenvalue GAMMA=   0.7985
  2.3006  2.3006  1.0096  1.0096  0.6683  0.6683  0.4573  0.1023  0.2932  0.2932
  0.2637  0.2152

 Free energy of the ion-electron system (eV)
  ---------------------------------------------------
  alpha Z        PSCENC =      2539.23836485
  Ewald energy   TEWEN  =    179295.27290211
  -Hartree energ DENC   =   -242659.17440207
  -exchange      EXHF   =         0.00000000
  -V(xc)+E(xc)   XCENC  =       259.17990281
  PAW double counting   =     72153.08149039   -70121.14880656
  entropy T*S    EENTRO =         0.19025029
  eigenvalues    EBANDS =      -275.65931237
  atomic energy  EATOM  =     58341.73154849
  Solvation  Ediel_sol  =         0.00000000
  ---------------------------------------------------
  free energy    TOTEN  =      -467.28806206 eV

  energy without entropy =     -467.47831234  energy(sigma->0) =     -467.35147882


--------------------------------------------------------------------------------------------------------




--------------------------------------- Iteration      1(  18)  ---------------------------------------


    POTLOK:  cpu time    0.4648: real time    0.4659
    SETDIJ:  cpu time    0.0399: real time    0.0400
    EDDIAG:  cpu time   12.0089: real time   12.0374
  RMM-DIIS:  cpu time   42.6460: real time   42.7468
    ORTHCH:  cpu time    1.2398: real time    1.2427
       DOS:  cpu time    0.0020: real time    0.0020
    CHARGE:  cpu time    5.0146: real time    5.0265
    MIXING:  cpu time    0.0158: real time    0.0158
    --------------------------------------------
      LOOP:  cpu time   61.4318: real time   61.5772

 eigenvalue-minimisations  :  8516
 total energy-change (2. order) :-0.9033695E+00  (-0.3568659E-01)
 number of electron     800.9999992 magnetization      36.8806495
 augmentation part      247.9717339 magnetization      20.2224541

 Broyden mixing:
  rms(total) = 0.33640E+00    rms(broyden)= 0.33640E+00
  rms(prec ) = 0.36384E+00
  weight for this iteration     100.00

 eigenvalues of (default mixing * dielectric matrix)
  average eigenvalue GAMMA=   0.9121
  3.8635  2.2257  1.1560  1.1560  0.7268  0.7268  0.5382  0.1023  0.2927  0.2927
  0.3176  0.2451  0.2139

 Free energy of the ion-electron system (eV)
  ---------------------------------------------------
  alpha Z        PSCENC =      2539.23836485
  Ewald energy   TEWEN  =    179295.27290211
  -Hartree energ DENC   =   -242655.80214264
  -exchange      EXHF   =         0.00000000
  -V(xc)+E(xc)   XCENC  =       258.49492161
  PAW double counting   =     72123.87803410   -70091.32765685
  entropy T*S    EENTRO =         0.19238427
  eigenvalues    EBANDS =      -279.86978751
  atomic energy  EATOM  =     58341.73154849
  Solvation  Ediel_sol  =         0.00000000
  ---------------------------------------------------
  free energy    TOTEN  =      -468.19143157 eV

  energy without entropy =     -468.38381583  energy(sigma->0) =     -468.25555966


--------------------------------------------------------------------------------------------------------




--------------------------------------- Iteration      1(  19)  ---------------------------------------


    POTLOK:  cpu time    0.4642: real time    0.4653
    SETDIJ:  cpu time    0.0398: real time    0.0399
    EDDIAG:  cpu time   11.9942: real time   12.0229
  RMM-DIIS:  cpu time   42.6012: real time   42.7197
    ORTHCH:  cpu time    1.2131: real time    1.2164
       DOS:  cpu time    0.0020: real time    0.0020
    CHARGE:  cpu time    5.0368: real time    5.0515
    MIXING:  cpu time    0.0163: real time    0.0163
    --------------------------------------------
      LOOP:  cpu time   61.3676: real time   61.5339

 eigenvalue-minimisations  :  8520
 total energy-change (2. order) :-0.7038144E+00  (-0.3489139E-01)
 number of electron     800.9999991 magnetization      35.0142729
 augmentation part      247.9594156 magnetization      18.9148948

 Broyden mixing:
  rms(total) = 0.28313E+00    rms(broyden)= 0.28313E+00
  rms(prec ) = 0.32813E+00
  weight for this iteration     100.00

 eigenvalues of (default mixing * dielectric matrix)
  average eigenvalue GAMMA=   0.9527
  4.8836  2.1571  1.2072  1.2072  0.7146  0.7146  0.6123  0.4174  0.1023  0.2902
  0.2902  0.2937  0.2335  0.2136

 Free energy of the ion-electron system (eV)
  ---------------------------------------------------
  alpha Z        PSCENC =      2539.23836485
  Ewald energy   TEWEN  =    179295.27290211
  -Hartree energ DENC   =   -242644.74772640
  -exchange      EXHF   =         0.00000000
  -V(xc)+E(xc)   XCENC  =       257.73756089
  PAW double counting   =     72126.06182936   -70093.39674424
  entropy T*S    EENTRO =         0.17937399
  eigenvalues    EBANDS =      -290.97235503
  atomic energy  EATOM  =     58341.73154849
  Solvation  Ediel_sol  =         0.00000000
  ---------------------------------------------------
  free energy    TOTEN  =      -468.89524597 eV

  energy without entropy =     -469.07461996  energy(sigma->0) =     -468.95503730


--------------------------------------------------------------------------------------------------------




--------------------------------------- Iteration      1(  20)  ---------------------------------------


    POTLOK:  cpu time    0.4759: real time    0.4776
    SETDIJ:  cpu time    0.0402: real time    0.0403
    EDDIAG:  cpu time   11.9754: real time   12.0105
  RMM-DIIS:  cpu time   42.7420: real time   42.8670
    ORTHCH:  cpu time    1.2222: real time    1.2257
       DOS:  cpu time    0.0021: real time    0.0021
[...]
   -.226E+00 -.813E+00 0.260E+04   0.228E+00 0.808E+00 -.260E+04   -.309E-01 0.638E-01 -.146E+01   0.130E-01 -.312E-01 -.131E+00
   -.315E+00 0.810E+00 0.260E+04   0.309E+00 -.763E+00 -.260E+04   -.193E-01 -.193E-01 -.146E+01   0.203E-01 -.298E-01 -.106E+00
   -.157E+00 0.104E-01 0.260E+04   0.163E+00 -.643E-02 -.260E+04   -.347E-01 0.259E-01 -.146E+01   0.130E-01 -.183E-01 -.922E-01
   -.801E+00 -.844E+00 0.132E+04   0.780E+00 0.754E+00 -.132E+04   0.558E-04 0.873E-02 -.679E+00   0.257E-01 0.935E-01 -.131E+00
   -.107E-01 0.885E+00 0.132E+04   0.581E-01 -.841E+00 -.132E+04   -.901E-02 -.220E-01 -.694E+00   -.407E-01 -.437E-01 -.113E+00
   0.779E-01 0.546E+00 -.131E+04   -.549E-01 -.566E+00 0.131E+04   0.172E-01 -.218E-01 0.706E+00   -.339E-01 0.360E-01 0.135E+00
   -.304E+00 -.608E-01 0.260E+04   0.314E+00 0.139E-01 -.260E+04   0.658E-02 0.351E-01 -.145E+01   -.158E-01 0.211E-01 -.866E-01
   0.185E+01 -.283E-01 0.132E+04   -.185E+01 -.298E-01 -.132E+04   -.687E-01 -.799E-02 -.704E+00   0.237E-01 0.601E-01 -.116E+00
   0.334E-01 -.231E+00 0.415E+01   -.221E-01 0.272E+00 -.415E+01   0.110E-01 0.152E-01 -.348E-01   -.204E-01 -.502E-01 0.367E-01
   0.293E+00 -.315E+00 -.131E+04   -.257E+00 0.279E+00 0.131E+04   -.297E-02 0.127E-02 0.706E+00   -.298E-01 0.315E-01 0.165E+00
   0.296E+01 0.211E+01 -.133E+04   -.299E+01 -.207E+01 0.133E+04   0.572E-01 0.142E-01 0.669E+00   -.162E-01 -.604E-01 0.110E+00
   -.764E+00 -.158E+00 -.131E+04   0.888E+00 0.175E+00 0.131E+04   -.156E+00 -.958E-01 0.572E+00   0.334E-01 0.747E-01 0.138E+00
   0.761E+00 -.115E+01 0.260E+04   -.712E+00 0.112E+01 -.260E+04   -.479E-01 0.249E-01 -.144E+01   -.240E-01 0.171E-01 -.108E+00
   0.358E-01 0.869E-01 0.260E+04   -.169E-01 -.666E-01 -.260E+04   0.695E-02 0.206E-01 -.146E+01   -.155E-01 -.278E-01 -.782E-01
   -.102E-01 0.308E+00 0.260E+04   0.228E-01 -.338E+00 -.260E+04   -.195E-01 -.185E-01 -.144E+01   0.488E-02 0.437E-01 -.952E-01
   -.282E+00 -.246E+00 0.132E+04   0.298E+00 0.273E+00 -.132E+04   0.156E-01 0.111E-01 -.709E+00   -.305E-01 -.317E-01 -.152E+00
   0.911E+00 0.324E+00 0.754E+01   -.844E+00 -.209E+00 -.757E+01   0.150E-01 0.316E-02 0.993E-02   -.852E-01 -.118E+00 0.192E-01
   0.206E+00 -.435E-01 0.132E+04   -.218E+00 0.108E+00 -.132E+04   0.240E-01 0.108E-01 -.718E+00   -.104E-02 -.784E-01 -.137E+00
   0.963E+00 0.449E+00 0.132E+04   -.973E+00 -.482E+00 -.132E+04   -.110E-01 -.242E-01 -.650E+00   0.134E-02 0.447E-01 -.839E-01
   -.613E-01 0.555E+00 -.131E+04   0.582E-01 -.643E+00 0.131E+04   0.215E-02 0.182E+00 0.546E+00   0.140E-02 -.940E-01 0.145E+00
   0.674E+00 0.320E+00 0.260E+04   -.643E+00 -.296E+00 -.260E+04   -.316E-01 0.190E-01 -.144E+01   -.120E-01 -.439E-01 -.937E-01
   0.384E-01 0.360E+00 0.132E+04   -.112E-01 -.288E+00 -.132E+04   0.460E-01 0.117E-01 -.696E+00   -.490E-01 -.760E-01 -.977E-01
   0.327E+00 0.240E+01 0.434E+01   -.316E+00 -.237E+01 -.437E+01   0.837E-02 -.256E-01 0.270E-01   -.201E-01 -.149E-01 0.961E-02
   0.840E+00 0.873E-01 -.259E+04   -.901E+00 -.818E-01 0.259E+04   -.143E-01 -.916E-02 0.136E+01   0.737E-01 0.363E-03 0.121E+00
   0.303E+01 0.100E+01 -.259E+04   -.304E+01 -.102E+01 0.259E+04   -.200E-02 -.325E-02 0.139E+01   0.769E-02 0.166E-01 0.650E-01
   0.571E+00 -.328E+01 -.259E+04   -.603E+00 0.330E+01 0.259E+04   0.250E-01 -.952E-02 0.139E+01   0.183E-01 -.122E-01 0.887E-01
   -.285E+01 0.663E+00 -.259E+04   0.289E+01 -.680E+00 0.259E+04   0.182E-01 0.178E-02 0.139E+01   -.439E-01 0.138E-01 0.506E-01
   -.806E+00 -.318E+01 -.259E+04   0.832E+00 0.322E+01 0.259E+04   -.379E-02 -.343E-02 0.140E+01   -.223E-01 -.361E-01 0.922E-01
   -.220E+01 0.213E+01 -.259E+04   0.216E+01 -.218E+01 0.259E+04   0.265E-01 -.164E-01 0.139E+01   0.173E-01 0.611E-01 0.735E-01
   -.119E+00 0.771E-02 -.259E+04   0.140E+00 -.233E-01 0.259E+04   0.102E-01 -.332E-02 0.142E+01   -.244E-01 0.156E-01 0.782E-01
   -.687E+00 0.339E+00 -.259E+04   0.754E+00 -.304E+00 0.259E+04   0.891E-02 -.133E-01 0.136E+01   -.712E-01 -.255E-01 0.124E+00
   0.160E+00 -.853E+00 -.259E+04   -.136E+00 0.921E+00 0.259E+04   0.889E-03 0.373E-01 0.136E+01   -.198E-01 -.962E-01 0.961E-01
   0.244E+01 0.222E+01 -.259E+04   -.241E+01 -.225E+01 0.259E+04   -.150E-01 -.186E-01 0.139E+01   -.161E-01 0.457E-01 0.921E-01
   -.525E+00 -.746E+01 -.258E+04   0.496E+00 0.820E+01 0.258E+04   0.300E-01 -.773E+00 0.833E+00   0.913E-02 -.111E-01 0.429E-01
   -.699E+01 0.403E+01 -.259E+04   0.762E+01 -.444E+01 0.258E+04   -.662E+00 0.386E+00 0.903E+00   0.254E-01 0.237E-01 0.237E-01
   -.345E+01 0.229E+01 -.259E+04   0.307E+01 -.206E+01 0.259E+04   0.332E+00 -.193E+00 0.151E+01   0.374E-01 -.445E-01 0.699E-01
   -.399E+00 -.421E+01 -.259E+04   0.368E+00 0.375E+01 0.259E+04   0.180E-01 0.348E+00 0.151E+01   0.189E-01 0.975E-01 0.848E-01
   -.202E+00 -.364E+01 -.133E+04   0.167E+00 0.358E+01 0.133E+04   0.593E-02 -.552E-01 0.667E+00   0.337E-01 0.115E+00 0.116E+00
   0.541E+00 -.610E+00 0.260E+04   -.540E+00 0.506E+00 -.260E+04   -.254E-01 0.706E-01 -.146E+01   0.173E-01 0.539E-01 -.964E-01
   0.454E+00 -.168E+01 -.131E+04   -.409E+00 0.161E+01 0.131E+04   -.257E-01 -.298E-01 0.740E+00   -.238E-01 0.102E+00 0.158E+00
   -.156E+00 -.839E+00 0.260E+04   0.161E+00 0.804E+00 -.260E+04   -.225E-01 0.722E-02 -.145E+01   0.831E-02 0.285E-01 -.131E+00
   0.118E+01 -.484E+00 0.132E+04   -.115E+01 0.482E+00 -.132E+04   -.204E-01 0.121E-01 -.701E+00   -.222E-01 0.178E-02 -.104E+00
   -.692E+00 -.427E+00 0.132E+04   0.689E+00 0.405E+00 -.132E+04   0.245E-01 0.178E-01 -.720E+00   -.354E-02 0.154E-01 -.108E+00
   -.243E+00 -.386E+00 -.131E+04   0.228E+00 0.334E+00 0.131E+04   0.277E-01 -.185E-02 0.707E+00   -.628E-02 0.502E-01 0.165E+00
   0.290E+00 -.269E+00 0.260E+04   -.250E+00 0.253E+00 -.260E+04   -.555E-01 -.277E-02 -.145E+01   -.388E-02 0.191E-01 -.969E-01
   0.648E+00 0.696E+00 0.132E+04   -.652E+00 -.664E+00 -.132E+04   -.300E-01 -.231E-01 -.688E+00   0.158E-01 -.293E-01 -.116E+00
   0.626E+01 0.423E+01 -.259E+04   -.699E+01 -.467E+01 0.259E+04   0.745E+00 0.398E+00 0.970E+00   0.613E-02 0.290E-01 0.402E-01
   -.507E+00 0.216E+00 -.470E+01   0.481E+00 -.234E+00 0.469E+01   0.286E-02 0.265E-02 -.897E-01   0.243E-01 0.184E-01 0.811E-01
   0.377E+01 0.285E+01 -.259E+04   -.339E+01 -.258E+01 0.259E+04   -.332E+00 -.220E+00 0.153E+01   -.326E-01 -.609E-01 0.559E-01
   -.913E+00 -.127E+00 0.132E+04   0.939E+00 0.629E-01 -.132E+04   0.469E-02 0.837E-02 -.725E+00   -.253E-01 0.598E-01 -.118E+00
   0.429E+00 0.276E+00 0.132E+04   -.389E+00 -.316E+00 -.132E+04   -.329E-01 -.455E-02 -.703E+00   -.241E-01 0.394E-01 -.116E+00
   -.855E+00 0.233E+00 0.626E+01   0.778E+00 -.135E+00 -.626E+01   0.776E-03 -.243E-02 -.695E-03   0.798E-01 -.955E-01 0.696E-02
   0.117E+01 0.908E+00 -.131E+04   -.114E+01 -.817E+00 0.131E+04   0.491E-01 0.636E-02 0.736E+00   -.774E-01 -.925E-01 0.152E+00
   -.321E+01 0.208E+01 -.133E+04   0.321E+01 -.206E+01 0.133E+04   -.513E-01 0.169E-01 0.673E+00   0.530E-01 -.444E-01 0.111E+00
   0.591E-01 0.530E+00 0.260E+04   -.499E-01 -.498E+00 -.260E+04   0.612E-02 0.127E-01 -.144E+01   -.175E-01 -.356E-01 -.893E-01
   0.790E-01 -.200E+00 0.260E+04   -.108E+00 0.204E+00 -.260E+04   0.985E-02 0.228E-01 -.146E+01   0.201E-01 -.102E-01 -.811E-01
   -.109E+00 0.136E+01 0.132E+04   0.941E-01 -.132E+01 -.132E+04   0.313E-01 -.282E-01 -.657E+00   0.103E-02 -.513E-01 -.813E-01
   -.180E+01 -.485E+00 0.132E+04   0.178E+01 0.430E+00 -.132E+04   0.355E-01 0.647E-02 -.690E+00   0.244E-01 0.590E-01 -.897E-01
   -.173E+01 -.108E+01 0.201E+01   0.174E+01 0.101E+01 -.204E+01   0.168E-01 0.828E-02 -.252E-02   -.192E-01 0.634E-01 0.328E-01
   0.636E+00 -.254E+00 -.131E+04   -.772E+00 0.275E+00 0.131E+04   0.180E+00 -.101E+00 0.565E+00   -.373E-01 0.750E-01 0.138E+00
   0.205E+00 -.169E+00 0.260E+04   -.205E+00 0.134E+00 -.260E+04   -.516E-02 0.205E-01 -.144E+01   -.641E-02 0.310E-01 -.825E-01
   0.245E+00 0.489E-02 0.660E+01   -.295E+00 -.193E-01 -.659E+01   -.920E-02 -.128E-01 -.208E-01   0.571E-01 0.270E-01 0.141E-01
   0.312E+00 0.179E+01 0.217E+01   -.319E+00 -.164E+01 -.224E+01   0.448E-01 -.226E-01 0.194E-01   -.388E-01 -.123E+00 0.460E-01
   0.187E+01 -.411E+00 0.233E+01   -.181E+01 0.374E+00 -.242E+01   0.744E-02 0.507E-01 0.245E-01   -.675E-01 -.110E-01 0.622E-01
   -.418E+00 0.138E+01 0.147E+01   0.405E+00 -.125E+01 -.153E+01   -.278E-01 -.304E-01 0.155E-01   0.447E-01 -.973E-01 0.324E-01
   -.446E+00 0.276E+00 0.542E+01   0.487E+00 -.273E+00 -.541E+01   0.198E-01 -.499E-02 -.287E-01   -.563E-01 -.149E-03 0.188E-01
   -.126E+01 0.156E+00 0.132E+04   0.121E+01 -.110E+00 -.132E+04   0.255E-01 -.119E-02 -.720E+00   0.491E-01 -.472E-01 -.109E+00
   -.115E+00 -.126E+01 0.797E+01   0.953E-01 0.121E+01 -.800E+01   0.236E-02 -.396E-02 0.720E-02   0.176E-01 0.634E-01 0.117E-01
   -.485E+00 -.160E+01 -.131E+04   0.406E+00 0.151E+01 0.131E+04   0.311E-01 -.342E-01 0.737E+00   0.569E-01 0.124E+00 0.154E+00
   0.146E+01 0.597E+00 -.131E+04   -.139E+01 -.524E+00 0.131E+04   0.181E-01 0.275E-01 0.743E+00   -.838E-01 -.104E+00 0.162E+00
   0.407E+00 -.559E+00 0.260E+04   -.404E+00 0.516E+00 -.260E+04   -.411E-01 0.221E-01 -.145E+01   0.196E-01 0.308E-01 -.121E+00
   0.492E+00 0.358E+00 0.260E+04   -.450E+00 -.316E+00 -.260E+04   -.291E-01 0.981E-02 -.144E+01   -.213E-01 -.479E-01 -.113E+00
   -.183E+01 -.704E+00 -.794E-01   0.175E+01 0.654E+00 0.243E-01   0.113E-01 0.459E-01 0.768E-02   0.639E-01 0.830E-02 0.416E-01
   0.212E+01 -.864E+00 0.378E+01   -.210E+01 0.796E+00 -.383E+01   -.830E-04 0.648E-02 0.374E-02   -.222E-01 0.625E-01 0.397E-01
   -.182E+00 -.930E+00 0.132E+04   0.132E+00 0.950E+00 -.132E+04   -.113E-02 0.870E-02 -.707E+00   0.555E-01 -.160E-01 -.157E+00
   0.132E+01 -.105E+01 0.344E+01   -.130E+01 0.940E+00 -.354E+01   -.367E-01 -.224E-01 0.287E-01   0.150E-01 0.133E+00 0.643E-01
   -.191E+01 -.859E+00 0.101E+01   0.185E+01 0.749E+00 -.109E+01   0.387E-01 -.234E-01 0.152E-01   0.247E-01 0.131E+00 0.561E-01
   0.229E+00 0.462E+00 -.303E+03   -.274E+00 -.546E+00 0.305E+03   0.293E-01 0.516E-01 -.132E+01   0.166E-02 -.249E-02 0.706E-03
 -----------------------------------------------------------------------------------------------
   -.940E-01 -.197E+00 0.289E+01   -.105E-11 -.322E-12 -.449E-11   0.138E+00 0.176E+00 -.360E+01   -.258E-01 0.110E-01 0.656E+00
 
 
 POSITION                                       TOTAL-FORCE (eV/Angst)
 -----------------------------------------------------------------------------------
     13.68541      8.44924      7.19177         0.001624     -0.000855      0.018763
      5.26911      8.45106      7.19431         0.004181     -0.002363      0.000478
      3.86788      6.02007      7.19565         0.003977      0.005904      0.003482
     13.70654      8.42728      0.51102        -0.016421      0.026433      0.007015
      5.28962      8.43452      0.51547        -0.005957     -0.001403     -0.019365
      3.88365      6.00101      0.51887        -0.015516      0.011423     -0.030855
      8.08602      1.96007      2.77646         0.004118      0.011883      0.041600
      9.48873      9.24927      2.77843        -0.002552     -0.021182      0.019757
      2.46327      3.59208      7.19688         0.005887     -0.006995     -0.000618
      2.48119      3.57320      0.52095         0.000672      0.009550     -0.022425
     10.89453      1.96338      2.77915        -0.049422     -0.005318      0.011983
     13.68827      5.20587      4.99002         0.001132      0.005089     -0.000229
      3.86755      1.16251      7.19667         0.002734     -0.004074      0.003224
      9.47384      6.02155      7.22216        -0.000899     -0.012046     -0.014811
      5.27717      3.59533      7.20587         0.003927     -0.002227      0.010231
      3.89084      1.14281      0.51684        -0.022738      0.011745     -0.007886
      9.48961      6.00076      0.51053         0.009009      0.013184     -0.001944
      5.28635      3.57440      0.51936        -0.002801     -0.003116     -0.023533
     12.29176      9.24791      2.77616         0.001053      0.006310      0.012358
     12.28318      7.63407      4.98473        -0.004345     -0.001407      0.006723
     13.69100      6.81947      2.77931         0.011031     -0.003124      0.006538
      9.48405      4.39339      2.77805        -0.019534     -0.011991      0.050656
      8.07489      8.44802      7.20426         0.000300     -0.003793     -0.006878
      8.09511      8.43357      0.51232        -0.013415      0.000036     -0.011878
     10.88220      6.81926      2.77533         0.023653      0.007088      0.027655
      2.46806      0.34925      4.98717        -0.000318     -0.005489      0.006749
     15.08528      9.26540      9.46201        -0.001153     -0.003281      0.010772
      3.85613      4.40601      9.46423         0.005262     -0.001922      0.001445
      6.66126      9.27716      9.46356         0.010271     -0.005603     -0.001236
     12.28853      4.40566      9.46424         0.004431     -0.000562     -0.002972
      9.48219      9.27686      9.46416         0.000230     -0.001998      0.000080
     10.87885      1.97017      9.46362         0.007106      0.000240     -0.003797
      2.46048      1.97695      9.45933         0.007050     -0.003261      0.009736
     12.28227      9.26569      9.46197         0.004030     -0.003024      0.012669
     13.68370      6.83290      9.46259         0.004277      0.008165      0.007873
      5.26593      1.97071      9.46415         0.002543      0.000794      0.000306
      8.07058      6.89652      9.50697         0.008962     -0.012876      0.008413
      9.51739      4.38430      9.50877         0.014502     -0.013933     -0.008058
      5.24026      6.85241      9.46522        -0.009923     -0.000099     -0.017054
      8.07115      1.94893      9.46503         0.006061     -0.016112     -0.010519
      8.07560      3.59574      7.22183         0.004984      0.007142     -0.011484
      8.09191      3.56907      0.51397        -0.006958      0.020029     -0.005212
      6.67455      1.16140      7.19434        -0.003695      0.002450      0.004061
      6.69286      1.14109      0.51288        -0.010156      0.000954     -0.010478
     12.29090      4.39183      2.78069        -0.019071      0.012187      0.010515
      3.87581      4.39147      2.78538         0.017307      0.011891      0.001488
      1.05945      1.16287      7.19551         0.006393     -0.004708      0.001987
      1.08491      1.14450      0.51699        -0.018753      0.001216     -0.011526
      6.68437      9.25083      2.77908        -0.017954     -0.020580      0.024533
      6.62845      4.38689      9.50945        -0.006885     -0.019898     -0.011134
      8.07797      5.20736      5.00219         0.000950      0.003227     -0.020739
     10.90424      6.85382      9.46514         0.016660     -0.007853     -0.018118
      5.28319      1.96157      2.78321         0.004548      0.004430     -0.005036
      2.47851      1.96223      2.78227        -0.017323     -0.004600     -0.079967
     15.09198      7.63559      4.98660         0.005288     -0.000757      0.004763
     12.28039      6.02018      7.19515         0.001629      0.004264      0.003872
      6.67605      6.02204      7.22195         0.004265     -0.007619     -0.010964
     12.29829      6.00113      0.51194        -0.002312      0.009283     -0.002895
      6.68691      6.00129      0.51520        -0.000447      0.017032     -0.003272
      8.07921      6.82164      2.77918         0.017695     -0.029742      0.043791
      6.68039      4.39150      2.78372         0.036194      0.009627      0.022833
      3.87150      2.77632      4.99098         0.000833      0.000844      0.000644
     10.87318      3.59542      7.20352         0.003430     -0.003109      0.009371
     10.89752      3.57168      0.51302        -0.011044      0.016474     -0.008201
     10.88490      0.34813      4.98659        -0.000883      0.000880     -0.000059
      9.47701      7.63352      4.99115        -0.001606      0.003126     -0.006664
     10.87854      5.20599      4.99083         0.002444      0.002143     -0.004438
      6.67707      7.63444      4.99256         0.005228      0.001285     -0.006436
      5.27238      0.34669      4.98816         0.004053     -0.001171      0.001894
      5.27521      6.82118      2.78175         0.025718     -0.002159      0.012985
      8.07847      0.34635      4.98453         0.001719      0.011424     -0.000199
      9.47607      1.16254      7.19357         0.008908      0.002084      0.004258
     10.88003      8.45026      7.19406        -0.001630     -0.004224      0.003890
      9.50070      1.14041      0.51284        -0.018930      0.009807     -0.004029
     10.90067      8.43177      0.50832        -0.009343      0.005435      0.004416
      5.27679      5.20627      4.99481         0.001548      0.002828     -0.006692
     12.28841      2.77728      4.98830         0.001053     -0.000102     -0.001333
     15.09880      9.24910      2.77752         0.004517      0.012767      0.013483
      9.48042      2.78010      4.98969         0.001332     -0.000196     -0.006739
      6.67920      2.78015      4.99307         0.000772     -0.001348     -0.005438
      8.08522      5.24527     10.34141        -0.013510     -0.034550     -0.022180
 -----------------------------------------------------------------------------------
    total drift:                                0.018036     -0.009754     -0.054429


--------------------------------------------------------------------------------------------------------



  FREE ENERGIE OF THE ION-ELECTRON SYSTEM (eV)
  ---------------------------------------------------
  free  energy   TOTEN  =      -517.10437968 eV

  energy  without entropy=     -517.25164215  energy(sigma->0) =     -517.15346717
 
 d Force = 0.1122076E-02[ 0.615E-03, 0.163E-02]  d Energy = 0.1102110E-02 0.200E-04
 d Force = 0.4170809E+01[ 0.417E+01, 0.418E+01]  d Ewald  = 0.4170812E+01-0.247E-05


--------------------------------------------------------------------------------------------------------


    POTLOK:  cpu time    0.5247: real time    0.5261


--------------------------------------------------------------------------------------------------------


 Conjugate gradient step on ions:
 trial-energy change:   -0.001102  1 .order   -0.001122   -0.001629   -0.000615
  (g-gl).g = 0.974E-03      g.g   = 0.107E-02  gl.gl    = 0.243E-02
 g(Force)  = 0.107E-02   g(Stress)= 0.000E+00 ortho     = 0.906E-04
 gamma     =   0.40157
 trial     =   1.47095
 opt step  =   2.36316  (harmonic =   2.36316) maximal distance =0.00311524
 next E    =  -517.104586   (d E  =  -0.00131)


--------------------------------------------------------------------------------------------------------


  
 reached required accuracy - stopping structural energy minimisation
     LOOP+:  cpu time  515.8203: real time  517.3203
    4ORBIT:  cpu time    0.0000: real time    0.0000

 total amount of memory used by VASP MPI-rank0   262817. kBytes
=======================================================================

   base      :      30000. kBytes
   nonlr-proj:      37979. kBytes
   fftplans  :      20287. kBytes
   grid      :      52194. kBytes
   one-center:        653. kBytes
   wavefun   :     121704. kBytes
 
  
  
 General timing and accounting informations for this job:
 ========================================================
  
                  Total CPU time used (sec):    13107.799
                            User time (sec):    13096.985
                          System time (sec):       10.813
                         Elapsed time (sec):    13147.330
  
                   Maximum memory used (kb):      888096.
                   Average memory used (kb):           0.
  
                          Minor page faults:      3384100
                          Major page faults:            0
                 Voluntary context switches:         4309
