 vasp.5.4.4.18Apr17-6-g9f103f2a35 (build Nov 30 2020 22:55:02) complex          
  
 executed on             LinuxIFC date 2023.09.08  21:34:52
 running on   40 total cores
 distrk:  each k-point on   40 cores,    1 groups
 distr:  one band on NCORES_PER_BAND=   4 cores,   10 groups


--------------------------------------------------------------------------------------------------------


 INCAR:
 POTCAR:    PAW_PBE Pt 04Feb2005                  
 POTCAR:    PAW_PBE H 15Jun2001                   
 POTCAR:    PAW_PBE Pt 04Feb2005                  
   VRHFIN =Pt: s1d9                                                             
   LEXCH  = PE                                                                  
   EATOM  =   729.1176 eV,   53.5886 Ry                                         
                                                                                
   TITEL  = PAW_PBE Pt 04Feb2005                                                
   LULTRA =        F    use ultrasoft PP ?                                      
   IUNSCR =        1    unscreen: 0-lin 1-nonlin 2-no                           
   RPACOR =    2.330    partial core radius                                     
   POMASS =  195.080; ZVAL   =   10.000    mass and valenz                      
   RCORE  =    2.600    outmost cutoff radius                                   
   RWIGS  =    2.750; RWIGS  =    1.455    wigner-seitz radius (au A)           
   ENMAX  =  230.283; ENMIN  =  172.712 eV                                      
   ICORE  =        3    local potential                                         
   LCOR   =        T    correct aug charges                                     
   LPAW   =        T    paw PP                                                  
   EAUG   =  358.966                                                            
   DEXC   =    0.000                                                            
   RMAX   =    2.658    core radius for proj-oper                               
   RAUG   =    1.300    factor for augmentation sphere                          
   RDEP   =    2.761    radius for radial grids                                 
   RDEPT  =    2.203    core radius for aug-charge                              
                                                                                
   Atomic configuration                                                         
   16 entries                                                                   
     n  l   j            E        occ.                                          
     1  0  0.50    -78401.1885   2.0000                                         
     2  0  0.50    -13770.7750   2.0000                                         
     2  1  1.50    -11931.0468   6.0000                                         
     3  0  0.50     -3234.7234   2.0000                                         
     3  1  1.50     -2699.2216   6.0000                                         
     3  2  2.50     -2119.5714  10.0000                                         
     4  0  0.50      -695.1528   2.0000                                         
     4  1  1.50      -519.6034   6.0000                                         
     4  2  2.50      -306.6786  10.0000                                         
     4  3  3.50       -70.1041  14.0000                                         
     5  0  0.50      -101.7747   2.0000                                         
     5  1  1.50       -55.9873   6.0000                                         
     5  2  2.50        -6.1423   9.0000                                         
     6  0  0.50        -5.6573   1.0000                                         
     6  1  1.50        -6.8029   0.0000                                         
     5  3  2.50        -1.3606   0.0000                                         
   Description                                                                  
     l       E           TYP  RCUT    TYP  RCUT                                 
     2     -6.1423404     23  2.500                                             
     2     -7.5029230     23  2.500                                             
     0     -5.6573207     23  2.500                                             
     0      0.7416693     23  2.500                                             
     1     -2.7211652     23  2.600                                             
     1     20.4087390     23  2.600                                             
     3     -1.3605826     23  2.500                                             
  local pseudopotential read in
  partial core-charges read in
  partial kinetic energy density read in
  atomic valenz-charges read in
  non local Contribution for L=           2  read in
    real space projection operators read in
  non local Contribution for L=           2  read in
    real space projection operators read in
  non local Contribution for L=           0  read in
    real space projection operators read in
  non local Contribution for L=           0  read in
    real space projection operators read in
  non local Contribution for L=           1  read in
    real space projection operators read in
  non local Contribution for L=           1  read in
    real space projection operators read in
    PAW grid and wavefunctions read in
 
   number of l-projection  operators is LMAX  =           6
   number of lm-projection operators is LMMAX =          18
 
 POTCAR:    PAW_PBE H 15Jun2001                   
   VRHFIN =H: ultrasoft test                                                    
   LEXCH  = PE                                                                  
   EATOM  =    12.4884 eV,    0.9179 Ry                                         
                                                                                
   TITEL  = PAW_PBE H 15Jun2001                                                 
   LULTRA =        F    use ultrasoft PP ?                                      
   IUNSCR =        0    unscreen: 0-lin 1-nonlin 2-no                           
   RPACOR =    0.000    partial core radius                                     
   POMASS =    1.000; ZVAL   =    1.000    mass and valenz                      
   RCORE  =    1.100    outmost cutoff radius                                   
   RWIGS  =    0.700; RWIGS  =    0.370    wigner-seitz radius (au A)           
   ENMAX  =  250.000; ENMIN  =  200.000 eV                                      
   RCLOC  =    0.701    cutoff for local pot                                    
   LCOR   =        T    correct aug charges                                     
   LPAW   =        T    paw PP                                                  
   EAUG   =  400.000                                                            
   RMAX   =    1.123    core radius for proj-oper                               
   RAUG   =    1.200    factor for augmentation sphere                          
   RDEP   =    1.112    radius for radial grids                                 
   RDEPT  =    0.926    core radius for aug-charge                              
                                                                                
   Atomic configuration                                                         
    2 entries                                                                   
     n  l   j            E        occ.                                          
     1  0  0.50        -6.4927   1.0000                                         
     2  1  0.50        -3.4015   0.0000                                         
   Description                                                                  
     l       E           TYP  RCUT    TYP  RCUT                                 
     0     -6.4927494     23  1.100                                             
     0      6.8029130     23  1.100                                             
     1     -4.0817478     23  1.100                                             
  local pseudopotential read in
  atomic valenz-charges read in
  non local Contribution for L=           0  read in
    real space projection operators read in
  non local Contribution for L=           0  read in
    real space projection operators read in
  non local Contribution for L=           1  read in
    real space projection operators read in
    PAW grid and wavefunctions read in
 
   number of l-projection  operators is LMAX  =           3
   number of lm-projection operators is LMMAX =           5
 
 Optimization of the real space projectors (new method)

 maximal supplied QI-value         = 14.36
 optimisation between [QCUT,QGAM] = [ 11.92, 23.98] = [ 39.79,161.09] Ry 
 Optimized for a Real-space Cutoff    1.49 Angstroem

   l    n(q)    QCUT    max X(q) W(low)/X(q) W(high)/X(q)  e(spline) 
   2     10    11.920    66.195    0.79E-04    0.18E-03    0.24E-06
   2     10    11.920    64.643    0.81E-04    0.19E-03    0.24E-06
   0     11    11.920    95.520    0.28E-04    0.54E-04    0.18E-06
   0     11    11.920    63.403    0.27E-04    0.52E-04    0.17E-06
   1     10    11.920    19.961    0.18E-04    0.11E-03    0.23E-06
   1     10    11.920    13.289    0.25E-04    0.87E-04    0.19E-06
 Optimization of the real space projectors (new method)

 maximal supplied QI-value         = 34.20
 optimisation between [QCUT,QGAM] = [ 11.97, 23.94] = [ 40.13,160.53] Ry 
 Optimized for a Real-space Cutoff    1.18 Angstroem

   l    n(q)    QCUT    max X(q) W(low)/X(q) W(high)/X(q)  e(spline) 
   0      8    11.971    19.460    0.15E-03    0.31E-03    0.25E-06
   0      8    11.971    12.209    0.13E-03    0.29E-03    0.25E-06
   1      8    11.971     4.655    0.22E-03    0.24E-03    0.21E-06
  PAW_PBE Pt 04Feb2005                  :
 energy of atom  1       EATOM= -729.1176
 kinetic energy error for atom=    0.0021 (will be added to EATOM!!)
  PAW_PBE H 15Jun2001                   :
 energy of atom  2       EATOM=  -12.4884
 kinetic energy error for atom=    0.0008 (will be added to EATOM!!)
 
 
 POSCAR: Pt111                                   
  positions in direct lattice
  velocities in cartesian coordinates
 exchange correlation table for  LEXCH =        8
   RHO(1)=    0.500       N(1)  =     2000
   RHO(2)=  100.500       N(2)  =     4000
 


--------------------------------------------------------------------------------------------------------


 ion  position               nearest neighbor table
   1  0.784  0.870  0.331-  56 2.72  73 2.72   3 2.72   2 2.72  43 2.72  72 2.72  71 2.78  20 2.79
                            55 2.79  35 2.83  27 2.83  34 2.84
   2  0.034  0.870  0.331-  23 2.71  72 2.71   1 2.72  47 2.72  57 2.72   3 2.72  65 2.77  55 2.78
                            68 2.78  39 2.80  29 2.82  27 2.84
   3  0.035  0.619  0.331-  15 2.71   9 2.72   1 2.72  56 2.72   2 2.72  57 2.72  12 2.78  55 2.78
                            76 2.78  39 2.81  28 2.83  35 2.84
   4  0.787  0.867  0.015-  58 2.71   5 2.71  75 2.71   6 2.71  74 2.72  44 2.72  21 2.82  78 2.82
                            19 2.83
   5  0.037  0.868  0.015-  48 2.71  74 2.71   4 2.71  24 2.72   6 2.72  59 2.72  70 2.82  49 2.82
                            78 2.83
   6  0.037  0.618  0.015-  18 2.71  59 2.71   4 2.71  58 2.72   5 2.72  10 2.72  46 2.82  70 2.82
                            21 2.83
   7  0.619  0.202  0.122-  78 2.71  19 2.71  11 2.71  61 2.71  53 2.72  22 2.72  71 2.78  79 2.78
                            80 2.79  42 2.82  44 2.82  74 2.83
   8  0.369  0.952  0.122-  54 2.71  49 2.71  60 2.72  25 2.72  19 2.72  53 2.72  66 2.78  69 2.78
                            26 2.78  16 2.82  24 2.82  75 2.83
   9  0.034  0.370  0.331-  13 2.71  47 2.71  56 2.71   3 2.72  63 2.72  15 2.72  12 2.78  77 2.78
                            62 2.79  33 2.82  28 2.83  30 2.83
  10  0.037  0.367  0.016-  64 2.71  48 2.71  16 2.72  18 2.72  58 2.72   6 2.72  54 2.82  46 2.83
                            45 2.83
  11  0.869  0.202  0.122-  22 2.71   7 2.71  54 2.72  78 2.72  49 2.72  45 2.72  77 2.78  65 2.78
                            79 2.79  64 2.82  74 2.83  48 2.83
  12  0.952  0.536  0.227-  55 2.71  20 2.71  62 2.72  77 2.72  76 2.72  67 2.72   3 2.78   9 2.78
                            45 2.78  21 2.78  56 2.78  46 2.79
  13  0.284  0.120  0.331-   9 2.71  47 2.71  43 2.72  73 2.72  15 2.72  23 2.72  62 2.77  26 2.78
                            69 2.79  31 2.82  36 2.83  33 2.83
  14  0.534  0.620  0.332-  57 2.71  41 2.71  23 2.71  63 2.71  73 2.72  56 2.72  51 2.78  66 2.79
                            67 2.80  52 2.82  38 2.86  37 2.86
  15  0.285  0.370  0.332-  41 2.71  57 2.71  43 2.71   3 2.71  13 2.72   9 2.72  76 2.78  80 2.79
                            62 2.80  36 2.82  28 2.83  50 2.83
  16  0.287  0.118  0.016-  44 2.71  75 2.71  10 2.72  18 2.72  48 2.72  24 2.72   8 2.82  53 2.82
                            54 2.83
  17  0.537  0.618  0.015-  24 2.71  59 2.71  64 2.72  42 2.72  58 2.72  75 2.72  22 2.82  25 2.82
                            60 2.83
  18  0.287  0.368  0.016-   6 2.71  59 2.71  44 2.72  10 2.72  16 2.72  42 2.72  53 2.82  61 2.82
                            46 2.83
  19  0.619  0.952  0.122-  78 2.71  25 2.71  21 2.71   7 2.71   8 2.72  53 2.72  20 2.78  71 2.78
                            69 2.79  44 2.82  75 2.82   4 2.83
  20  0.702  0.786  0.227-  71 2.71  69 2.71  12 2.71  55 2.72  66 2.72  67 2.72  56 2.78  19 2.78
                            25 2.78  73 2.78   1 2.79  21 2.79
  21  0.869  0.702  0.122-  25 2.71  78 2.71  19 2.71  45 2.71  46 2.72  70 2.72  55 2.78  12 2.78
                            20 2.79   4 2.82  58 2.82   6 2.83
  22  0.620  0.452  0.122-  11 2.71  45 2.71  61 2.71  25 2.72  60 2.72   7 2.72  79 2.78  67 2.78
                            51 2.79  17 2.82  42 2.82  64 2.83
  23  0.285  0.869  0.331-  57 2.71  14 2.71  73 2.71   2 2.71  47 2.72  13 2.72  68 2.78  26 2.79
                            66 2.79  31 2.82  29 2.82  37 2.83
  24  0.287  0.867  0.015-  17 2.71  59 2.71  48 2.72   5 2.72  16 2.72  75 2.72  60 2.82   8 2.82
                            49 2.83
  25  0.619  0.702  0.122-  19 2.71  45 2.71  21 2.71   8 2.72  22 2.72  60 2.72  20 2.78  67 2.78
                            66 2.79  17 2.82  75 2.82  58 2.83
  26  0.202  0.036  0.226-  62 2.71  77 2.71  69 2.72  65 2.72  66 2.72  68 2.72  54 2.77  49 2.78
                             8 2.78  13 2.78  47 2.79  23 2.79
  27  0.867  0.954  0.439-  39 2.69  40 2.69  32 2.71  29 2.71  34 2.72  35 2.72  72 2.83   1 2.83
                             2 2.84
  28  0.117  0.454  0.438-  50 2.69  30 2.71  35 2.71  33 2.71  36 2.72  39 2.72   3 2.83  15 2.83
                             9 2.83
  29  0.116  0.955  0.438-  37 2.69  32 2.71  33 2.71  27 2.71  39 2.72  31 2.72  47 2.82  23 2.82
                             2 2.82
  30  0.867  0.454  0.438-  38 2.69  28 2.71  35 2.71  33 2.71  52 2.72  32 2.72  56 2.83  63 2.83
                             9 2.83
  31  0.367  0.955  0.438-  37 2.69  34 2.71  36 2.71  33 2.71  52 2.72  29 2.72  13 2.82  23 2.82
                            73 2.83
  32  0.867  0.204  0.438-  38 2.69  29 2.71  40 2.71  27 2.71  33 2.72  30 2.72  63 2.82  72 2.83
                            47 2.83
  33  0.117  0.204  0.438-  29 2.71  30 2.71  31 2.71  28 2.71  32 2.72  36 2.72   9 2.82  47 2.83
                            13 2.83
  34  0.617  0.954  0.439-  52 2.69  40 2.69  31 2.71  36 2.71  27 2.72  35 2.72  43 2.83   1 2.84
                            73 2.84
  35  0.867  0.703  0.438-  39 2.69  52 2.69  30 2.71  28 2.71  27 2.72  34 2.72   1 2.83  56 2.84
                             3 2.84
  36  0.367  0.204  0.438-  50 2.69  31 2.71  34 2.71  40 2.71  28 2.72  33 2.72  15 2.82  43 2.83
                            13 2.83
  37  0.365  0.708  0.440-  81 1.86  29 2.69  31 2.69  39 2.74  52 2.74  50 2.77  38 2.78  23 2.83
                            57 2.86  14 2.86
  38  0.621  0.453  0.440-  81 1.85  30 2.69  32 2.69  52 2.74  40 2.74  37 2.78  50 2.78  63 2.84
                            14 2.86  41 2.86
  39  0.114  0.706  0.437-  27 2.69  35 2.69  29 2.72  28 2.72  37 2.74  50 2.74   2 2.80   3 2.81
                            57 2.83
  40  0.618  0.201  0.438-  27 2.69  34 2.69  32 2.71  36 2.71  50 2.74  38 2.74  43 2.81  41 2.82
                            72 2.82
  41  0.534  0.370  0.332-  63 2.71  15 2.71  14 2.71  57 2.71  72 2.72  43 2.72  51 2.78  80 2.79
                            79 2.80  40 2.82  38 2.86  50 2.87
  42  0.538  0.367  0.015-  74 2.71  44 2.71  64 2.71  17 2.72  59 2.72  18 2.72   7 2.82  22 2.82
                            61 2.83
  43  0.534  0.120  0.331-  15 2.71  73 2.71  13 2.72  72 2.72   1 2.72  41 2.72  80 2.78  69 2.78
                            71 2.79  40 2.81  36 2.83  34 2.83
  44  0.537  0.118  0.015-  16 2.71  42 2.71  75 2.71  74 2.71  18 2.72   4 2.72  19 2.82   7 2.82
                            53 2.83
  45  0.869  0.452  0.122-  22 2.71  25 2.71  21 2.71  46 2.72  11 2.72  54 2.72  77 2.78  12 2.78
                            67 2.79  58 2.82  64 2.82  10 2.83
  46  0.119  0.452  0.122-  53 2.71  45 2.72  21 2.72  54 2.72  61 2.72  70 2.72  62 2.78  76 2.78
                            12 2.79   6 2.82  10 2.83  18 2.83
  47  0.034  0.120  0.331-   9 2.71  13 2.71  72 2.72   2 2.72  63 2.72  23 2.72  77 2.77  65 2.78
                            26 2.79  29 2.82  33 2.83  32 2.83
  48  0.037  0.118  0.015-   5 2.71  10 2.71  24 2.72  74 2.72  64 2.72  16 2.72  49 2.82  54 2.83
                            11 2.83
  49  0.119  0.952  0.122-  70 2.71  54 2.71   8 2.71  60 2.71  11 2.72  78 2.72  26 2.78  68 2.78
                            65 2.79  48 2.82   5 2.82  24 2.83
  50  0.365  0.453  0.440-  81 1.87  36 2.69  28 2.69  39 2.74  40 2.74  37 2.77  38 2.78  15 2.83
                            57 2.86  41 2.87
  51  0.452  0.536  0.227-  80 2.71  76 2.71  67 2.71  79 2.71  66 2.71  68 2.71  14 2.78  41 2.78
                            60 2.78  61 2.78  57 2.79  22 2.79
  52  0.618  0.706  0.437-  34 2.69  35 2.69  31 2.72  30 2.72  38 2.74  37 2.74  73 2.80  56 2.81
                            14 2.82
  53  0.369  0.202  0.122-  46 2.71  54 2.71   7 2.72   8 2.72  61 2.72  19 2.72  69 2.78  80 2.78
                            62 2.78  18 2.82  16 2.82  44 2.83
  54  0.119  0.202  0.122-  49 2.71   8 2.71  53 2.71  11 2.72  46 2.72  45 2.72  26 2.77  62 2.78
                            77 2.78  10 2.82  48 2.83  16 2.83
  55  0.952  0.786  0.227-  12 2.71  65 2.71  71 2.72  20 2.72  68 2.72  76 2.72   3 2.78   2 2.78
                            21 2.78  78 2.78  70 2.79   1 2.79
  56  0.784  0.619  0.331-  63 2.71   9 2.71   1 2.72   3 2.72  73 2.72  14 2.72  20 2.78  67 2.78
                            12 2.78  52 2.81  30 2.83  35 2.84
  57  0.285  0.620  0.332-  14 2.71  41 2.71  23 2.71  15 2.71   2 2.72   3 2.72  68 2.79  51 2.79
                            76 2.79  39 2.83  50 2.86  37 2.86
  58  0.787  0.618  0.015-   4 2.71  75 2.71  64 2.71   6 2.72  17 2.72  10 2.72  21 2.82  45 2.82
                            25 2.83
  59  0.287  0.618  0.015-  17 2.71  24 2.71  18 2.71   6 2.71  42 2.72   5 2.72  61 2.82  60 2.82
                            70 2.83
  60  0.369  0.702  0.122-  70 2.71  61 2.71  49 2.71   8 2.72  22 2.72  25 2.72  66 2.78  51 2.78
                            68 2.78  24 2.82  59 2.82  17 2.83
  61  0.370  0.452  0.122-  60 2.71  22 2.71   7 2.71  70 2.72  53 2.72  46 2.72  80 2.78  51 2.78
                            76 2.79  59 2.82  18 2.82  42 2.83
  62  0.202  0.286  0.227-  26 2.71  12 2.72  76 2.72  69 2.72  77 2.72  80 2.72  13 2.77  46 2.78
                            54 2.78  53 2.78   9 2.79  15 2.80
  63  0.783  0.370  0.332-  41 2.71  14 2.71  56 2.71  72 2.71  47 2.72   9 2.72  67 2.78  79 2.79
                            77 2.80  32 2.82  30 2.83  38 2.84
  64  0.787  0.368  0.015-  10 2.71  58 2.71  42 2.71  17 2.72  48 2.72  74 2.72  11 2.82  45 2.82
                            22 2.83
  65  0.952  0.036  0.227-  71 2.71  55 2.71  77 2.72  79 2.72  26 2.72  68 2.72   2 2.77  47 2.78
                            11 2.78  78 2.78  72 2.78  49 2.79
  66  0.452  0.786  0.227-  68 2.71  51 2.71  67 2.71  20 2.72  69 2.72  26 2.72  60 2.78   8 2.78
                            73 2.78  25 2.79  14 2.79  23 2.79
  67  0.702  0.536  0.227-  51 2.71  79 2.71  66 2.71  77 2.71  20 2.72  12 2.72  56 2.78  22 2.78
                            25 2.78  63 2.78  45 2.79  14 2.80
  68  0.202  0.786  0.227-  66 2.71  76 2.71  51 2.71  55 2.72  65 2.72  26 2.72  49 2.78  70 2.78
                            23 2.78  60 2.78   2 2.78  57 2.79
  69  0.452  0.036  0.227-  71 2.71  20 2.71  62 2.72  26 2.72  66 2.72  80 2.72  73 2.77  53 2.78
                            43 2.78   8 2.78  13 2.79  19 2.79
  70  0.120  0.702  0.122-  60 2.71  49 2.71  61 2.72  21 2.72  46 2.72  78 2.72  68 2.78  76 2.78
                            55 2.79   6 2.82   5 2.82  59 2.83
  71  0.702  0.036  0.227-  69 2.71  65 2.71  20 2.71  55 2.72  80 2.72  79 2.72   7 2.78  19 2.78
                            72 2.78   1 2.78  78 2.78  43 2.79
  72  0.784  0.120  0.331-   2 2.71  63 2.71  47 2.72  43 2.72   1 2.72  41 2.72  79 2.78  71 2.78
                            65 2.78  40 2.82  32 2.83  27 2.83
  73  0.534  0.870  0.331-  23 2.71  43 2.71   1 2.72  14 2.72  13 2.72  56 2.72  69 2.77  66 2.78
                            20 2.78  52 2.80  31 2.83  34 2.84
  74  0.787  0.118  0.015-  42 2.71   5 2.71  44 2.71   4 2.72  48 2.72  64 2.72  78 2.82  11 2.83
                             7 2.83
  75  0.537  0.868  0.015-  16 2.71  44 2.71  58 2.71   4 2.71  17 2.72  24 2.72  19 2.82  25 2.82
                             8 2.83
  76  0.202  0.536  0.227-  51 2.71  80 2.71  68 2.71  62 2.72  55 2.72  12 2.72  46 2.78  70 2.78
                             3 2.78  15 2.78  61 2.79  57 2.79
  77  0.952  0.286  0.227-  26 2.71  67 2.71  79 2.72  12 2.72  65 2.72  62 2.72  47 2.77  45 2.78
                            11 2.78   9 2.78  54 2.78  63 2.80
  78  0.869  0.952  0.122-   7 2.71  19 2.71  21 2.71  11 2.72  49 2.72  70 2.72  55 2.78  65 2.78
                            71 2.78  74 2.82   4 2.82   5 2.83
  79  0.702  0.286  0.227-  80 2.71  51 2.71  67 2.71  77 2.72  65 2.72  71 2.72  72 2.78  22 2.78
                             7 2.78  63 2.79  11 2.79  41 2.80
  80  0.452  0.286  0.227-  79 2.71  51 2.71  76 2.71  71 2.72  62 2.72  69 2.72  43 2.78  61 2.78
                            53 2.78   7 2.79  15 2.79  41 2.79
  81  0.451  0.538  0.483-  38 1.85  37 1.86  50 1.87
 
  LATTYP: Found a hexagonal cell.
 ALAT       =    10.8599870232
 C/A-ratio  =     2.0257851094
  
  Lattice vectors:
  
 A1 = (  -5.4299998282,  -9.4050210000,   0.0000000000)
 A2 = (  -5.4299998278,   9.4050210000,   0.0000000000)
 A3 = (   0.0000000000,   0.0000000000, -22.0000000000)


Analysis of symmetry for initial positions (statically):
=====================================================================
 Subroutine PRICEL returns:
 Original cell was already a primitive cell.
 

 Routine SETGRP: Setting up the symmetry group for a 
 hexagonal supercell.


 Subroutine GETGRP returns: Found  1 space group operations
 (whereof  1 operations were pure point group operations)
 out of a pool of 24 trial point group operations.


The static configuration has the point symmetry C_1 .


Analysis of symmetry for dynamics (positions and initial velocities):
=====================================================================
 Subroutine PRICEL returns:
 Original cell was already a primitive cell.
 

 Routine SETGRP: Setting up the symmetry group for a 
 hexagonal supercell.


 Subroutine GETGRP returns: Found  1 space group operations
 (whereof  1 operations were pure point group operations)
 out of a pool of 24 trial point group operations.


The dynamic configuration has the point symmetry C_1 .


Analysis of constrained symmetry for selective dynamics:
=====================================================================
 Subroutine PRICEL returns:
 Original cell was already a primitive cell.
 

 Routine SETGRP: Setting up the symmetry group for a 
 hexagonal supercell.


 Subroutine GETGRP returns: Found  1 space group operations
 (whereof  1 operations were pure point group operations)
 out of a pool of 24 trial point group operations.


The constrained configuration has the point symmetry C_1 .


 Subroutine INISYM returns: Found  1 space group operations
 (whereof  1 operations are pure point group operations),
 and found     1 'primitive' translations

 
 
 KPOINTS: mesh auto                               

Automatic generation of k-mesh.
Space group operators:
 irot       det(A)        alpha          n_x          n_y          n_z        tau_x        tau_y        tau_z
    1     1.000000     0.000001     1.000000     0.000000     0.000000     0.000000     0.000000     0.000000
 
 Subroutine IBZKPT returns following result:
 ===========================================
 
 Found      4 irreducible k-points:
 
 Following reciprocal coordinates:
            Coordinates               Weight
  0.000000  0.000000  0.000000      1.000000
  0.500000  0.000000  0.000000      1.000000
  0.000000  0.500000  0.000000      1.000000
  0.500000  0.500000  0.000000      1.000000
 
 Following cartesian coordinates:
            Coordinates               Weight
  0.000000  0.000000  0.000000      1.000000
  0.046041 -0.026582  0.000000      1.000000
  0.000000  0.053163  0.000000      1.000000
  0.046041  0.026582  0.000000      1.000000
 


--------------------------------------------------------------------------------------------------------




 Dimension of arrays:
   k-points           NKPTS =      4   k-points in BZ     NKDIM =      4   number of bands    NBANDS=    480
   number of dos      NEDOS =    301   number of ions     NIONS =     81
   non local maximal  LDIM  =      6   non local SUM 2l+1 LMDIM =     18
   total plane-waves  NPLWV = ******
   max r-space proj   IRMAX =   7380   max aug-charges    IRDMAX=  32148
   dimension x,y,z NGX =    84 NGY =   84 NGZ =  168
   dimension x,y,z NGXF=   168 NGYF=  168 NGZF=  336
   support grid    NGXF=   168 NGYF=  168 NGZF=  336
   ions per type =              80   1
   NGX,Y,Z   is equivalent  to a cutoff of  12.86, 12.86, 12.70 a.u.
   NGXF,Y,Z  is equivalent  to a cutoff of  25.72, 25.72, 25.39 a.u.

 SYSTEM =  Pt111                                   
 POSCAR =  Pt111                                   

 Startparameter for this run:
   NWRITE =      2    write-flag & timer
   PREC   = accura    normal or accurate (medium, high low for compatibility)
   ISTART =      0    job   : 0-new  1-cont  2-samecut
   ICHARG =      2    charge: 1-file 2-atom 10-const
   ISPIN  =      1    spin polarized calculation?
   LNONCOLLINEAR =      F non collinear calculations
   LSORBIT =      F    spin-orbit coupling
   INIWAV =      1    electr: 0-lowe 1-rand  2-diag
   LASPH  =      F    aspherical Exc in radial PAW
   METAGGA=      F    non-selfconsistent MetaGGA calc.

 Electronic Relaxation 1
   ENCUT  =  550.0 eV  40.42 Ry    6.36 a.u.  20.77 20.77 42.07*2*pi/ulx,y,z
   ENINI  =  550.0     initial cutoff
   ENAUG  =  400.0 eV  augmentation charge cutoff
   NELM   =    200;   NELMIN=  2; NELMDL= -5     # of ELM steps 
   EDIFF  = 0.1E-04   stopping-criterion for ELM
   LREAL  =      T    real-space projection
   NLSPLINE    = F    spline interpolate recip. space projectors
   LCOMPAT=      F    compatible to vasp.4.4
   GGA_COMPAT  = T    GGA compatible to vasp.4.4-vasp.4.6
   LMAXPAW     = -100 max onsite density
   LMAXMIX     =    2 max onsite mixed and CHGCAR
   VOSKOWN=      0    Vosko Wilk Nusair interpolation
   ROPT   =   -0.00025  -0.00025
 Ionic relaxation
   EDIFFG = -.5E-01   stopping-criterion for IOM
   NSW    =    300    number of steps for IOM
   NBLOCK =      1;   KBLOCK =    300    inner block; outer block 
   IBRION =      2    ionic relax: 0-MD 1-quasi-New 2-CG
   NFREE  =      1    steps in history (QN), initial steepest desc. (CG)
   ISIF   =      2    stress and relaxation
   IWAVPR =     11    prediction:  0-non 1-charg 2-wave 3-comb
   ISYM   =      2    0-nonsym 1-usesym 2-fastsym
   LCORR  =      T    Harris-Foulkes like correction to forces

   POTIM  = 0.5000    time-step for ionic-motion
   TEIN   =    0.0    initial temperature
   TEBEG  =    0.0;   TEEND  =   0.0 temperature during run
   SMASS  =  -3.00    Nose mass-parameter (am)
   estimated Nose-frequenzy (Omega)   =  0.10E-29 period in steps =****** mass=  -0.270E-26a.u.
   SCALEE = 1.0000    scale energy and forces
   NPACO  =    256;   APACO  = 16.0  distance and # of slots for P.C.
   PSTRESS=    0.0 pullay stress

  Mass of Ions in am
   POMASS = 195.08  1.00
  Ionic Valenz
   ZVAL   =  10.00  1.00
  Atomic Wigner-Seitz radii
   RWIGS  =  -1.00 -1.00
  virtual crystal weights 
   VCA    =   1.00  1.00
   NELECT =     801.0000    total number of electrons
   NUPDOWN=      -1.0000    fix difference up-down

 DOS related values:
   EMIN   =  10.00;   EMAX   =-10.00  energy-range for DOS
   EFERMI =   0.00
   ISMEAR =     1;   SIGMA  =   0.10  broadening in eV -4-tet -1-fermi 0-gaus

 Electronic relaxation 2 (details)
   IALGO  =     68    algorithm
   LDIAG  =      T    sub-space diagonalisation (order eigenvalues)
   LSUBROT=      F    optimize rotation matrix (better conditioning)
   TURBO    =      0    0=normal 1=particle mesh
   IRESTART =      0    0=no restart 2=restart with 2 vectors
   NREBOOT  =      0    no. of reboots
   NMIN     =      0    reboot dimension
   EREF     =   0.00    reference energy to select bands
   IMIX   =      4    mixing-type and parameters
     AMIX     =   0.40;   BMIX     =  1.00
     AMIX_MAG =   1.60;   BMIX_MAG =  1.00
     AMIN     =   0.10
     WC   =   100.;   INIMIX=   1;  MIXPRE=   1;  MAXMIX= -45

 Intra band minimization:
   WEIMIN = 0.0010     energy-eigenvalue tresh-hold
   EBREAK =  0.52E-08  absolut break condition
   DEPER  =   0.30     relativ break condition  

   TIME   =   0.40     timestep for ELM

  volume/ion in A,a.u.               =      27.74       187.21
  Fermi-wavevector in a.u.,A,eV,Ry     =   1.160776  2.193548 18.332488  1.347400
  Thomas-Fermi vector in A             =   2.297355
 
 Write flags
   LWAVE        =      F    write WAVECAR
   LDOWNSAMPLE  =      F    k-point downsampling of WAVECAR
   LCHARG       =      F    write CHGCAR
   LVTOT        =      F    write LOCPOT, total local potential
   LVHAR        =      F    write LOCPOT, Hartree potential only
   LELF         =      F    write electronic localiz. function (ELF)
   LORBIT       =      0    0 simple, 1 ext, 2 COOP (PROOUT), +10 PAW based schemes


 Dipole corrections
   LMONO  =      F    monopole corrections only (constant potential shift)
   LDIPOL =      F    correct potential (dipole corrections)
   IDIPOL =      0    1-x, 2-y, 3-z, 4-all directions 
   EPSILON=  1.0000000 bulk dielectric constant

 Exchange correlation treatment:
   GGA     =    --    GGA type
   LEXCH   =     8    internal setting for exchange type
   VOSKOWN=      0    Vosko Wilk Nusair interpolation
   LHFCALC =     F    Hartree Fock is set to
   LHFONE  =     F    Hartree Fock one center treatment
   AEXX    =    0.0000 exact exchange contribution

 Linear response parameters
   LEPSILON=     F    determine dielectric tensor
   LRPA    =     F    only Hartree local field effects (RPA)
   LNABLA  =     F    use nabla operator in PAW spheres
   LVEL    =     F    velocity operator in full k-point grid
   LINTERFAST=   F  fast interpolation
   KINTER  =     0    interpolate to denser k-point grid
   CSHIFT  =0.1000    complex shift for real part using Kramers Kronig
   OMEGAMAX=  -1.0    maximum frequency
   DEG_THRESHOLD= 0.2000000E-02 threshold for treating states as degnerate
   RTIME   =   -0.100 relaxation time in fs
  (WPLASMAI=    0.000 imaginary part of plasma frequency in eV, 0.658/RTIME)
   DFIELD  = 0.0000000 0.0000000 0.0000000 field for delta impulse in time
 
 Orbital magnetization related:
   ORBITALMAG=     F  switch on orbital magnetization
   LCHIMAG   =     F  perturbation theory with respect to B field
   DQ        =  0.001000  dq finite difference perturbation B field
   LLRAUG    =     F  two centre corrections for induced B field



--------------------------------------------------------------------------------------------------------


 conjugate gradient relaxation of ions
   using selective dynamics as specified on POSCAR
 charge density and potential will be updated during run
 non-spin polarized calculation
 RMM-DIIS sequential band-by-band and
  variant of blocked Davidson during initial phase
 perform sub-space diagonalisation
    before iterative eigenvector-optimisation
 modified Broyden-mixing scheme, WC =      100.0
 initial mixing is a Kerker type mixing with AMIX =  0.4000 and BMIX =      1.0000
 Hartree-type preconditioning will be used
 using additional bands           79
 real space projection scheme for non local part
 use partial core corrections
 calculate Harris-corrections to forces 
   (improved forces if not selfconsistent)
 use gradient corrections 
 use of overlap-Matrix (Vanderbilt PP)
 Methfessel and Paxton  Order N= 1 SIGMA  =   0.10


--------------------------------------------------------------------------------------------------------


  energy-cutoff  :      550.00
  volume of cell :     2247.05
      direct lattice vectors                 reciprocal lattice vectors
    10.859999656  0.000000000  0.000000000     0.092081034 -0.053163092  0.000000000
     5.429999828  9.405021000  0.000000000     0.000000000  0.106326185  0.000000000
     0.000000000  0.000000000 22.000000000     0.000000000  0.000000000  0.045454545

  length of vectors
    10.859999656 10.859987023 22.000000000     0.106326061  0.106326185  0.045454545


 
 k-points in units of 2pi/SCALE and weight: mesh auto                               
   0.00000000  0.00000000  0.00000000       0.250
   0.04604052 -0.02658155  0.00000000       0.250
   0.00000000  0.05316309  0.00000000       0.250
   0.04604052  0.02658155  0.00000000       0.250
 
 k-points in reciprocal lattice and weights: mesh auto                               
   0.00000000  0.00000000  0.00000000       0.250
   0.50000000  0.00000000  0.00000000       0.250
   0.00000000  0.50000000  0.00000000       0.250
   0.50000000  0.50000000  0.00000000       0.250
 
 position of ions in fractional coordinates (direct lattice) 
   0.78437223  0.86953290  0.33133906
   0.03436074  0.86989074  0.33095615
   0.03458473  0.61947289  0.33103837
   0.78733492  0.86749523  0.01523082
   0.03673208  0.86815209  0.01535276
   0.03739891  0.61764094  0.01549949
   0.61941900  0.20169904  0.12217373
   0.36938093  0.95174631  0.12221038
   0.03443401  0.36953822  0.33119771
   0.03702010  0.36745839  0.01555774
   0.86934911  0.20181162  0.12209130
   0.95185464  0.53572507  0.22676088
   0.28396335  0.12019429  0.33105192
   0.53391521  0.61972260  0.33159718
   0.28491924  0.37007727  0.33171158
   0.28737660  0.11753303  0.01550924
   0.53702832  0.61771822  0.01545760
   0.28693064  0.36792243  0.01556465
   0.61943497  0.95173808  0.12211587
   0.70184705  0.78566571  0.22661190
   0.86940703  0.70182631  0.12219375
   0.61953607  0.45176385  0.12219931
   0.28455615  0.86925102  0.33130947
   0.28717383  0.86744177  0.01548949
   0.61948838  0.70181040  0.12212616
   0.20173927  0.03587764  0.22644998
   0.86688106  0.95403009  0.43855596
   0.11660828  0.45398609  0.43823144
   0.11648569  0.95469474  0.43767284
   0.86729707  0.45404094  0.43815248
   0.36684300  0.95461567  0.43767769
   0.86671500  0.20379421  0.43803274
   0.11684386  0.20410480  0.43824165
   0.61666207  0.95408486  0.43855798
   0.86733380  0.70331964  0.43845073
   0.36728884  0.20398952  0.43816278
   0.36488907  0.70785077  0.43990862
   0.62067662  0.45259019  0.44024662
   0.11399941  0.70580799  0.43737216
   0.61828422  0.20137087  0.43757660
   0.53412412  0.37029744  0.33191682
   0.53764747  0.36735834  0.01540351
   0.53422831  0.11977311  0.33107285
   0.53692745  0.11791937  0.01532902
   0.86937812  0.45188028  0.12227324
   0.11945845  0.45174610  0.12236839
   0.03422113  0.12019842  0.33097423
   0.03719573  0.11752701  0.01532315
   0.11937961  0.95178010  0.12226301
   0.36474635  0.45263656  0.44023116
   0.45190046  0.53561456  0.22699896
   0.61812349  0.70569684  0.43722983
   0.36931205  0.20184145  0.12230993
   0.11943486  0.20165645  0.12227422
   0.95186841  0.78565350  0.22665429
   0.78442849  0.61948162  0.33097087
   0.28477216  0.61973265  0.33168617
   0.78708788  0.61795672  0.01535737
   0.28732088  0.61755253  0.01548736
   0.36933846  0.70176128  0.12228077
   0.36953671  0.45180494  0.12225763
   0.20186675  0.28572375  0.22669541
   0.78345531  0.37011934  0.33160257
   0.78727762  0.36795144  0.01528027
   0.95173828  0.03569424  0.22667342
   0.45177977  0.78559176  0.22654160
   0.70167046  0.53563866  0.22667493
   0.20196314  0.78558994  0.22664716
   0.45191247  0.03567104  0.22671509
   0.11950185  0.70185892  0.12225235
   0.70183160  0.03563083  0.22659130
   0.78438255  0.11973886  0.33101069
   0.53409682  0.86984647  0.33088643
   0.78695369  0.11773815  0.01518417
   0.53723470  0.86788574  0.01524724
   0.20213129  0.53560078  0.22678292
   0.95176011  0.28573544  0.22656204
   0.86917361  0.95187802  0.12216451
   0.70169430  0.28581423  0.22669026
   0.45192744  0.28582833  0.22677457
   0.45092556  0.53780162  0.48315227
 
 position of ions in cartesian coordinates  (Angst):
  13.23984564  8.17797521  7.28945940
   5.09666412  8.18134065  7.28103521
   3.73932784  5.82615555  7.28284412
  13.26095590  8.15881083  0.33507807
   5.11297611  8.16498862  0.33776072
   3.75994234  5.80892606  0.34098870
   7.82211584  1.89698371  2.68782199
   9.17945909  8.95119401  2.68862835
   2.38054580  3.47551470  7.28634972
   2.39733730  3.45595385  0.34227027
  10.53696807  1.89804252  2.68600860
  13.24612809  5.03850555  4.98873929
   3.73649683  1.13042982  7.28314214
   9.16341263  5.82850410  7.29513786
   5.10374239  3.48058448  7.29765473
   3.75911407  1.10540064  0.34120328
   9.18633719  5.80965284  0.34006724
   5.11388541  3.46031814  0.34242222
  11.89500118  8.95111664  2.68654907
  11.88822343  7.38920249  4.98546184
  13.25267678  6.60069121  2.68826241
   9.18123914  4.24884848  2.68838491
   7.81031261  8.17532407  7.28880838
   7.82891632  8.15830809  0.34076870
  10.53847399  6.60054159  2.68677561
   2.38570402  0.33742994  4.98189952
  14.59471117  8.97267301  9.64823102
   3.73151032  4.26974875  9.64109163
   6.44902680  8.97892405  9.62880256
  11.88428810  4.27026457  9.63935461
   9.16747778  8.97818042  9.62890915
  10.51912710  1.91668887  9.63672035
   2.37721328  1.91960993  9.64131632
  11.87763046  8.97318814  9.64827563
  13.23827030  6.61473600  9.64591612
   5.09641972  1.91852568  9.63958112
   7.80632475  6.65735138  9.67798972
   9.19811248  4.25662020  9.68542555
   5.07057082  6.63813898  9.62218742
   7.80801023  1.89389730  9.62668526
   7.81130277  3.48265520  7.30216995
   7.83360705  3.45501291  0.33887725
   6.45208726  1.12646860  7.28360274
   6.47133404  1.10903416  0.33723846
  11.89515588  4.24994352  2.69001121
   3.75030003  4.24868158  2.69210459
   1.02431884  1.13046870  7.28143307
   1.04211725  1.10534403  0.33710926
   6.46462835  8.95151184  2.68978619
   6.41896163  4.25705633  9.68508553
   7.81602586  5.03746622  4.99397706
  10.54475461  6.63709363  9.61905619
   5.10672776  1.89832305  2.69081852
   2.39205696  1.89658310  2.69003282
  14.60338897  7.38908767  4.98639448
  11.88267829  5.82623769  7.28135904
   6.45777376  5.82859855  7.29709575
  11.90327900  5.81189588  0.33786219
   6.47361485  5.80809453  0.34072184
   7.82157922  6.60007959  2.69017696
   6.46646926  4.24923491  2.68966790
   3.74375279  2.68723784  4.98729897
  10.51807235  3.48098017  7.29525653
  10.54781091  3.46059099  0.33616588
  10.52969708  0.33570507  4.98681534
   9.17209127  7.38850697  4.98391524
  10.52865874  5.03769285  4.98684856
   6.45907280  7.38848985  4.98623744
   5.10146304  0.33548690  4.98773197
   5.10888391  6.60099788  2.68955175
   7.81536635  0.33510867  4.98500857
   9.16857624  1.12614647  7.28223517
  10.52355748  8.18092434  7.27950140
   9.18563496  1.10732978  0.33405177
  10.54698811  8.16248359  0.33543937
   5.10345792  5.03733657  4.98922421
  11.88765784  2.68734778  4.98436486
  14.60792265  8.95243280  2.68761932
   9.17237110  2.68808883  4.98718581
   6.45997963  2.68822148  4.98904060
   7.81731406  5.05803548 10.62934994
 


--------------------------------------------------------------------------------------------------------


 k-point  1 :   0.0000 0.0000 0.0000  plane waves:   65767
 k-point  2 :   0.5000 0.0000 0.0000  plane waves:   65808
 k-point  3 :   0.0000 0.5000 0.0000  plane waves:   65808
 k-point  4 :   0.5000 0.5000 0.0000  plane waves:   65808

 maximum and minimum number of plane-waves per node :     16481    16415

 maximum number of plane-waves:     65808
 maximum index in each direction: 
   IXMAX=   20   IYMAX=   20   IZMAX=   42
   IXMIN=  -21   IYMIN=  -21   IZMIN=  -42


 real space projection operators:
  total allocation   :      80006.38 KBytes
  max/ min on nodes  :      20004.90      19999.36


 parallel 3D FFT for wavefunctions:
    minimum data exchange during FFTs selected (reduces bandwidth)
 parallel 3D FFT for charge:
    minimum data exchange during FFTs selected (reduces bandwidth)


 total amount of memory used by VASP MPI-rank0   162518. kBytes
=======================================================================

   base      :      30000. kBytes
   nonlr-proj:      34763. kBytes
   fftplans  :      17974. kBytes
   grid      :      27754. kBytes
   one-center:        326. kBytes
   wavefun   :      51701. kBytes
 
     INWAV:  cpu time    0.0000: real time    0.0000
 Broyden mixing: mesh for mixing (old mesh)
   NGX = 41   NGY = 41   NGZ = 85
  (NGX  =168   NGY  =168   NGZ  =336)
  gives a total of 142885 points

 initial charge density was supplied:
 charge density of overlapping atoms calculated
 number of electron     801.0000000 magnetization 
 keeping initial charge density in first step


--------------------------------------------------------------------------------------------------------


 Maximum index for non-local projection operator         1800
 Maximum index for augmentation-charges         2012 (set IRDMAX)


--------------------------------------------------------------------------------------------------------


 First call to EWALD:  gamma=   0.135
 Maximum number of real-space cells 4x 4x 2
 Maximum number of reciprocal cells 2x 2x 4

    FEWALD:  cpu time    0.0039: real time    0.0039


--------------------------------------- Iteration      1(   1)  ---------------------------------------


    POTLOK:  cpu time    0.1842: real time    0.1869
    SETDIJ:  cpu time    0.0175: real time    0.0179
     EDDAV:  cpu time   27.3152: real time   27.4005
       DOS:  cpu time    0.0011: real time    0.0013
    --------------------------------------------
      LOOP:  cpu time   27.5181: real time   27.6066

 eigenvalue-minimisations  :  3840
 total energy-change (2. order) : 0.5699081E+04  (-0.3958820E+05)
 number of electron     801.0000000 magnetization 
 augmentation part      801.0000000 magnetization 

 Free energy of the ion-electron system (eV)
  ---------------------------------------------------
  alpha Z        PSCENC =      2711.68499749
  Ewald energy   TEWEN  =    174689.38245389
  -Hartree energ DENC   =   -239292.99902810
  -exchange      EXHF   =         0.00000000
  -V(xc)+E(xc)   XCENC  =       294.05978818
  PAW double counting   =     55692.01686169   -53429.36650374
  entropy T*S    EENTRO =        -0.00662868
  eigenvalues    EBANDS =      6692.57767656
  atomic energy  EATOM  =     58341.73154849
  Solvation  Ediel_sol  =         0.00000000
  ---------------------------------------------------
  free energy    TOTEN  =      5699.08116577 eV

  energy without entropy =     5699.08779446  energy(sigma->0) =     5699.08337533


--------------------------------------------------------------------------------------------------------




--------------------------------------- Iteration      1(   2)  ---------------------------------------


     EDDAV:  cpu time   29.3995: real time   29.4807
       DOS:  cpu time    0.0011: real time    0.0011
    --------------------------------------------
      LOOP:  cpu time   29.4006: real time   29.4817

 eigenvalue-minimisations  :  4290
 total energy-change (2. order) :-0.5848986E+04  (-0.5445978E+04)
 number of electron     801.0000000 magnetization 
 augmentation part      801.0000000 magnetization 

 Free energy of the ion-electron system (eV)
  ---------------------------------------------------
  alpha Z        PSCENC =      2711.68499749
  Ewald energy   TEWEN  =    174689.38245389
  -Hartree energ DENC   =   -239292.99902810
  -exchange      EXHF   =         0.00000000
  -V(xc)+E(xc)   XCENC  =       294.05978818
  PAW double counting   =     55692.01686169   -53429.36650374
  entropy T*S    EENTRO =        -0.00402403
  eigenvalues    EBANDS =       843.58911031
  atomic energy  EATOM  =     58341.73154849
  Solvation  Ediel_sol  =         0.00000000
  ---------------------------------------------------
  free energy    TOTEN  =      -149.90479582 eV

  energy without entropy =     -149.90077179  energy(sigma->0) =     -149.90345448


--------------------------------------------------------------------------------------------------------




--------------------------------------- Iteration      1(   3)  ---------------------------------------


     EDDAV:  cpu time   31.0960: real time   31.1816
       DOS:  cpu time    0.0012: real time    0.0012
    --------------------------------------------
      LOOP:  cpu time   31.0972: real time   31.1828

 eigenvalue-minimisations  :  4580
 total energy-change (2. order) :-0.3358737E+03  (-0.3020826E+03)
 number of electron     801.0000000 magnetization 
 augmentation part      801.0000000 magnetization 

 Free energy of the ion-electron system (eV)
  ---------------------------------------------------
  alpha Z        PSCENC =      2711.68499749
  Ewald energy   TEWEN  =    174689.38245389
  -Hartree energ DENC   =   -239292.99902810
  -exchange      EXHF   =         0.00000000
  -V(xc)+E(xc)   XCENC  =       294.05978818
  PAW double counting   =     55692.01686169   -53429.36650374
  entropy T*S    EENTRO =        -0.06307691
  eigenvalues    EBANDS =       507.77450786
  atomic energy  EATOM  =     58341.73154849
  Solvation  Ediel_sol  =         0.00000000
  ---------------------------------------------------
  free energy    TOTEN  =      -485.77845115 eV

  energy without entropy =     -485.71537424  energy(sigma->0) =     -485.75742551


--------------------------------------------------------------------------------------------------------




--------------------------------------- Iteration      1(   4)  ---------------------------------------


     EDDAV:  cpu time   31.9484: real time   32.0363
       DOS:  cpu time    0.0012: real time    0.0012
    --------------------------------------------
      LOOP:  cpu time   31.9496: real time   32.0375

 eigenvalue-minimisations  :  4770
 total energy-change (2. order) :-0.1514861E+02  (-0.1447672E+02)
 number of electron     801.0000000 magnetization 
 augmentation part      801.0000000 magnetization 

 Free energy of the ion-electron system (eV)
  ---------------------------------------------------
  alpha Z        PSCENC =      2711.68499749
  Ewald energy   TEWEN  =    174689.38245389
  -Hartree energ DENC   =   -239292.99902810
  -exchange      EXHF   =         0.00000000
  -V(xc)+E(xc)   XCENC  =       294.05978818
  PAW double counting   =     55692.01686169   -53429.36650374
  entropy T*S    EENTRO =        -0.06924320
  eigenvalues    EBANDS =       492.63206325
  atomic energy  EATOM  =     58341.73154849
  Solvation  Ediel_sol  =         0.00000000
  ---------------------------------------------------
  free energy    TOTEN  =      -500.92706206 eV

  energy without entropy =     -500.85781886  energy(sigma->0) =     -500.90398099


--------------------------------------------------------------------------------------------------------




--------------------------------------- Iteration      1(   5)  ---------------------------------------


     EDDAV:  cpu time   31.6784: real time   31.7653
       DOS:  cpu time    0.0012: real time    0.0012
    CHARGE:  cpu time    2.0930: real time    2.0991
    MIXING:  cpu time    0.0072: real time    0.0078
    --------------------------------------------
      LOOP:  cpu time   33.7798: real time   33.8735

 eigenvalue-minimisations  :  4690
 total energy-change (2. order) :-0.4230589E+00  (-0.4213728E+00)
 number of electron     801.0000030 magnetization 
 augmentation part      232.0403298 magnetization 

 Broyden mixing:
  rms(total) = 0.10951E+02    rms(broyden)= 0.10951E+02
  rms(prec ) = 0.11080E+02
  weight for this iteration     100.00

 Free energy of the ion-electron system (eV)
  ---------------------------------------------------
  alpha Z        PSCENC =      2711.68499749
  Ewald energy   TEWEN  =    174689.38245389
  -Hartree energ DENC   =   -239292.99902810
  -exchange      EXHF   =         0.00000000
  -V(xc)+E(xc)   XCENC  =       294.05978818
  PAW double counting   =     55692.01686169   -53429.36650374
  entropy T*S    EENTRO =        -0.06940875
  eigenvalues    EBANDS =       492.20916987
  atomic energy  EATOM  =     58341.73154849
  Solvation  Ediel_sol  =         0.00000000
  ---------------------------------------------------
  free energy    TOTEN  =      -501.35012098 eV

  energy without entropy =     -501.28071223  energy(sigma->0) =     -501.32698473


--------------------------------------------------------------------------------------------------------




--------------------------------------- Iteration      1(   6)  ---------------------------------------


    POTLOK:  cpu time    0.1702: real time    0.1706
    SETDIJ:  cpu time    0.0155: real time    0.0155
    EDDIAG:  cpu time    4.7096: real time    4.7228
  RMM-DIIS:  cpu time   16.7495: real time   16.7953
    ORTHCH:  cpu time    0.4556: real time    0.4570
       DOS:  cpu time    0.0012: real time    0.0012
    CHARGE:  cpu time    2.1028: real time    2.1085
    MIXING:  cpu time    0.0066: real time    0.0069
    --------------------------------------------
      LOOP:  cpu time   24.2110: real time   24.2778

 eigenvalue-minimisations  :  3862
 total energy-change (2. order) : 0.7411614E+01  (-0.7785840E+01)
 number of electron     801.0000030 magnetization 
 augmentation part      244.9424271 magnetization 

 Broyden mixing:
  rms(total) = 0.83362E+01    rms(broyden)= 0.83362E+01
  rms(prec ) = 0.92757E+01
  weight for this iteration     100.00

 eigenvalues of (default mixing * dielectric matrix)
  average eigenvalue GAMMA=   1.2531
  1.2531

 Free energy of the ion-electron system (eV)
  ---------------------------------------------------
  alpha Z        PSCENC =      2711.68499749
  Ewald energy   TEWEN  =    174689.38245389
  -Hartree energ DENC   =   -238264.03345443
  -exchange      EXHF   =         0.00000000
  -V(xc)+E(xc)   XCENC  =       273.96026521
  PAW double counting   =     62900.41431888   -60767.76493806
  entropy T*S    EENTRO =        -0.25651166
  eigenvalues    EBANDS =      -379.05718636
  atomic energy  EATOM  =     58341.73154849
  Solvation  Ediel_sol  =         0.00000000
  ---------------------------------------------------
  free energy    TOTEN  =      -493.93850654 eV

  energy without entropy =     -493.68199488  energy(sigma->0) =     -493.85300266


--------------------------------------------------------------------------------------------------------




--------------------------------------- Iteration      1(   7)  ---------------------------------------


    POTLOK:  cpu time    0.1639: real time    0.1643
    SETDIJ:  cpu time    0.0155: real time    0.0155
    EDDIAG:  cpu time    4.6983: real time    4.7113
  RMM-DIIS:  cpu time   16.6605: real time   16.7061
    ORTHCH:  cpu time    0.4558: real time    0.4568
       DOS:  cpu time    0.0011: real time    0.0011
    CHARGE:  cpu time    2.1086: real time    2.1143
    MIXING:  cpu time    0.0073: real time    0.0073
    --------------------------------------------
      LOOP:  cpu time   24.1108: real time   24.1766

 eigenvalue-minimisations  :  3896
 total energy-change (2. order) :-0.1764799E+03  (-0.2631600E+02)
 number of electron     801.0000025 magnetization 
 augmentation part      238.8892761 magnetization 

 Broyden mixing:
  rms(total) = 0.11463E+02    rms(broyden)= 0.11463E+02
  rms(prec ) = 0.14985E+02
  weight for this iteration     100.00

 eigenvalues of (default mixing * dielectric matrix)
  average eigenvalue GAMMA=   1.2124
  2.2176  0.2072

 Free energy of the ion-electron system (eV)
  ---------------------------------------------------
  alpha Z        PSCENC =      2711.68499749
  Ewald energy   TEWEN  =    174689.38245389
  -Hartree energ DENC   =   -239347.14096213
  -exchange      EXHF   =         0.00000000
  -V(xc)+E(xc)   XCENC  =       269.28719333
  PAW double counting   =     66888.73533705   -64799.08256190
  entropy T*S    EENTRO =         0.04564468
  eigenvalues    EBANDS =       574.93791070
  atomic energy  EATOM  =     58341.73154849
  Solvation  Ediel_sol  =         0.00000000
  ---------------------------------------------------
  free energy    TOTEN  =      -670.41843840 eV

  energy without entropy =     -670.46408308  energy(sigma->0) =     -670.43365330


--------------------------------------------------------------------------------------------------------




--------------------------------------- Iteration      1(   8)  ---------------------------------------


    POTLOK:  cpu time    0.1645: real time    0.1649
    SETDIJ:  cpu time    0.0158: real time    0.0158
    EDDIAG:  cpu time    4.6981: real time    4.7110
  RMM-DIIS:  cpu time   16.5833: real time   16.6293
    ORTHCH:  cpu time    0.4557: real time    0.4568
       DOS:  cpu time    0.0012: real time    0.0012
    CHARGE:  cpu time    2.0898: real time    2.0956
    MIXING:  cpu time    0.0070: real time    0.0070
    --------------------------------------------
      LOOP:  cpu time   24.0155: real time   24.0817

 eigenvalue-minimisations  :  3853
 total energy-change (2. order) : 0.5399955E+02  (-0.9120127E+01)
 number of electron     801.0000033 magnetization 
 augmentation part      246.1434939 magnetization 

 Broyden mixing:
  rms(total) = 0.90718E+01    rms(broyden)= 0.90718E+01
  rms(prec ) = 0.12815E+02
  weight for this iteration     100.00

 eigenvalues of (default mixing * dielectric matrix)
  average eigenvalue GAMMA=   0.9449
  2.3619  0.2363  0.2363

 Free energy of the ion-electron system (eV)
  ---------------------------------------------------
  alpha Z        PSCENC =      2711.68499749
  Ewald energy   TEWEN  =    174689.38245389
  -Hartree energ DENC   =   -238730.22734923
  -exchange      EXHF   =         0.00000000
  -V(xc)+E(xc)   XCENC  =       262.13857891
  PAW double counting   =     73494.51012620   -71486.07422625
  entropy T*S    EENTRO =        -0.04109469
  eigenvalues    EBANDS =       100.47608093
  atomic energy  EATOM  =     58341.73154849
  Solvation  Ediel_sol  =         0.00000000
  ---------------------------------------------------
  free energy    TOTEN  =      -616.41888426 eV

  energy without entropy =     -616.37778957  energy(sigma->0) =     -616.40518603


--------------------------------------------------------------------------------------------------------




--------------------------------------- Iteration      1(   9)  ---------------------------------------


    POTLOK:  cpu time    0.1650: real time    0.1654
    SETDIJ:  cpu time    0.0154: real time    0.0155
    EDDIAG:  cpu time    4.6956: real time    4.7087
  RMM-DIIS:  cpu time   16.4396: real time   16.4845
    ORTHCH:  cpu time    0.5138: real time    0.5150
       DOS:  cpu time    0.0011: real time    0.0011
    CHARGE:  cpu time    2.1090: real time    2.1148
    MIXING:  cpu time    0.0088: real time    0.0089
    --------------------------------------------
      LOOP:  cpu time   23.9484: real time   24.0138

 eigenvalue-minimisations  :  3843
 total energy-change (2. order) : 0.7827528E+02  (-0.7428501E+01)
 number of electron     801.0000030 magnetization 
 augmentation part      247.0074164 magnetization 

 Broyden mixing:
  rms(total) = 0.59259E+01    rms(broyden)= 0.59259E+01
  rms(prec ) = 0.97954E+01
  weight for this iteration     100.00

 eigenvalues of (default mixing * dielectric matrix)
  average eigenvalue GAMMA=   0.8111
  2.2639  0.5595  0.2840  0.1371

 Free energy of the ion-electron system (eV)
  ---------------------------------------------------
  alpha Z        PSCENC =      2711.68499749
  Ewald energy   TEWEN  =    174689.38245389
  -Hartree energ DENC   =   -238423.50565023
  -exchange      EXHF   =         0.00000000
  -V(xc)+E(xc)   XCENC  =       261.63050801
  PAW double counting   =     74771.50966298   -72777.08728100
  entropy T*S    EENTRO =        -0.17396641
  eigenvalues    EBANDS =      -113.31587521
  atomic energy  EATOM  =     58341.73154849
  Solvation  Ediel_sol  =         0.00000000
  ---------------------------------------------------
  free energy    TOTEN  =      -538.14360199 eV

  energy without entropy =     -537.96963558  energy(sigma->0) =     -538.08561319


--------------------------------------------------------------------------------------------------------




--------------------------------------- Iteration      1(  10)  ---------------------------------------


    POTLOK:  cpu time    0.1953: real time    0.1958
    SETDIJ:  cpu time    0.0180: real time    0.0181
    EDDIAG:  cpu time    4.7046: real time    4.7177
  RMM-DIIS:  cpu time   16.5332: real time   16.5790
    ORTHCH:  cpu time    0.4546: real time    0.4556
       DOS:  cpu time    0.0012: real time    0.0012
    CHARGE:  cpu time    2.0757: real time    2.0814
    MIXING:  cpu time    0.0077: real time    0.0077
    --------------------------------------------
      LOOP:  cpu time   23.9903: real time   24.0564

 eigenvalue-minimisations  :  3862
 total energy-change (2. order) : 0.2980513E+02  (-0.4555877E+01)
 number of electron     801.0000028 magnetization 
 augmentation part      247.4476432 magnetization 

 Broyden mixing:
  rms(total) = 0.55147E+01    rms(broyden)= 0.55147E+01
  rms(prec ) = 0.71689E+01
  weight for this iteration     100.00

 eigenvalues of (default mixing * dielectric matrix)
  average eigenvalue GAMMA=   0.7375
  2.1338  0.9337  0.3106  0.1969  0.1124

 Free energy of the ion-electron system (eV)
  ---------------------------------------------------
  alpha Z        PSCENC =      2711.68499749
  Ewald energy   TEWEN  =    174689.38245389
  -Hartree energ DENC   =   -238473.87168032
  -exchange      EXHF   =         0.00000000
  -V(xc)+E(xc)   XCENC  =       262.67752470
  PAW double counting   =     74738.65574322   -72741.68330292
  entropy T*S    EENTRO =        -0.01163275
  eigenvalues    EBANDS =       -36.90412872
  atomic energy  EATOM  =     58341.73154849
  Solvation  Ediel_sol  =         0.00000000
  ---------------------------------------------------
  free energy    TOTEN  =      -508.33847694 eV

  energy without entropy =     -508.32684418  energy(sigma->0) =     -508.33459935


--------------------------------------------------------------------------------------------------------




--------------------------------------- Iteration      1(  11)  ---------------------------------------


    POTLOK:  cpu time    0.1665: real time    0.1672
    SETDIJ:  cpu time    0.0153: real time    0.0153
    EDDIAG:  cpu time    4.7184: real time    4.7312
  RMM-DIIS:  cpu time   16.5582: real time   16.6040
    ORTHCH:  cpu time    0.4531: real time    0.4542
       DOS:  cpu time    0.0011: real time    0.0011
    CHARGE:  cpu time    2.0832: real time    2.0889
    MIXING:  cpu time    0.0068: real time    0.0069
    --------------------------------------------
      LOOP:  cpu time   24.0027: real time   24.0687

 eigenvalue-minimisations  :  3862
 total energy-change (2. order) : 0.2913075E+02  (-0.1885032E+01)
 number of electron     801.0000031 magnetization 
 augmentation part      248.1524614 magnetization 

 Broyden mixing:
  rms(total) = 0.31457E+01    rms(broyden)= 0.31457E+01
  rms(prec ) = 0.43523E+01
  weight for this iteration     100.00

 eigenvalues of (default mixing * dielectric matrix)
  average eigenvalue GAMMA=   0.6601
  2.1068  0.9752  0.2687  0.2687  0.2185  0.1230

 Free energy of the ion-electron system (eV)
  ---------------------------------------------------
  alpha Z        PSCENC =      2711.68499749
  Ewald energy   TEWEN  =    174689.38245389
  -Hartree energ DENC   =   -238342.62199783
  -exchange      EXHF   =         0.00000000
  -V(xc)+E(xc)   XCENC  =       264.43522567
  PAW double counting   =     74434.25171834   -72429.71633325
  entropy T*S    EENTRO =         0.12865237
  eigenvalues    EBANDS =      -148.48399619
  atomic energy  EATOM  =     58341.73154849
  Solvation  Ediel_sol  =         0.00000000
  ---------------------------------------------------
  free energy    TOTEN  =      -479.20773103 eV

  energy without entropy =     -479.33638340  energy(sigma->0) =     -479.25061515


--------------------------------------------------------------------------------------------------------




--------------------------------------- Iteration      1(  12)  ---------------------------------------


    POTLOK:  cpu time    0.1653: real time    0.1660
    SETDIJ:  cpu time    0.0154: real time    0.0154
    EDDIAG:  cpu time    4.7048: real time    4.7175
  RMM-DIIS:  cpu time   16.6026: real time   16.6485
    ORTHCH:  cpu time    0.4528: real time    0.4539
       DOS:  cpu time    0.0011: real time    0.0011
    CHARGE:  cpu time    2.0905: real time    2.0965
    MIXING:  cpu time    0.0068: real time    0.0068
    --------------------------------------------
      LOOP:  cpu time   24.0393: real time   24.1056

 eigenvalue-minimisations  :  3860
 total energy-change (2. order) : 0.6995904E+01  (-0.5128308E+00)
 number of electron     801.0000031 magnetization 
 augmentation part      247.9878933 magnetization 

 Broyden mixing:
  rms(total) = 0.19804E+01    rms(broyden)= 0.19804E+01
  rms(prec ) = 0.24044E+01
  weight for this iteration     100.00

 eigenvalues of (default mixing * dielectric matrix)
  average eigenvalue GAMMA=   0.6230
  2.0950  0.6637  0.6637  0.3707  0.2650  0.1206  0.1825

 Free energy of the ion-electron system (eV)
  ---------------------------------------------------
  alpha Z        PSCENC =      2711.68499749
  Ewald energy   TEWEN  =    174689.38245389
  -Hartree energ DENC   =   -238353.26916989
  -exchange      EXHF   =         0.00000000
  -V(xc)+E(xc)   XCENC  =       264.77187871
  PAW double counting   =     74377.62357641   -72371.81940146
  entropy T*S    EENTRO =        -0.08946514
  eigenvalues    EBANDS =      -132.22824518
  atomic energy  EATOM  =     58341.73154849
  Solvation  Ediel_sol  =         0.00000000
  ---------------------------------------------------
  free energy    TOTEN  =      -472.21182667 eV

  energy without entropy =     -472.12236153  energy(sigma->0) =     -472.18200496


--------------------------------------------------------------------------------------------------------




--------------------------------------- Iteration      1(  13)  ---------------------------------------


    POTLOK:  cpu time    0.1668: real time    0.1672
    SETDIJ:  cpu time    0.0154: real time    0.0155
    EDDIAG:  cpu time    4.6975: real time    4.7101
  RMM-DIIS:  cpu time   16.5601: real time   16.6058
    ORTHCH:  cpu time    0.4536: real time    0.4547
       DOS:  cpu time    0.0011: real time    0.0011
    CHARGE:  cpu time    2.0962: real time    2.1022
    MIXING:  cpu time    0.0073: real time    0.0073
    --------------------------------------------
      LOOP:  cpu time   23.9980: real time   24.0639

 eigenvalue-minimisations  :  3872
 total energy-change (2. order) : 0.9035268E+00  (-0.1653455E+00)
 number of electron     801.0000032 magnetization 
 augmentation part      247.9132027 magnetization 

 Broyden mixing:
  rms(total) = 0.13515E+01    rms(broyden)= 0.13515E+01
  rms(prec ) = 0.18252E+01
  weight for this iteration     100.00

 eigenvalues of (default mixing * dielectric matrix)
  average eigenvalue GAMMA=   0.5975
  2.0570  0.7277  0.7277  0.3703  0.2893  0.2893  0.1979  0.1206

 Free energy of the ion-electron system (eV)
  ---------------------------------------------------
  alpha Z        PSCENC =      2711.68499749
  Ewald energy   TEWEN  =    174689.38245389
  -Hartree energ DENC   =   -238368.67631229
  -exchange      EXHF   =         0.00000000
  -V(xc)+E(xc)   XCENC  =       265.05372588
  PAW double counting   =     74323.25160684   -72315.76093888
  entropy T*S    EENTRO =        -0.07018743
  eigenvalues    EBANDS =      -117.90519385
  atomic energy  EATOM  =     58341.73154849
  Solvation  Ediel_sol  =         0.00000000
  ---------------------------------------------------
  free energy    TOTEN  =      -471.30829985 eV

  energy without entropy =     -471.23811242  energy(sigma->0) =     -471.28490404


--------------------------------------------------------------------------------------------------------




--------------------------------------- Iteration      1(  14)  ---------------------------------------


    POTLOK:  cpu time    0.1670: real time    0.1674
    SETDIJ:  cpu time    0.0155: real time    0.0155
    EDDIAG:  cpu time    4.6994: real time    4.7121
  RMM-DIIS:  cpu time   16.6286: real time   16.6744
    ORTHCH:  cpu time    0.5280: real time    0.5296
       DOS:  cpu time    0.0014: real time    0.0014
    CHARGE:  cpu time    2.0948: real time    2.1006
    MIXING:  cpu time    0.0080: real time    0.0080
    --------------------------------------------
      LOOP:  cpu time   24.1426: real time   24.2090

 eigenvalue-minimisations  :  3865
 total energy-change (2. order) : 0.8709465E+00  (-0.7123728E-01)
 number of electron     801.0000031 magnetization 
 augmentation part      247.8980772 magnetization 

 Broyden mixing:
  rms(total) = 0.10070E+01    rms(broyden)= 0.10070E+01
  rms(prec ) = 0.11465E+01
  weight for this iteration     100.00

 eigenvalues of (default mixing * dielectric matrix)
  average eigenvalue GAMMA=   0.5985
  2.0311  0.8639  0.8639  0.5121  0.3070  0.3070  0.1203  0.1907  0.1907

 Free energy of the ion-electron system (eV)
  ---------------------------------------------------
  alpha Z        PSCENC =      2711.68499749
  Ewald energy   TEWEN  =    174689.38245389
  -Hartree energ DENC   =   -238369.92711374
  -exchange      EXHF   =         0.00000000
  -V(xc)+E(xc)   XCENC  =       265.30182307
  PAW double counting   =     74263.56243294   -72254.48701279
  entropy T*S    EENTRO =        -0.08186176
  eigenvalues    EBANDS =      -117.60462095
  atomic energy  EATOM  =     58341.73154849
  Solvation  Ediel_sol  =         0.00000000
  ---------------------------------------------------
  free energy    TOTEN  =      -470.43735337 eV

  energy without entropy =     -470.35549161  energy(sigma->0) =     -470.41006612


--------------------------------------------------------------------------------------------------------




--------------------------------------- Iteration      1(  15)  ---------------------------------------


    POTLOK:  cpu time    0.1870: real time    0.1874
    SETDIJ:  cpu time    0.0156: real time    0.0156
    EDDIAG:  cpu time    4.7024: real time    4.7153
  RMM-DIIS:  cpu time   16.7055: real time   16.7523
    ORTHCH:  cpu time    0.4551: real time    0.4562
       DOS:  cpu time    0.0011: real time    0.0011
    CHARGE:  cpu time    2.1118: real time    2.1168
    MIXING:  cpu time    0.0088: real time    0.0089
    --------------------------------------------
      LOOP:  cpu time   24.1873: real time   24.2535

 eigenvalue-minimisations  :  3871
 total energy-change (2. order) : 0.4020070E+00  (-0.3919799E-01)
 number of electron     801.0000032 magnetization 
 augmentation part      247.8639721 magnetization 

 Broyden mixing:
  rms(total) = 0.88623E+00    rms(broyden)= 0.88623E+00
  rms(prec ) = 0.10554E+01
  weight for this iteration     100.00

 eigenvalues of (default mixing * dielectric matrix)
  average eigenvalue GAMMA=   0.6038
  2.0360  1.0332  1.0332  0.5817  0.2989  0.2989  0.2625  0.1205  0.2051  0.1676

 Free energy of the ion-electron system (eV)
  ---------------------------------------------------
  alpha Z        PSCENC =      2711.68499749
  Ewald energy   TEWEN  =    174689.38245389
  -Hartree energ DENC   =   -238374.00529274
  -exchange      EXHF   =         0.00000000
  -V(xc)+E(xc)   XCENC  =       265.54422258
  PAW double counting   =     74223.44795335   -72212.95714197
  entropy T*S    EENTRO =        -0.08798263
  eigenvalues    EBANDS =      -114.77610488
  atomic energy  EATOM  =     58341.73154849
  Solvation  Ediel_sol  =         0.00000000
  ---------------------------------------------------
  free energy    TOTEN  =      -470.03534642 eV

  energy without entropy =     -469.94736378  energy(sigma->0) =     -470.00601887


--------------------------------------------------------------------------------------------------------




--------------------------------------- Iteration      1(  16)  ---------------------------------------


    POTLOK:  cpu time    0.1695: real time    0.1699
    SETDIJ:  cpu time    0.0151: real time    0.0152
    EDDIAG:  cpu time    4.7283: real time    4.7396
  RMM-DIIS:  cpu time   16.5951: real time   16.6345
    ORTHCH:  cpu time    0.4550: real time    0.4561
       DOS:  cpu time    0.0011: real time    0.0011
    CHARGE:  cpu time    2.1062: real time    2.1112
    MIXING:  cpu time    0.0074: real time    0.0074
    --------------------------------------------
      LOOP:  cpu time   24.0778: real time   24.1350

 eigenvalue-minimisations  :  3862
 total energy-change (2. order) : 0.1907716E+00  (-0.2556251E-01)
 number of electron     801.0000032 magnetization 
 augmentation part      247.8433167 magnetization 

 Broyden mixing:
  rms(total) = 0.68815E+00    rms(broyden)= 0.68815E+00
  rms(prec ) = 0.78460E+00
  weight for this iteration     100.00

 eigenvalues of (default mixing * dielectric matrix)
  average eigenvalue GAMMA=   0.6464
  2.0871  1.3157  1.3157  0.7012  0.3275  0.3275  0.3231  0.2411  0.1204  0.1918
  0.1590

 Free energy of the ion-electron system (eV)
  ---------------------------------------------------
  alpha Z        PSCENC =      2711.68499749
  Ewald energy   TEWEN  =    174689.38245389
  -Hartree energ DENC   =   -238377.87702207
  -exchange      EXHF   =         0.00000000
  -V(xc)+E(xc)   XCENC  =       265.67764569
  PAW double counting   =     74221.19511846   -72210.05810502
  entropy T*S    EENTRO =        -0.10096801
  eigenvalues    EBANDS =      -111.48024378
  atomic energy  EATOM  =     58341.73154849
  Solvation  Ediel_sol  =         0.00000000
  ---------------------------------------------------
  free energy    TOTEN  =      -469.84457485 eV

  energy without entropy =     -469.74360685  energy(sigma->0) =     -469.81091885


--------------------------------------------------------------------------------------------------------




--------------------------------------- Iteration      1(  17)  ---------------------------------------


    POTLOK:  cpu time    0.1695: real time    0.1699
    SETDIJ:  cpu time    0.0155: real time    0.0155
    EDDIAG:  cpu time    4.7012: real time    4.7125
  RMM-DIIS:  cpu time   16.6434: real time   16.6829
    ORTHCH:  cpu time    0.4546: real time    0.4557
       DOS:  cpu time    0.0011: real time    0.0011
    CHARGE:  cpu time    2.1052: real time    2.1102
    MIXING:  cpu time    0.0080: real time    0.0080
    --------------------------------------------
      LOOP:  cpu time   24.0984: real time   24.1557

 eigenvalue-minimisations  :  3861
 total energy-change (2. order) : 0.4644419E-01  (-0.1292146E-01)
 number of electron     801.0000032 magnetization 
 augmentation part      247.8250603 magnetization 

 Broyden mixing:
  rms(total) = 0.43942E+00    rms(broyden)= 0.43942E+00
  rms(prec ) = 0.51638E+00
  weight for this iteration     100.00

 eigenvalues of (default mixing * dielectric matrix)
  average eigenvalue GAMMA=   0.6704
  2.1036  1.5290  1.5290  0.7519  0.4926  0.3080  0.3080  0.3283  0.2178  0.2010
  0.1204  0.1548

 Free energy of the ion-electron system (eV)
  ---------------------------------------------------
  alpha Z        PSCENC =      2711.68499749
  Ewald energy   TEWEN  =    174689.38245389
  -Hartree energ DENC   =   -238386.39591770
  -exchange      EXHF   =         0.00000000
  -V(xc)+E(xc)   XCENC  =       265.85707604
  PAW double counting   =     74250.54416260   -72238.79134151
  entropy T*S    EENTRO =        -0.10063237
  eigenvalues    EBANDS =      -103.71047759
  atomic energy  EATOM  =     58341.73154849
  Solvation  Ediel_sol  =         0.00000000
  ---------------------------------------------------
  free energy    TOTEN  =      -469.79813066 eV

  energy without entropy =     -469.69749829  energy(sigma->0) =     -469.76458654


--------------------------------------------------------------------------------------------------------




--------------------------------------- Iteration      1(  18)  ---------------------------------------


    POTLOK:  cpu time    0.1720: real time    0.1725
    SETDIJ:  cpu time    0.0157: real time    0.0157
    EDDIAG:  cpu time    4.7040: real time    4.7152
  RMM-DIIS:  cpu time   16.5406: real time   16.5798
    ORTHCH:  cpu time    0.4554: real time    0.4565
       DOS:  cpu time    0.0011: real time    0.0011
    CHARGE:  cpu time    2.1037: real time    2.1087
    MIXING:  cpu time    0.0077: real time    0.0078
    --------------------------------------------
      LOOP:  cpu time   24.0002: real time   24.0573

 eigenvalue-minimisations  :  3861
 total energy-change (2. order) : 0.4503002E-01  (-0.1979149E-01)
 number of electron     801.0000031 magnetization 
 augmentation part      247.7580884 magnetization 

 Broyden mixing:
  rms(total) = 0.39393E+00    rms(broyden)= 0.39393E+00
  rms(prec ) = 0.45819E+00
  weight for this iteration     100.00

 eigenvalues of (default mixing * dielectric matrix)
  average eigenvalue GAMMA=   0.6813
  2.0812  1.6156  1.6156  0.8213  0.8213  0.3694  0.3089  0.3089  0.2501  0.1204
  0.2033  0.1876  0.1537

 Free energy of the ion-electron system (eV)
  ---------------------------------------------------
  alpha Z        PSCENC =      2711.68499749
  Ewald energy   TEWEN  =    174689.38245389
  -Hartree energ DENC   =   -238396.65876591
  -exchange      EXHF   =         0.00000000
  -V(xc)+E(xc)   XCENC  =       266.12012822
  PAW double counting   =     74249.46324479   -72236.56007166
  entropy T*S    EENTRO =        -0.10199431
  eigenvalues    EBANDS =       -94.81464163
  atomic energy  EATOM  =     58341.73154849
  Solvation  Ediel_sol  =         0.00000000
  ---------------------------------------------------
  free energy    TOTEN  =      -469.75310064 eV

  energy without entropy =     -469.65110633  energy(sigma->0) =     -469.71910254


--------------------------------------------------------------------------------------------------------




--------------------------------------- Iteration      1(  19)  ---------------------------------------


    POTLOK:  cpu time    0.1716: real time    0.1720
    SETDIJ:  cpu time    0.0153: real time    0.0154
    EDDIAG:  cpu time    4.7053: real time    4.7164
  RMM-DIIS:  cpu time   16.5745: real time   16.6137
    ORTHCH:  cpu time    0.5170: real time    0.5182
       DOS:  cpu time    0.0010: real time    0.0010
    CHARGE:  cpu time    2.1162: real time    2.1212
    MIXING:  cpu time    0.0094: real time    0.0094
    --------------------------------------------
      LOOP:  cpu time   24.1103: real time   24.1674

 eigenvalue-minimisations  :  3867
 total energy-change (2. order) : 0.2772091E-01  (-0.1492610E-01)
 number of electron     801.0000031 magnetization 
 augmentation part      247.6345789 magnetization 

 Broyden mixing:
  rms(total) = 0.39382E+00    rms(broyden)= 0.39382E+00
  rms(prec ) = 0.45919E+00
  weight for this iteration     100.00

 eigenvalues of (default mixing * dielectric matrix)
  average eigenvalue GAMMA=   0.6573
  2.1174  1.5862  1.5862  0.8830  0.8830  0.4107  0.3087  0.3087  0.2772  0.1204
  0.2123  0.1916  0.1682  0.1492

 Free energy of the ion-electron system (eV)
  ---------------------------------------------------
  alpha Z        PSCENC =      2711.68499749
  Ewald energy   TEWEN  =    174689.38245389
  -Hartree energ DENC   =   -238412.00154500
  -exchange      EXHF   =         0.00000000
  -V(xc)+E(xc)   XCENC  =       266.44035622
  PAW double counting   =     74237.68414642   -72223.32400131
  entropy T*S    EENTRO =        -0.10901556
  eigenvalues    EBANDS =       -81.21432038
  atomic energy  EATOM  =     58341.73154849
  Solvation  Ediel_sol  =         0.00000000
  ---------------------------------------------------
  free energy    TOTEN  =      -469.72537973 eV

  energy without entropy =     -469.61636418  energy(sigma->0) =     -469.68904122


--------------------------------------------------------------------------------------------------------




--------------------------------------- Iteration      1(  20)  ---------------------------------------


    POTLOK:  cpu time    0.1727: real time    0.1731
    SETDIJ:  cpu time    0.0153: real time    0.0153
    EDDIAG:  cpu time    4.7047: real time    4.7160
  RMM-DIIS:  cpu time   16.6285: real time   16.6679
    ORTHCH:  cpu time    0.4512: real time    0.4523
       DOS:  cpu time    0.0011: real time    0.0011
    CHARGE:  cpu time    2.1058: real time    2.1109
    MIXING:  cpu time    0.0089: real time    0.0089
    --------------------------------------------
      LOOP:  cpu time   24.0882: real time   24.1454

 eigenvalue-minimisations  :  3862
 total energy-change (2. order) : 0.5919975E-01  (-0.5454371E-02)
 number of electron     801.0000031 magnetization 
 augmentation part      247.6012739 magnetization 

 Broyden mixing:
  rms(total) = 0.21260E+00    rms(broyden)= 0.21260E+00
  rms(prec ) = 0.26538E+00
  weight for this iteration     100.00

 eigenvalues of (default mixing * dielectric matrix)
  average eigenvalue GAMMA=   0.6570
  2.2099  1.5411  1.5411  0.9819  0.9819  0.5785  0.3170  0.3170  0.3242  0.1204
  0.2352  0.2096  0.1971  0.1538  0.1469

 Free energy of the ion-electron system (eV)
  ---------------------------------------------------
  alpha Z        PSCENC =      2711.68499749
  Ewald energy   TEWEN  =    174689.38245389
  -Hartree energ DENC   =   -238417.36005394
  -exchange      EXHF   =         0.00000000
  -V(xc)+E(xc)   XCENC  =       266.50234402
  PAW double counting   =     74248.37883479   -72233.82705634
  entropy T*S    EENTRO =        -0.11961835
  eigenvalues    EBANDS =       -76.03963005
  atomic energy  EATOM  =     58341.73154849
  Solvation  Ediel_sol  =         0.00000000
[...]
   0.105E+00 -.212E+00 0.266E+04   -.964E-01 0.250E+00 -.266E+04   -.270E-01 0.586E-01 -.742E+00   0.158E-01 -.861E-01 0.817E-01
   -.110E+01 0.210E+01 0.266E+04   0.113E+01 -.195E+01 -.266E+04   0.362E-01 -.895E-01 -.730E+00   -.335E-01 -.852E-01 0.770E-01
   -.974E-01 0.617E+00 0.265E+04   0.132E+00 -.706E+00 -.265E+04   -.181E-01 0.192E-01 -.740E+00   -.112E-01 0.541E-01 0.815E-01
   0.201E+00 -.240E+01 0.134E+04   -.244E+00 0.241E+01 -.134E+04   -.592E-02 0.343E-01 -.521E+00   0.451E-01 -.763E-02 0.691E-01
   -.252E+00 0.187E+01 0.134E+04   0.236E+00 -.169E+01 -.134E+04   0.928E-03 -.331E-01 -.503E+00   0.956E-02 -.151E+00 0.998E-01
   0.283E-01 0.616E-01 -.133E+04   -.285E-01 -.115E+00 0.133E+04   0.211E-02 -.808E-02 0.544E+00   -.237E-02 0.610E-01 -.187E-01
   -.142E+01 -.836E+00 0.265E+04   0.142E+01 0.669E+00 -.265E+04   0.442E-01 0.677E-01 -.658E+00   -.291E-01 0.118E+00 0.204E-01
   0.113E+01 -.689E+00 0.135E+04   -.103E+01 0.679E+00 -.135E+04   -.280E-01 0.192E-01 -.508E+00   -.511E-01 0.337E-03 0.729E-01
   -.196E+00 0.501E+00 0.494E+01   0.194E+00 -.670E+00 -.488E+01   0.144E-02 0.299E-02 -.366E-01   0.182E-02 0.169E+00 -.165E-01
   0.113E-01 0.143E+00 -.133E+04   -.178E-01 -.487E-01 0.133E+04   -.657E-03 0.158E-02 0.548E+00   0.538E-02 -.919E-01 0.161E-01
   0.224E+01 0.111E+01 -.136E+04   -.232E+01 -.122E+01 0.136E+04   0.823E-01 0.446E-01 0.473E+00   -.105E-01 0.774E-01 -.100E+00
   -.784E+00 -.284E+00 -.134E+04   0.973E+00 0.350E+00 0.134E+04   -.202E+00 -.122E+00 0.337E+00   0.205E-01 0.640E-01 -.242E-01
   0.861E+00 -.805E+00 0.266E+04   -.830E+00 0.797E+00 -.265E+04   -.395E-01 0.325E-01 -.666E+00   0.510E-02 -.241E-01 -.407E-02
   0.280E+00 -.408E-01 0.265E+04   -.286E+00 0.343E-01 -.265E+04   0.685E-02 0.936E-02 -.740E+00   0.998E-02 -.773E-02 0.720E-01
   -.166E+00 -.143E+00 0.265E+04   0.105E+00 0.292E-01 -.265E+04   0.264E-01 -.181E-01 -.593E+00   0.264E-01 0.108E+00 0.171E-01
   0.798E+00 -.371E+00 0.135E+04   -.875E+00 0.507E+00 -.135E+04   -.120E-01 0.161E-01 -.533E+00   0.664E-01 -.140E+00 0.103E+00
   0.119E+01 0.560E+00 0.557E+01   -.125E+01 -.539E+00 -.557E+01   0.104E-01 0.143E-01 0.181E-02   0.499E-01 -.308E-01 0.101E-01
   -.554E+00 0.739E+00 0.135E+04   0.557E+00 -.789E+00 -.135E+04   0.164E-02 -.655E-03 -.533E+00   0.125E-01 0.238E-01 0.982E-01
   0.281E+01 -.172E+01 0.134E+04   -.281E+01 0.162E+01 -.134E+04   -.453E-01 0.268E-01 -.408E+00   0.363E-02 0.969E-01 0.565E-01
   -.257E+00 0.959E+00 -.134E+04   0.282E+00 -.115E+01 0.134E+04   0.470E-02 0.231E+00 0.343E+00   -.322E-01 -.488E-01 -.511E-01
   -.580E-01 0.848E-01 0.265E+04   0.775E-01 0.332E-01 -.265E+04   0.312E-02 0.246E-01 -.580E+00   -.156E-01 -.115E+00 0.495E-01
   0.230E+01 0.845E+00 0.134E+04   -.234E+01 -.817E+00 -.134E+04   -.322E-01 -.576E-02 -.511E+00   0.276E-01 -.319E-01 0.818E-01
   0.403E-01 0.230E+01 0.468E+01   0.465E-02 -.219E+01 -.478E+01   0.460E-03 0.109E-01 0.472E-01   -.463E-01 -.139E+00 0.599E-01
   -.408E+00 -.363E+00 -.265E+04   0.391E+00 0.403E+00 0.265E+04   0.139E-01 -.115E-01 0.576E+00   0.623E-02 -.252E-01 -.786E-01
   0.548E+01 0.265E+01 -.264E+04   -.543E+01 -.267E+01 0.264E+04   -.529E-01 -.352E-01 0.599E+00   0.187E-02 0.461E-01 -.242E-01
   0.414E+00 -.590E+01 -.264E+04   -.368E+00 0.589E+01 0.264E+04   -.876E-02 0.465E-01 0.601E+00   -.385E-01 -.284E-01 -.619E-01
   -.511E+01 0.260E+01 -.264E+04   0.502E+01 -.259E+01 0.264E+04   0.652E-01 -.374E-01 0.601E+00   0.177E-01 0.250E-01 -.237E-01
   -.640E+00 -.569E+01 -.264E+04   0.599E+00 0.567E+01 0.264E+04   0.314E-01 0.458E-01 0.606E+00   0.830E-02 -.241E-01 -.496E-01
   -.469E+01 0.349E+01 -.264E+04   0.466E+01 -.334E+01 0.264E+04   0.446E-01 -.536E-01 0.604E+00   -.165E-01 -.875E-01 -.277E-01
   0.742E-01 0.365E+00 -.264E+04   -.755E-01 -.296E+00 0.264E+04   0.823E-02 -.217E-01 0.646E+00   -.796E-02 -.500E-01 -.594E-02
   0.439E+00 -.345E-01 -.265E+04   -.465E+00 0.709E-01 0.265E+04   -.165E-03 -.140E-01 0.576E+00   0.213E-01 -.213E-01 -.634E-01
   0.309E+00 0.250E+00 -.265E+04   -.340E+00 -.301E+00 0.265E+04   0.180E-02 -.116E-01 0.576E+00   0.256E-01 0.648E-01 -.786E-01
   0.478E+01 0.388E+01 -.264E+04   -.476E+01 -.376E+01 0.264E+04   -.317E-01 -.630E-01 0.607E+00   0.106E-01 -.561E-01 -.130E-01
   -.414E+00 -.118E+02 -.265E+04   0.419E+00 0.125E+02 0.265E+04   0.164E-01 -.793E+00 0.179E+00   -.235E-01 0.743E-01 -.743E-01
   -.101E+02 0.587E+01 -.264E+04   0.108E+02 -.625E+01 0.264E+04   -.681E+00 0.386E+00 0.150E+00   0.554E-02 0.729E-02 -.442E-01
   -.183E+01 0.878E+00 -.264E+04   0.155E+01 -.761E+00 0.264E+04   0.308E+00 -.188E+00 0.732E+00   -.209E-01 0.720E-01 -.790E-01
   -.401E+00 -.187E+01 -.264E+04   0.374E+00 0.164E+01 0.264E+04   0.148E-01 0.328E+00 0.740E+00   0.106E-01 -.923E-01 -.348E-01
   -.727E-01 -.258E+01 -.136E+04   0.572E-01 0.266E+01 0.136E+04   0.473E-02 -.100E+00 0.464E+00   0.894E-02 0.182E-01 -.649E-01
   0.133E+01 -.199E+01 0.265E+04   -.130E+01 0.184E+01 -.265E+04   -.693E-01 0.881E-01 -.737E+00   0.298E-01 0.790E-01 0.341E-01
   0.102E+00 -.795E+00 -.133E+04   -.146E+00 0.945E+00 0.133E+04   -.914E-02 -.504E-01 0.579E+00   0.508E-01 -.949E-01 0.135E-02
   0.375E+00 -.609E+00 0.266E+04   -.442E+00 0.630E+00 -.266E+04   0.140E-01 0.123E-01 -.726E+00   0.538E-01 -.268E-01 0.195E-01
   0.108E+01 -.614E+00 0.134E+04   -.103E+01 0.431E+00 -.134E+04   -.264E-01 0.106E-01 -.518E+00   -.273E-01 0.143E+00 0.529E-01
   -.132E+01 -.120E+01 0.134E+04   0.131E+01 0.979E+00 -.134E+04   0.253E-01 0.290E-01 -.515E+00   -.815E-02 0.176E+00 0.595E-01
   -.169E-01 0.171E+00 -.133E+04   0.600E-01 -.614E-01 0.133E+04   0.471E-02 -.103E-02 0.548E+00   -.494E-01 -.106E+00 -.257E-02
   -.686E+00 -.282E+00 0.266E+04   0.750E+00 0.269E+00 -.266E+04   -.159E-01 0.256E-01 -.662E+00   -.490E-01 -.164E-01 0.155E-01
   0.346E+00 0.160E+01 0.134E+04   -.263E+00 -.143E+01 -.134E+04   -.447E-02 -.326E-01 -.512E+00   -.656E-01 -.134E+00 0.115E+00
   0.945E+01 0.586E+01 -.265E+04   -.101E+02 -.626E+01 0.265E+04   0.716E+00 0.392E+00 0.177E+00   -.295E-01 0.283E-01 -.416E-01
   0.106E+00 -.669E-01 -.115E+02   -.111E+00 -.336E-01 0.117E+02   0.128E-02 -.786E-03 -.205E+00   0.201E-02 0.978E-01 -.955E-02
   0.176E+01 0.120E+01 -.264E+04   -.150E+01 -.108E+01 0.264E+04   -.288E+00 -.197E+00 0.739E+00   0.171E-01 0.732E-01 -.648E-01
   -.155E+01 -.803E+00 0.134E+04   0.146E+01 0.790E+00 -.134E+04   0.378E-01 0.134E-01 -.513E+00   0.502E-01 0.103E-01 0.641E-01
   0.143E+00 -.340E+00 0.134E+04   -.100E+00 0.306E+00 -.134E+04   -.964E-03 0.198E-01 -.476E+00   -.442E-01 0.203E-01 0.627E-01
   -.130E+01 0.652E+00 0.550E+01   0.131E+01 -.656E+00 -.551E+01   -.156E-01 0.135E-01 -.111E-02   -.514E-03 -.535E-02 0.146E-01
   0.773E+00 0.374E+00 -.133E+04   -.840E+00 -.492E+00 0.133E+04   0.480E-01 0.102E-01 0.580E+00   0.129E-01 0.108E+00 -.844E-01
   -.245E+01 0.123E+01 -.136E+04   0.254E+01 -.137E+01 0.136E+04   -.781E-01 0.480E-01 0.467E+00   -.214E-01 0.995E-01 -.932E-01
   0.564E-01 0.958E+00 0.266E+04   -.263E-01 -.992E+00 -.266E+04   -.378E-01 -.245E-01 -.737E+00   -.215E-02 0.270E-01 0.804E-01
   0.260E+00 -.151E-01 0.265E+04   -.251E+00 -.257E-01 -.265E+04   -.149E-01 0.270E-01 -.753E+00   0.344E-02 0.193E-01 0.734E-01
   -.397E+00 0.300E+01 0.134E+04   0.408E+00 -.297E+01 -.134E+04   0.202E-01 -.288E-01 -.398E+00   -.122E-01 -.350E-01 0.931E-01
   -.235E+01 -.145E+01 0.134E+04   0.234E+01 0.131E+01 -.134E+04   0.150E-01 0.152E-01 -.398E+00   0.319E-01 0.130E+00 0.621E-01
   -.178E+01 -.120E+01 0.391E+01   0.180E+01 0.115E+01 -.396E+01   -.118E-01 -.302E-02 0.336E-01   0.447E-02 0.619E-01 0.313E-01
   0.754E+00 -.566E+00 -.134E+04   -.947E+00 0.671E+00 0.134E+04   0.212E+00 -.113E+00 0.337E+00   -.291E-01 0.174E-01 -.553E-01
   0.673E+00 -.299E+00 0.266E+04   -.574E+00 0.191E+00 -.266E+04   -.653E-01 -.618E-02 -.589E+00   -.273E-01 0.912E-01 0.359E-01
   -.550E+00 -.372E-01 0.593E+01   0.597E+00 0.171E+00 -.594E+01   0.262E-02 -.149E-02 -.318E-01   -.532E-01 -.137E+00 0.484E-01
   0.155E+01 0.248E+01 0.605E+00   -.160E+01 -.243E+01 -.658E+00   0.539E-01 0.883E-02 0.364E-01   -.296E-02 -.619E-01 0.216E-01
   0.295E+01 -.112E+00 0.616E+00   -.298E+01 -.400E-01 -.621E+00   0.393E-01 0.492E-01 0.336E-01   -.934E-02 0.102E+00 -.246E-01
   -.147E+01 0.249E+01 -.748E+00   0.158E+01 -.246E+01 0.701E+00   -.512E-01 0.973E-02 0.269E-01   -.486E-01 -.351E-01 0.234E-01
   0.478E+00 -.797E-01 0.532E+01   -.522E+00 0.209E+00 -.533E+01   -.245E-02 0.312E-02 -.368E-01   0.487E-01 -.136E+00 0.596E-01
   -.127E+01 0.104E+01 0.134E+04   0.132E+01 -.107E+01 -.134E+04   -.649E-02 -.984E-02 -.520E+00   -.280E-01 0.226E-01 0.106E+00
   -.108E+00 -.111E+01 0.554E+01   0.557E-01 0.126E+01 -.560E+01   0.169E-02 -.200E-01 0.110E-01   0.498E-01 -.132E+00 0.436E-01
   -.281E-01 -.759E+00 -.133E+04   0.269E-01 0.925E+00 0.133E+04   0.852E-02 -.552E-01 0.579E+00   -.101E-01 -.107E+00 -.184E-01
   0.895E+00 0.462E+00 -.133E+04   -.964E+00 -.445E+00 0.133E+04   0.372E-01 0.268E-01 0.575E+00   0.272E-01 -.449E-01 -.389E-01
   -.344E+00 -.606E+00 0.266E+04   0.372E+00 0.599E+00 -.266E+04   0.162E-02 0.389E-01 -.729E+00   -.976E-02 -.187E-01 0.387E-01
   0.143E+01 0.635E+00 0.266E+04   -.143E+01 -.495E+00 -.266E+04   -.620E-01 -.370E-01 -.741E+00   0.332E-01 -.117E+00 0.552E-01
   -.291E+01 -.912E-01 -.767E+00   0.294E+01 -.122E+00 0.755E+00   -.349E-01 0.489E-01 0.174E-01   0.501E-02 0.164E+00 -.224E-02
   0.167E+01 -.110E+01 0.533E+01   -.164E+01 0.107E+01 -.536E+01   0.200E-01 0.436E-03 0.307E-01   -.548E-01 0.367E-01 0.138E-01
   -.104E+01 0.148E+00 0.135E+04   0.106E+01 -.244E-01 -.135E+04   0.223E-01 -.562E-02 -.542E+00   -.105E-01 -.123E+00 0.119E+00
   0.152E+01 -.260E+01 0.129E+01   -.149E+01 0.264E+01 -.134E+01   -.241E-01 -.500E-01 0.358E-01   -.877E-02 0.163E-01 0.143E-01
   -.146E+01 -.273E+01 -.422E-01   0.138E+01 0.275E+01 -.914E-02   0.248E-01 -.537E-01 0.277E-01   0.589E-01 0.419E-01 0.280E-01
   -.102E-01 0.125E-01 -.314E+03   0.214E-02 -.195E-01 0.316E+03   0.687E-02 -.833E-03 -.152E+01   -.211E-02 0.532E-02 0.217E-02
 -----------------------------------------------------------------------------------------------
   0.501E-01 -.736E-01 0.302E+01   0.428E-12 0.847E-12 0.307E-11   -.205E-01 0.287E-01 -.379E+01   -.297E-01 0.415E-01 0.875E+00
 
 
 POSITION                                       TOTAL-FORCE (eV/Angst)
 -----------------------------------------------------------------------------------
     13.23972      8.18477      7.31559        -0.001340     -0.001797      0.007439
      5.09544      8.18471      7.30834         0.005274     -0.005784      0.005875
      3.73680      5.83220      7.30891         0.006758     -0.002684      0.009906
     13.26096      8.15881      0.33508        -0.002125      0.009475     -0.025103
      5.11298      8.16499      0.33776         0.030690     -0.024825     -0.040882
      3.75994      5.80893      0.34099         0.005759     -0.015675     -0.043579
      7.82212      1.89698      2.68782        -0.003504      0.037882      0.021341
      9.17946      8.95119      2.68863        -0.006225     -0.006051      0.019594
      2.37974      3.48013      7.30382        -0.000387     -0.001466      0.006261
      2.39734      3.45595      0.34227         0.017432      0.018520     -0.055529
     10.53697      1.89804      2.68601         0.023178      0.009400      0.017536
     13.24522      5.04190      5.00085         0.001006      0.002666      0.009950
      3.73650      1.13030      7.30407        -0.001899      0.004530      0.007905
      9.16191      5.82933      7.35022        -0.009011      0.000166     -0.001874
      5.10276      3.48619      7.32982         0.008825      0.008159      0.011702
      3.75911      1.10540      0.34120        -0.003205      0.000595     -0.064125
      9.18634      5.80965      0.34007         0.010598     -0.004500     -0.023334
      5.11389      3.46032      0.34242        -0.008312     -0.022366     -0.021498
     11.89500      8.95112      2.68655        -0.022154      0.013370      0.015464
     11.88793      7.39160      4.99747        -0.003690      0.003345      0.003071
     13.25268      6.60069      2.68826         0.016754     -0.027241      0.016062
      9.18124      4.24885      2.68838        -0.036344      0.018482      0.112894
      7.80941      8.17413      7.32806        -0.003314     -0.009346      0.009411
      7.82892      8.15831      0.34077         0.006465      0.028090     -0.018677
     10.53847      6.60054      2.68678        -0.044602     -0.010043      0.030260
      2.38556      0.33515      4.99639        -0.001217     -0.007392      0.007308
     14.59210      8.97523      9.67841         0.004420      0.003753     -0.008145
      3.72489      4.27501      9.66667         0.001637     -0.001303     -0.007726
      6.44245      8.98002      9.66588        -0.000894      0.000372     -0.010154
     11.88464      4.27524      9.66534        -0.004686     -0.002793     -0.008185
      9.16698      8.97989      9.66641        -0.001351     -0.001094     -0.010442
     10.52256      1.91374      9.66731        -0.005886      0.005208     -0.012140
      2.37486      1.92198      9.65511        -0.000981     -0.003610     -0.007526
     11.87803      8.97511      9.67820        -0.005507      0.001355     -0.006819
     13.23519      6.62429      9.68009        -0.002890      0.000833     -0.009302
      5.08755      1.91383      9.66837         0.000681      0.004180     -0.009907
      7.80428      6.66418      9.74308        -0.002108      0.004211     -0.000401
      9.19979      4.25095      9.74000        -0.016307      0.007784     -0.000043
      5.06558      6.63829      9.65892        -0.001404      0.002211     -0.005940
      7.80456      1.89362      9.65763        -0.001312     -0.002234     -0.003629
      7.80953      3.48797      7.35102        -0.001615      0.008180     -0.006058
      7.83361      3.45501      0.33888        -0.011864      0.016322     -0.022302
      6.45149      1.13109      7.30811        -0.001407      0.007557      0.009556
      6.47133      1.10903      0.33724         0.000826      0.007068     -0.041652
     11.89516      4.24994      2.69001        -0.001189     -0.030150      0.010473
      3.75030      4.24868      2.69210         0.001907     -0.013376      0.012427
      1.02369      1.13055      7.30309        -0.001363      0.003210      0.009323
      1.04212      1.10534      0.33711        -0.001820     -0.003151     -0.055459
      6.46463      8.95151      2.68979         0.012354      0.007766      0.011253
      6.40980      4.25115      9.74479         0.012465      0.009448     -0.000862
      7.81582      5.04081      5.03246        -0.001013     -0.003473     -0.009785
     10.54378      6.63859      9.65779        -0.000849      0.000645     -0.006269
      5.10673      1.89832      2.69082        -0.001777      0.011596      0.015798
      2.39206      1.89658      2.69003        -0.003018      0.006444     -0.059865
     14.60308      7.39177      4.99785        -0.001144      0.002805      0.003575
     11.88195      5.83180      7.30781        -0.008267     -0.001535      0.009308
      6.45727      5.82930      7.35312         0.003983      0.001617     -0.001731
     11.90328      5.81190      0.33786        -0.009791     -0.030537     -0.044070
      6.47361      5.80809      0.34072        -0.002949      0.005585     -0.028659
      7.82158      6.60008      2.69018         0.018503     -0.038931      0.121531
      6.46647      4.24923      2.68967         0.029034      0.006429      0.126023
      3.74502      2.69029      4.99816         0.005214      0.009628      0.005627
     10.51690      3.48501      7.32648        -0.010090      0.009630      0.011800
     10.54781      3.46059      0.33617         0.007441     -0.022399     -0.012807
     10.52867      0.33768      4.99911        -0.002332     -0.003280      0.011524
      9.17182      7.38746      5.00454        -0.003619      0.004063      0.000274
     10.52588      5.04119      5.00446        -0.001107     -0.002079     -0.000144
      6.45962      7.38749      5.00703         0.002857      0.004133     -0.001550
      5.10158      0.33727      5.00024         0.000633     -0.002752      0.012738
      5.10888      6.60100      2.68955         0.013944     -0.014396      0.027857
      7.81465      0.33881      4.99714        -0.000164     -0.003433      0.004449
      9.16861      1.13135      7.30718        -0.003133      0.006888      0.008245
     10.52383      8.18436      7.30802        -0.006622     -0.003859      0.005741
      9.18563      1.10733      0.33405         0.019533      0.013166     -0.040746
     10.54699      8.16248      0.33544        -0.027010     -0.013210     -0.042612
      5.10536      5.04134      5.00767         0.000772     -0.001803     -0.001423
     11.88514      2.68985      4.99604        -0.005738      0.007827      0.002761
     14.60792      8.95243      2.68762         0.033069     -0.003892      0.008600
      9.17014      2.69299      5.00322        -0.000039      0.005111     -0.000293
      6.46063      2.69333      5.00588        -0.000129      0.005188     -0.000225
      7.81005      5.05314     10.67155        -0.003307     -0.002434      0.030612
 -----------------------------------------------------------------------------------
    total drift:                               -0.000058     -0.003435      0.105807


--------------------------------------------------------------------------------------------------------



  FREE ENERGIE OF THE ION-ELECTRON SYSTEM (eV)
  ---------------------------------------------------
  free  energy   TOTEN  =      -519.47620545 eV

  energy  without entropy=     -519.38928296  energy(sigma->0) =     -519.44723129
 
 d Force = 0.7076722E-03[ 0.409E-03, 0.101E-02]  d Energy = 0.7501116E-03-0.424E-04
 d Force = 0.4531649E+02[ 0.453E+02, 0.453E+02]  d Ewald  = 0.4531649E+02-0.583E-05


--------------------------------------------------------------------------------------------------------


    POTLOK:  cpu time    0.1918: real time    0.1922


--------------------------------------------------------------------------------------------------------


 Conjugate gradient step on ions:
 trial-energy change:   -0.000750  1 .order   -0.000708   -0.001006   -0.000409
  (g-gl).g = 0.688E-03      g.g   = 0.739E-03  gl.gl    = 0.121E-02
 g(Force)  = 0.739E-03   g(Stress)= 0.000E+00 ortho     = 0.259E-04
 gamma     =   0.56848
 trial     =   1.33604
 opt step  =   1.90486  (harmonic =   2.25051) maximal distance =0.01227973
 next E    =  -519.476296   (d E  =  -0.00084)


--------------------------------------------------------------------------------------------------------


  
 reached required accuracy - stopping structural energy minimisation
     LOOP+:  cpu time  197.8664: real time  198.3389
    4ORBIT:  cpu time    0.0000: real time    0.0000

 total amount of memory used by VASP MPI-rank0   162518. kBytes
=======================================================================

   base      :      30000. kBytes
   nonlr-proj:      34763. kBytes
   fftplans  :      17974. kBytes
   grid      :      27754. kBytes
   one-center:        326. kBytes
   wavefun   :      51701. kBytes
 
  
  
 General timing and accounting informations for this job:
 ========================================================
  
                  Total CPU time used (sec):     5528.417
                            User time (sec):     5522.701
                          System time (sec):        5.716
                         Elapsed time (sec):     5543.432
  
                   Maximum memory used (kb):      640464.
                   Average memory used (kb):           0.
  
                          Minor page faults:      1758525
                          Major page faults:            0
                 Voluntary context switches:         3729
