 vasp.5.4.4.18Apr17-6-g9f103f2a35 (build Nov 30 2020 22:55:02) complex          
  
 executed on             LinuxIFC date 2023.09.08  18:29:26
 running on   40 total cores
 distrk:  each k-point on   40 cores,    1 groups
 distr:  one band on NCORES_PER_BAND=   4 cores,   10 groups


--------------------------------------------------------------------------------------------------------


 INCAR:
 POTCAR:    PAW_PBE Pt 04Feb2005                  
 POTCAR:    PAW_PBE Pt 04Feb2005                  
   VRHFIN =Pt: s1d9                                                             
   LEXCH  = PE                                                                  
   EATOM  =   729.1176 eV,   53.5886 Ry                                         
                                                                                
   TITEL  = PAW_PBE Pt 04Feb2005                                                
   LULTRA =        F    use ultrasoft PP ?                                      
   IUNSCR =        1    unscreen: 0-lin 1-nonlin 2-no                           
   RPACOR =    2.330    partial core radius                                     
   POMASS =  195.080; ZVAL   =   10.000    mass and valenz                      
   RCORE  =    2.600    outmost cutoff radius                                   
   RWIGS  =    2.750; RWIGS  =    1.455    wigner-seitz radius (au A)           
   ENMAX  =  230.283; ENMIN  =  172.712 eV                                      
   ICORE  =        3    local potential                                         
   LCOR   =        T    correct aug charges                                     
   LPAW   =        T    paw PP                                                  
   EAUG   =  358.966                                                            
   DEXC   =    0.000                                                            
   RMAX   =    2.658    core radius for proj-oper                               
   RAUG   =    1.300    factor for augmentation sphere                          
   RDEP   =    2.761    radius for radial grids                                 
   RDEPT  =    2.203    core radius for aug-charge                              
                                                                                
   Atomic configuration                                                         
   16 entries                                                                   
     n  l   j            E        occ.                                          
     1  0  0.50    -78401.1885   2.0000                                         
     2  0  0.50    -13770.7750   2.0000                                         
     2  1  1.50    -11931.0468   6.0000                                         
     3  0  0.50     -3234.7234   2.0000                                         
     3  1  1.50     -2699.2216   6.0000                                         
     3  2  2.50     -2119.5714  10.0000                                         
     4  0  0.50      -695.1528   2.0000                                         
     4  1  1.50      -519.6034   6.0000                                         
     4  2  2.50      -306.6786  10.0000                                         
     4  3  3.50       -70.1041  14.0000                                         
     5  0  0.50      -101.7747   2.0000                                         
     5  1  1.50       -55.9873   6.0000                                         
     5  2  2.50        -6.1423   9.0000                                         
     6  0  0.50        -5.6573   1.0000                                         
     6  1  1.50        -6.8029   0.0000                                         
     5  3  2.50        -1.3606   0.0000                                         
   Description                                                                  
     l       E           TYP  RCUT    TYP  RCUT                                 
     2     -6.1423404     23  2.500                                             
     2     -7.5029230     23  2.500                                             
     0     -5.6573207     23  2.500                                             
     0      0.7416693     23  2.500                                             
     1     -2.7211652     23  2.600                                             
     1     20.4087390     23  2.600                                             
     3     -1.3605826     23  2.500                                             
  local pseudopotential read in
  partial core-charges read in
  partial kinetic energy density read in
  atomic valenz-charges read in
  non local Contribution for L=           2  read in
    real space projection operators read in
  non local Contribution for L=           2  read in
    real space projection operators read in
  non local Contribution for L=           0  read in
    real space projection operators read in
  non local Contribution for L=           0  read in
    real space projection operators read in
  non local Contribution for L=           1  read in
    real space projection operators read in
  non local Contribution for L=           1  read in
    real space projection operators read in
    PAW grid and wavefunctions read in
 
   number of l-projection  operators is LMAX  =           6
   number of lm-projection operators is LMMAX =          18
 
 Optimization of the real space projectors (new method)

 maximal supplied QI-value         = 14.36
 optimisation between [QCUT,QGAM] = [ 11.92, 23.98] = [ 39.79,161.09] Ry 
 Optimized for a Real-space Cutoff    1.49 Angstroem

   l    n(q)    QCUT    max X(q) W(low)/X(q) W(high)/X(q)  e(spline) 
   2     10    11.920    66.195    0.79E-04    0.18E-03    0.24E-06
   2     10    11.920    64.643    0.81E-04    0.19E-03    0.24E-06
   0     11    11.920    95.520    0.28E-04    0.54E-04    0.18E-06
   0     11    11.920    63.403    0.27E-04    0.52E-04    0.17E-06
   1     10    11.920    19.961    0.18E-04    0.11E-03    0.23E-06
   1     10    11.920    13.289    0.25E-04    0.87E-04    0.19E-06
  PAW_PBE Pt 04Feb2005                  :
 energy of atom  1       EATOM= -729.1176
 kinetic energy error for atom=    0.0021 (will be added to EATOM!!)
 
 
 POSCAR: Pt111                                   
  positions in direct lattice
  velocities in cartesian coordinates
 exchange correlation table for  LEXCH =        8
   RHO(1)=    0.500       N(1)  =     2000
   RHO(2)=  100.500       N(2)  =     4000
 


--------------------------------------------------------------------------------------------------------


 ion  position               nearest neighbor table
   1  0.784  0.870  0.337-  43 2.61  73 2.61  72 2.61  56 2.62   3 2.62   2 2.62  55 2.86  20 2.86
                            71 2.87  27 2.90  34 2.90  35 2.90
   2  0.034  0.870  0.337-  72 2.61  23 2.61  47 2.61   3 2.61   1 2.62  57 2.62  55 2.86  68 2.86
                            65 2.87  27 2.89  29 2.90  39 2.90
   3  0.034  0.620  0.338-   9 2.61   2 2.61  56 2.62  57 2.62   1 2.62  15 2.62  12 2.86  76 2.86
                            55 2.87  35 2.89  39 2.89  28 2.90
   4  0.788  0.867  0.003-  44 2.61   6 2.61  75 2.61  74 2.62  58 2.62   5 2.62  78 2.89  21 2.90
                            19 2.90
   5  0.038  0.867  0.004-  59 2.61  74 2.61  24 2.61   6 2.62  48 2.62   4 2.62  49 2.89  78 2.90
                            70 2.90
   6  0.038  0.617  0.004-   4 2.61  59 2.61  10 2.61   5 2.62  18 2.62  58 2.62  70 2.90  21 2.90
                            46 2.90
   7  0.620  0.201  0.116-  22 2.61  53 2.61  61 2.62  19 2.62  78 2.62  11 2.62  71 2.85  79 2.86
                            80 2.88  42 2.89  44 2.89  74 2.90
   8  0.370  0.951  0.116-  19 2.61  49 2.61  25 2.61  54 2.62  53 2.62  60 2.62  66 2.85  69 2.86
                            26 2.87  16 2.89  24 2.89  75 2.90
   9  0.034  0.370  0.338-   3 2.61  63 2.61  56 2.61  47 2.62  13 2.62  15 2.62  62 2.86  12 2.87
                            77 2.87  33 2.89  30 2.89  28 2.90
  10  0.038  0.367  0.004-   6 2.61  48 2.61  18 2.61  58 2.62  16 2.62  64 2.62  54 2.89  46 2.90
                            45 2.90
  11  0.870  0.201  0.116-  45 2.61  49 2.61  54 2.61  78 2.62   7 2.62  22 2.62  65 2.86  77 2.87
                            79 2.87  64 2.89  74 2.90  48 2.90
  12  0.951  0.536  0.227-  77 2.61  20 2.61  55 2.61  67 2.62  76 2.62  62 2.62  21 2.86  56 2.86
                             3 2.86  45 2.86   9 2.87  46 2.87
  13  0.284  0.120  0.338-  73 2.61  47 2.61  23 2.61  43 2.62   9 2.62  15 2.62  62 2.86  26 2.87
                            69 2.87  31 2.89  36 2.89  33 2.90
  14  0.534  0.620  0.337-  41 2.61  57 2.61  63 2.62  73 2.62  56 2.62  23 2.62  51 2.86  66 2.87
                            67 2.87  52 2.89  38 2.89  37 2.90
  15  0.284  0.370  0.338-  57 2.61  41 2.61  43 2.62  13 2.62   9 2.62   3 2.62  62 2.86  76 2.86
                            80 2.87  50 2.89  36 2.89  28 2.90
  16  0.288  0.117  0.004-  18 2.61  24 2.61  44 2.61  75 2.62  10 2.62  48 2.62   8 2.89  53 2.89
                            54 2.90
  17  0.538  0.617  0.004-  58 2.61  59 2.61  42 2.61  64 2.62  75 2.62  24 2.62  25 2.89  22 2.89
                            60 2.90
  18  0.288  0.367  0.004-  59 2.61  16 2.61  42 2.61  10 2.61   6 2.62  44 2.62  53 2.89  61 2.89
                            46 2.90
  19  0.620  0.951  0.116-   8 2.61  21 2.62   7 2.62  53 2.62  78 2.62  25 2.62  20 2.86  71 2.86
                            69 2.88  44 2.89  75 2.89   4 2.90
  20  0.701  0.786  0.226-  67 2.61  66 2.61  69 2.61  12 2.61  55 2.62  71 2.62  19 2.86  25 2.86
                             1 2.86  21 2.87  56 2.87  73 2.87
  21  0.870  0.701  0.116-  46 2.61  45 2.61  70 2.61  19 2.62  78 2.62  25 2.62  12 2.86  55 2.86
                            20 2.87  58 2.89   6 2.90   4 2.90
  22  0.620  0.451  0.116-  61 2.61   7 2.61  25 2.61  60 2.62  45 2.62  11 2.62  79 2.85  67 2.86
                            51 2.88  17 2.89  42 2.89  64 2.90
  23  0.284  0.870  0.337-  47 2.61  57 2.61   2 2.61  13 2.61  73 2.62  14 2.62  68 2.86  26 2.86
                            66 2.87  31 2.89  37 2.90  29 2.90
  24  0.288  0.867  0.004-  75 2.61  48 2.61  16 2.61   5 2.61  17 2.62  59 2.62   8 2.89  60 2.90
                            49 2.90
  25  0.620  0.701  0.116-  22 2.61   8 2.61  60 2.62  45 2.62  21 2.62  19 2.62  20 2.86  67 2.86
                            66 2.87  17 2.89  75 2.89  58 2.90
  26  0.202  0.036  0.227-  69 2.61  66 2.61  62 2.61  77 2.62  65 2.62  68 2.62  54 2.85  23 2.86
                            49 2.86  47 2.87  13 2.87   8 2.87
  27  0.867  0.953  0.449-  40 2.61  39 2.61  35 2.61  32 2.62  34 2.62  29 2.62   2 2.89   1 2.90
                            72 2.90
  28  0.117  0.453  0.450-  39 2.61  36 2.61  50 2.61  35 2.61  33 2.62  30 2.62   9 2.90  15 2.90
                             3 2.90
  29  0.117  0.953  0.450-  32 2.61  31 2.61  39 2.62  33 2.62  37 2.62  27 2.62   2 2.90  47 2.90
                            23 2.90
  30  0.867  0.453  0.450-  33 2.61  35 2.61  32 2.61  38 2.62  28 2.62  52 2.62   9 2.89  63 2.90
                            56 2.90
  31  0.367  0.953  0.450-  34 2.61  37 2.61  29 2.61  52 2.62  33 2.62  36 2.62  13 2.89  23 2.89
                            73 2.90
  32  0.867  0.203  0.449-  29 2.61  30 2.61  38 2.61  33 2.62  40 2.62  27 2.62  63 2.89  47 2.89
                            72 2.90
  33  0.117  0.203  0.450-  30 2.61  28 2.62  32 2.62  36 2.62  31 2.62  29 2.62   9 2.89  13 2.90
                            47 2.90
  34  0.617  0.953  0.449-  31 2.61  52 2.61  36 2.62  35 2.62  27 2.62  40 2.62  43 2.89  73 2.90
                             1 2.90
  35  0.867  0.703  0.450-  27 2.61  30 2.61  28 2.61  39 2.62  34 2.62  52 2.62   3 2.89  56 2.89
                             1 2.90
  36  0.367  0.203  0.450-  28 2.61  40 2.61  50 2.61  33 2.62  34 2.62  31 2.62  15 2.89  13 2.89
                            43 2.91
  37  0.367  0.703  0.450-  52 2.61  50 2.61  31 2.61  39 2.62  29 2.62  38 2.62  57 2.89  23 2.90
                            14 2.90
  38  0.617  0.453  0.450-  52 2.61  50 2.61  32 2.61  40 2.61  30 2.62  37 2.62  41 2.89  14 2.89
                            63 2.90
  39  0.117  0.703  0.450-  28 2.61  27 2.61  37 2.62  29 2.62  35 2.62  50 2.62   3 2.89  57 2.90
                             2 2.90
  40  0.617  0.203  0.449-  27 2.61  36 2.61  38 2.61  32 2.62  50 2.62  34 2.62  43 2.89  41 2.89
                            72 2.90
  41  0.534  0.370  0.337-  14 2.61  72 2.61  63 2.61  15 2.61  43 2.62  57 2.62  80 2.86  51 2.86
                            79 2.87  40 2.89  38 2.89  50 2.90
  42  0.538  0.367  0.004-  64 2.61  18 2.61  44 2.61  17 2.61  74 2.62  59 2.62   7 2.89  22 2.89
                            61 2.91
  43  0.534  0.120  0.337-   1 2.61  72 2.61  15 2.62  41 2.62  13 2.62  73 2.62  80 2.86  69 2.86
                            71 2.88  34 2.89  40 2.89  36 2.91
  44  0.538  0.117  0.004-   4 2.61  74 2.61  42 2.61  16 2.61  75 2.62  18 2.62  19 2.89   7 2.89
                            53 2.91
  45  0.870  0.451  0.116-  11 2.61  54 2.61  46 2.61  21 2.61  25 2.62  22 2.62  77 2.86  12 2.86
                            67 2.87  58 2.89  64 2.90  10 2.90
  46  0.120  0.451  0.116-  54 2.61  21 2.61  45 2.61  53 2.61  61 2.62  70 2.62  62 2.86  76 2.86
                            12 2.87  10 2.90   6 2.90  18 2.90
  47  0.034  0.120  0.337-  23 2.61  13 2.61  63 2.61   2 2.61   9 2.62  72 2.62  77 2.86  26 2.87
                            65 2.87  32 2.89  29 2.90  33 2.90
  48  0.038  0.117  0.004-  24 2.61  64 2.61  10 2.61  74 2.62   5 2.62  16 2.62  49 2.89  11 2.90
                            54 2.90
  49  0.120  0.951  0.116-  60 2.61  11 2.61   8 2.61  78 2.62  70 2.62  54 2.62  68 2.86  26 2.86
                            65 2.87  48 2.89   5 2.89  24 2.90
  50  0.367  0.453  0.450-  37 2.61  28 2.61  38 2.61  36 2.61  40 2.62  39 2.62  15 2.89  57 2.89
                            41 2.90
  51  0.451  0.536  0.227-  76 2.61  80 2.61  66 2.61  68 2.61  67 2.62  79 2.62  61 2.86  60 2.86
                            14 2.86  41 2.86  57 2.87  22 2.88
  52  0.617  0.703  0.449-  37 2.61  38 2.61  34 2.61  31 2.62  35 2.62  30 2.62  14 2.89  56 2.89
                            73 2.90
  53  0.370  0.201  0.116-  61 2.61   7 2.61  54 2.61  46 2.61   8 2.62  19 2.62  69 2.85  80 2.86
                            62 2.88  18 2.89  16 2.89  44 2.91
  54  0.120  0.201  0.116-  46 2.61  53 2.61  45 2.61  11 2.61   8 2.62  49 2.62  26 2.85  62 2.87
                            77 2.87  10 2.89  48 2.90  16 2.90
  55  0.951  0.786  0.227-  71 2.61  68 2.61  12 2.61  20 2.62  76 2.62  65 2.62   1 2.86   2 2.86
                            78 2.86  21 2.86   3 2.87  70 2.87
  56  0.784  0.620  0.337-  63 2.61   9 2.61   3 2.62  14 2.62  73 2.62   1 2.62  67 2.86  12 2.86
                            20 2.87  35 2.89  52 2.89  30 2.90
  57  0.284  0.620  0.338-  15 2.61  23 2.61  14 2.61   3 2.62   2 2.62  41 2.62  76 2.86  68 2.86
                            51 2.87  37 2.89  50 2.89  39 2.90
  58  0.788  0.617  0.004-  75 2.61  17 2.61  10 2.62  64 2.62   4 2.62   6 2.62  21 2.89  45 2.89
                            25 2.90
  59  0.288  0.617  0.004-   5 2.61   6 2.61  18 2.61  17 2.61  24 2.62  42 2.62  60 2.89  61 2.89
                            70 2.90
  60  0.370  0.701  0.116-  49 2.61  70 2.61  61 2.61  25 2.62  22 2.62   8 2.62  66 2.86  51 2.86
                            68 2.88  59 2.89  24 2.90  17 2.90
  61  0.370  0.451  0.116-  53 2.61  22 2.61  60 2.61  46 2.62   7 2.62  70 2.62  80 2.86  51 2.86
                            76 2.88  18 2.89  59 2.89  42 2.91
  62  0.202  0.286  0.227-  69 2.61  76 2.61  26 2.61  77 2.61  80 2.61  12 2.62  13 2.86  15 2.86
                            46 2.86   9 2.86  54 2.87  53 2.88
  63  0.784  0.370  0.337-  56 2.61  41 2.61   9 2.61  47 2.61  14 2.62  72 2.62  67 2.86  77 2.86
                            79 2.87  32 2.89  30 2.90  38 2.90
  64  0.788  0.367  0.004-  42 2.61  74 2.61  48 2.61  17 2.62  58 2.62  10 2.62  11 2.89  45 2.90
                            22 2.90
  65  0.952  0.036  0.226-  79 2.61  68 2.61  71 2.61  77 2.62  26 2.62  55 2.62  11 2.86  78 2.86
                            72 2.87  47 2.87   2 2.87  49 2.87
  66  0.451  0.786  0.226-  26 2.61  67 2.61  20 2.61  51 2.61  68 2.62  69 2.62   8 2.85  60 2.86
                            73 2.86  14 2.87  25 2.87  23 2.87
  67  0.701  0.536  0.227-  20 2.61  66 2.61  79 2.61  12 2.62  51 2.62  77 2.62  25 2.86  63 2.86
                            56 2.86  22 2.86  14 2.87  45 2.87
  68  0.201  0.786  0.227-  76 2.61  55 2.61  65 2.61  51 2.61  66 2.62  26 2.62  23 2.86  70 2.86
                            49 2.86  57 2.86   2 2.86  60 2.88
  69  0.452  0.036  0.227-  26 2.61  62 2.61  20 2.61  71 2.62  80 2.62  66 2.62  53 2.85  73 2.86
                            43 2.86   8 2.86  13 2.87  19 2.88
  70  0.120  0.701  0.116-  78 2.61  60 2.61  21 2.61  46 2.62  49 2.62  61 2.62  68 2.86  76 2.86
                            55 2.87   6 2.90   5 2.90  59 2.90
  71  0.702  0.036  0.226-  80 2.61  55 2.61  79 2.61  65 2.61  69 2.62  20 2.62   7 2.85  19 2.86
                            72 2.86   1 2.87  78 2.87  43 2.88
  72  0.784  0.120  0.337-   2 2.61  43 2.61  41 2.61   1 2.61  47 2.62  63 2.62  79 2.86  71 2.86
                            65 2.87  32 2.90  27 2.90  40 2.90
  73  0.534  0.870  0.337-  13 2.61   1 2.61  14 2.62  56 2.62  23 2.62  43 2.62  69 2.86  66 2.86
                            20 2.87  34 2.90  52 2.90  31 2.90
  74  0.788  0.117  0.003-  64 2.61   5 2.61  44 2.61  48 2.62  42 2.62   4 2.62  78 2.89  11 2.90
                             7 2.90
  75  0.538  0.867  0.004-  58 2.61  24 2.61   4 2.61  44 2.62  16 2.62  17 2.62  19 2.89  25 2.89
                             8 2.90
  76  0.201  0.536  0.227-  68 2.61  51 2.61  62 2.61  12 2.62  55 2.62  80 2.62  57 2.86  70 2.86
                            15 2.86  46 2.86   3 2.86  61 2.88
  77  0.952  0.286  0.227-  12 2.61  62 2.61  26 2.62  65 2.62  79 2.62  67 2.62  45 2.86  47 2.86
                            63 2.86   9 2.87  54 2.87  11 2.87
  78  0.870  0.951  0.116-  70 2.61  49 2.62  21 2.62  19 2.62  11 2.62   7 2.62  65 2.86  55 2.86
                            71 2.87  74 2.89   4 2.89   5 2.90
  79  0.702  0.286  0.226-  80 2.61  65 2.61  67 2.61  71 2.61  77 2.62  51 2.62  22 2.85   7 2.86
                            72 2.86  63 2.87  11 2.87  41 2.87
  80  0.452  0.286  0.227-  71 2.61  79 2.61  51 2.61  62 2.61  69 2.62  76 2.62  61 2.86  41 2.86
                            43 2.86  53 2.86  15 2.87   7 2.88
 
  LATTYP: Found a hexagonal cell.
 ALAT       =    10.4600000161
 C/A-ratio  =     2.1032504748
  
  Lattice vectors:
  
 A1 = (   5.2299999760,  -9.0586257560,   0.0000000000)
 A2 = ( -10.4600000060,   0.0000000000,   0.0000000000)
 A3 = (   0.0000000000,   0.0000000000, -22.0000000000)


Analysis of symmetry for initial positions (statically):
=====================================================================
 Subroutine PRICEL returns:
 Original cell was already a primitive cell.
 

 Routine SETGRP: Setting up the symmetry group for a 
 hexagonal supercell.


 Subroutine GETGRP returns: Found  1 space group operations
 (whereof  1 operations were pure point group operations)
 out of a pool of 24 trial point group operations.


The static configuration has the point symmetry C_1 .


Analysis of symmetry for dynamics (positions and initial velocities):
=====================================================================
 Subroutine PRICEL returns:
 Original cell was already a primitive cell.
 

 Routine SETGRP: Setting up the symmetry group for a 
 hexagonal supercell.


 Subroutine GETGRP returns: Found  1 space group operations
 (whereof  1 operations were pure point group operations)
 out of a pool of 24 trial point group operations.


The dynamic configuration has the point symmetry C_1 .


Analysis of structural, dynamic, and magnetic symmetry:
=====================================================================
 Subroutine PRICEL returns:
 Original cell was already a primitive cell.
 

 Routine SETGRP: Setting up the symmetry group for a 
 hexagonal supercell.


 Subroutine GETGRP returns: Found  1 space group operations
 (whereof  1 operations were pure point group operations)
 out of a pool of 24 trial point group operations.


The magnetic configuration has the point symmetry C_1 .


 Subroutine INISYM returns: Found  1 space group operations
 (whereof  1 operations are pure point group operations),
 and found     1 'primitive' translations

 
 
 KPOINTS: mesh auto                               

Automatic generation of k-mesh.
Space group operators:
 irot       det(A)        alpha          n_x          n_y          n_z        tau_x        tau_y        tau_z
    1     1.000000     0.000000     1.000000     0.000000     0.000000     0.000000     0.000000     0.000000
 
 Subroutine IBZKPT returns following result:
 ===========================================
 
 Found      4 irreducible k-points:
 
 Following reciprocal coordinates:
            Coordinates               Weight
  0.000000  0.000000  0.000000      1.000000
  0.500000  0.000000  0.000000      1.000000
  0.000000  0.500000  0.000000      1.000000
  0.500000  0.500000  0.000000      1.000000
 
 Following cartesian coordinates:
            Coordinates               Weight
  0.000000  0.000000  0.000000      1.000000
  0.047801 -0.027598  0.000000      1.000000
  0.000000  0.055196  0.000000      1.000000
  0.047801  0.027598  0.000000      1.000000
 


--------------------------------------------------------------------------------------------------------




 Dimension of arrays:
   k-points           NKPTS =      4   k-points in BZ     NKDIM =      4   number of bands    NBANDS=    520
   number of dos      NEDOS =    301   number of ions     NIONS =     80
   non local maximal  LDIM  =      6   non local SUM 2l+1 LMDIM =     18
   total plane-waves  NPLWV = ******
   max r-space proj   IRMAX =   7217   max aug-charges    IRDMAX=  31436
   dimension x,y,z NGX =    80 NGY =   80 NGZ =  168
   dimension x,y,z NGXF=   160 NGYF=  160 NGZF=  336
   support grid    NGXF=   160 NGYF=  160 NGZF=  336
   ions per type =              80
   NGX,Y,Z   is equivalent  to a cutoff of  12.71, 12.71, 12.70 a.u.
   NGXF,Y,Z  is equivalent  to a cutoff of  25.43, 25.43, 25.39 a.u.

 SYSTEM =  Pt111                                   
 POSCAR =  Pt111                                   

 Startparameter for this run:
   NWRITE =      2    write-flag & timer
   PREC   = accura    normal or accurate (medium, high low for compatibility)
   ISTART =      0    job   : 0-new  1-cont  2-samecut
   ICHARG =      2    charge: 1-file 2-atom 10-const
   ISPIN  =      2    spin polarized calculation?
   LNONCOLLINEAR =      F non collinear calculations
   LSORBIT =      F    spin-orbit coupling
   INIWAV =      1    electr: 0-lowe 1-rand  2-diag
   LASPH  =      F    aspherical Exc in radial PAW
   METAGGA=      F    non-selfconsistent MetaGGA calc.

 Electronic Relaxation 1
   ENCUT  =  550.0 eV  40.42 Ry    6.36 a.u.  20.00 20.00 42.07*2*pi/ulx,y,z
   ENINI  =  550.0     initial cutoff
   ENAUG  =  359.0 eV  augmentation charge cutoff
   NELM   =    200;   NELMIN=  2; NELMDL= -5     # of ELM steps 
   EDIFF  = 0.1E-04   stopping-criterion for ELM
   LREAL  =      T    real-space projection
   NLSPLINE    = F    spline interpolate recip. space projectors
   LCOMPAT=      F    compatible to vasp.4.4
   GGA_COMPAT  = T    GGA compatible to vasp.4.4-vasp.4.6
   LMAXPAW     = -100 max onsite density
   LMAXMIX     =    2 max onsite mixed and CHGCAR
   VOSKOWN=      0    Vosko Wilk Nusair interpolation
   ROPT   =   -0.00025
 Ionic relaxation
   EDIFFG = -.5E-01   stopping-criterion for IOM
   NSW    =    300    number of steps for IOM
   NBLOCK =      1;   KBLOCK =    300    inner block; outer block 
   IBRION =      2    ionic relax: 0-MD 1-quasi-New 2-CG
   NFREE  =      1    steps in history (QN), initial steepest desc. (CG)
   ISIF   =      2    stress and relaxation
   IWAVPR =     11    prediction:  0-non 1-charg 2-wave 3-comb
   ISYM   =      2    0-nonsym 1-usesym 2-fastsym
   LCORR  =      T    Harris-Foulkes like correction to forces

   POTIM  = 0.5000    time-step for ionic-motion
   TEIN   =    0.0    initial temperature
   TEBEG  =    0.0;   TEEND  =   0.0 temperature during run
   SMASS  =  -3.00    Nose mass-parameter (am)
   estimated Nose-frequenzy (Omega)   =  0.10E-29 period in steps =****** mass=  -0.250E-26a.u.
   SCALEE = 1.0000    scale energy and forces
   NPACO  =    256;   APACO  = 16.0  distance and # of slots for P.C.
   PSTRESS=    0.0 pullay stress

  Mass of Ions in am
   POMASS = 195.08
  Ionic Valenz
   ZVAL   =  10.00
  Atomic Wigner-Seitz radii
   RWIGS  =  -1.00
  virtual crystal weights 
   VCA    =   1.00
   NELECT =     800.0000    total number of electrons
   NUPDOWN=      -1.0000    fix difference up-down

 DOS related values:
   EMIN   =  10.00;   EMAX   =-10.00  energy-range for DOS
   EFERMI =   0.00
   ISMEAR =     1;   SIGMA  =   0.10  broadening in eV -4-tet -1-fermi 0-gaus

 Electronic relaxation 2 (details)
   IALGO  =     68    algorithm
   LDIAG  =      T    sub-space diagonalisation (order eigenvalues)
   LSUBROT=      F    optimize rotation matrix (better conditioning)
   TURBO    =      0    0=normal 1=particle mesh
   IRESTART =      0    0=no restart 2=restart with 2 vectors
   NREBOOT  =      0    no. of reboots
   NMIN     =      0    reboot dimension
   EREF     =   0.00    reference energy to select bands
   IMIX   =      4    mixing-type and parameters
     AMIX     =   0.40;   BMIX     =  1.00
     AMIX_MAG =   1.60;   BMIX_MAG =  1.00
     AMIN     =   0.10
     WC   =   100.;   INIMIX=   1;  MIXPRE=   1;  MAXMIX= -45

 Intra band minimization:
   WEIMIN = 0.0010     energy-eigenvalue tresh-hold
   EBREAK =  0.48E-08  absolut break condition
   DEPER  =   0.30     relativ break condition  

   TIME   =   0.40     timestep for ELM

  volume/ion in A,a.u.               =      26.06       175.84
  Fermi-wavevector in a.u.,A,eV,Ry     =   1.189687  2.248182 19.257066  1.415354
  Thomas-Fermi vector in A             =   2.325788
 
 Write flags
   LWAVE        =      F    write WAVECAR
   LDOWNSAMPLE  =      F    k-point downsampling of WAVECAR
   LCHARG       =      F    write CHGCAR
   LVTOT        =      F    write LOCPOT, total local potential
   LVHAR        =      F    write LOCPOT, Hartree potential only
   LELF         =      F    write electronic localiz. function (ELF)
   LORBIT       =      0    0 simple, 1 ext, 2 COOP (PROOUT), +10 PAW based schemes


 Dipole corrections
   LMONO  =      F    monopole corrections only (constant potential shift)
   LDIPOL =      F    correct potential (dipole corrections)
   IDIPOL =      0    1-x, 2-y, 3-z, 4-all directions 
   EPSILON=  1.0000000 bulk dielectric constant

 Exchange correlation treatment:
   GGA     =    --    GGA type
   LEXCH   =     8    internal setting for exchange type
   VOSKOWN=      0    Vosko Wilk Nusair interpolation
   LHFCALC =     F    Hartree Fock is set to
   LHFONE  =     F    Hartree Fock one center treatment
   AEXX    =    0.0000 exact exchange contribution

 Linear response parameters
   LEPSILON=     F    determine dielectric tensor
   LRPA    =     F    only Hartree local field effects (RPA)
   LNABLA  =     F    use nabla operator in PAW spheres
   LVEL    =     F    velocity operator in full k-point grid
   LINTERFAST=   F  fast interpolation
   KINTER  =     0    interpolate to denser k-point grid
   CSHIFT  =0.1000    complex shift for real part using Kramers Kronig
   OMEGAMAX=  -1.0    maximum frequency
   DEG_THRESHOLD= 0.2000000E-02 threshold for treating states as degnerate
   RTIME   =   -0.100 relaxation time in fs
  (WPLASMAI=    0.000 imaginary part of plasma frequency in eV, 0.658/RTIME)
   DFIELD  = 0.0000000 0.0000000 0.0000000 field for delta impulse in time
 
 Orbital magnetization related:
   ORBITALMAG=     F  switch on orbital magnetization
   LCHIMAG   =     F  perturbation theory with respect to B field
   DQ        =  0.001000  dq finite difference perturbation B field
   LLRAUG    =     F  two centre corrections for induced B field



--------------------------------------------------------------------------------------------------------


 conjugate gradient relaxation of ions
 charge density and potential will be updated during run
 spin polarized calculation
 RMM-DIIS sequential band-by-band and
  variant of blocked Davidson during initial phase
 perform sub-space diagonalisation
    before iterative eigenvector-optimisation
 modified Broyden-mixing scheme, WC =      100.0
 initial mixing is a Kerker type mixing with AMIX =  0.4000 and BMIX =      1.0000
 Hartree-type preconditioning will be used
 using additional bands          120
 real space projection scheme for non local part
 use partial core corrections
 calculate Harris-corrections to forces 
   (improved forces if not selfconsistent)
 use gradient corrections 
 use of overlap-Matrix (Vanderbilt PP)
 Methfessel and Paxton  Order N= 1 SIGMA  =   0.10


--------------------------------------------------------------------------------------------------------


  energy-cutoff  :      550.00
  volume of cell :     2084.57
      direct lattice vectors                 reciprocal lattice vectors
    10.460000006  0.000000000  0.000000000     0.095602294 -0.055196011  0.000000000
     5.230000030  9.058625756  0.000000000     0.000000000  0.110392020  0.000000000
     0.000000000  0.000000000 22.000000000     0.000000000  0.000000000  0.045454545

  length of vectors
    10.460000006 10.460000043 22.000000000     0.110392021  0.110392020  0.045454545


 
 k-points in units of 2pi/SCALE and weight: mesh auto                               
   0.00000000  0.00000000  0.00000000       0.250
   0.04780115 -0.02759801  0.00000000       0.250
   0.00000000  0.05519601  0.00000000       0.250
   0.04780115  0.02759800  0.00000000       0.250
 
 k-points in reciprocal lattice and weights: mesh auto                               
   0.00000000  0.00000000  0.00000000       0.250
   0.50000000  0.00000000  0.00000000       0.250
   0.00000000  0.50000000  0.00000000       0.250
   0.50000000  0.50000000  0.00000000       0.250
 
 position of ions in fractional coordinates (direct lattice) 
   0.78383042  0.86982413  0.33696719
   0.03381729  0.86991072  0.33733277
   0.03391311  0.61986481  0.33757342
   0.78793560  0.86713187  0.00338125
   0.03796934  0.86720087  0.00368778
   0.03787339  0.61723290  0.00388209
   0.62001008  0.20129091  0.11571497
   0.37002173  0.95133953  0.11600220
   0.03403382  0.36983167  0.33768042
   0.03792680  0.36724231  0.00393677
   0.87017288  0.20125497  0.11575343
   0.95142290  0.53605982  0.22685211
   0.28405669  0.11972045  0.33763535
   0.53400237  0.61966834  0.33729298
   0.28416746  0.36974658  0.33784416
   0.28800787  0.11722885  0.00396753
   0.53785943  0.61715852  0.00364227
   0.28792585  0.36723468  0.00411251
   0.62000545  0.95126370  0.11572450
   0.70138442  0.78596631  0.22627096
   0.86998969  0.70121750  0.11591097
   0.61987744  0.45127732  0.11591664
   0.28383416  0.86984539  0.33736379
   0.28791230  0.86729506  0.00363353
   0.61989117  0.70121541  0.11584190
   0.20161885  0.03606033  0.22675311
   0.86671582  0.95328404  0.44941668
   0.11686121  0.45338417  0.45003502
   0.11670572  0.95342023  0.44968176
   0.86684895  0.45326481  0.44972795
   0.36674313  0.95334073  0.44959901
   0.86684385  0.20327135  0.44934054
   0.11678012  0.20341660  0.44984336
   0.61668612  0.95323971  0.44937349
   0.86678528  0.70327509  0.44955629
   0.36679848  0.20340589  0.44996691
   0.36676031  0.70336046  0.44971166
   0.61684629  0.45326735  0.44960383
   0.11673554  0.70339736  0.44978517
   0.61682429  0.20328020  0.44942763
   0.53419628  0.36968229  0.33730315
   0.53795314  0.36712201  0.00362990
   0.53414082  0.11966127  0.33729147
   0.53806992  0.11708472  0.00358279
   0.87001845  0.45123361  0.11606820
   0.11996651  0.45127062  0.11646561
   0.03406309  0.11977587  0.33725987
   0.03794308  0.11726035  0.00368393
   0.12007191  0.95130952  0.11599223
   0.36682976  0.45336703  0.44985247
   0.45138634  0.53607632  0.22680393
   0.61671459  0.70327533  0.44935603
   0.37003375  0.20137457  0.11633910
   0.12007571  0.20141122  0.11633579
   0.95137148  0.78608462  0.22667784
   0.78398202  0.61972774  0.33724330
   0.28395176  0.61980595  0.33764395
   0.78781512  0.61715487  0.00365172
   0.28782694  0.61724797  0.00406909
   0.36984870  0.70129164  0.11609442
   0.36996751  0.45127926  0.11637196
   0.20166131  0.28601451  0.22728021
   0.78409674  0.36976230  0.33719628
   0.78785660  0.36710835  0.00359793
   0.95151384  0.03610100  0.22636652
   0.45140838  0.78602661  0.22648405
   0.70137874  0.53612137  0.22659154
   0.20137203  0.78602086  0.22688828
   0.45154218  0.03601798  0.22669620
   0.11990448  0.70134681  0.11632479
   0.70152408  0.03608199  0.22615377
   0.78400350  0.11971018  0.33689023
   0.53393388  0.86970251  0.33699724
   0.78800853  0.11712466  0.00338144
   0.53793653  0.86714877  0.00359191
   0.20148072  0.53606268  0.22715717
   0.95161385  0.28612006  0.22675030
   0.87010049  0.95120486  0.11567209
   0.70156684  0.28605543  0.22627882
   0.45166349  0.28600346  0.22689062
 
 position of ions in cartesian coordinates  (Angst):
  12.74804640  7.87941123  7.41327810
   4.90336197  7.88019563  7.42132094
   3.59662415  5.61512333  7.42661530
  12.77690605  7.85502308  0.07438752
   4.93261984  7.85564810  0.08113126
   3.62428371  5.59128180  0.08540593
   7.53805687  1.82341899  2.54572932
   8.84593304  8.61782879  2.55204835
   2.29021339  3.35016665  7.42896928
   2.31739155  3.32671062  0.08660884
  10.15457182  1.82309344  2.54657540
  12.75547640  4.85596525  4.99074653
   3.59737096  1.08450271  7.42797767
   8.82653017  5.61334356  7.42044554
   4.90616625  3.34939590  7.43257153
   3.62566925  1.06193229  0.08728557
   8.85374869  5.59060806  0.08012985
   4.93234182  3.32664152  0.09047523
  11.46036619  8.61714189  2.54593906
  11.44708491  7.11977468  4.97796115
  12.76745969  6.35206690  2.55004129
   8.84409839  4.08795238  2.55016617
   7.51819667  7.87960384  7.42200330
   7.54751585  7.85650137  0.07993757
  10.15141825  6.35204799  2.54852176
   2.29752866  0.32665701  4.98856851
  14.05152307  8.63544338  9.88716697
   3.59356746  4.10703752  9.90077048
   6.20712965  8.63667701  9.89299869
  11.43781499  4.10595631  9.89401496
   8.82210514  8.63595689  9.89117831
  10.13029582  1.84135912  9.88549190
   2.28538888  1.84267489  9.89655386
  11.43598055  8.63504179  9.88621678
  12.74470279  6.37070584  9.89023848
   4.90052493  1.84257785  9.89927197
   7.51488805  6.37147917  9.89365654
   8.82280044  4.10597930  9.89128432
   4.89982192  6.37181343  9.89527368
   7.51513756  1.84143923  9.88740791
   7.52113153  3.34881352  7.42066923
   7.54703800  3.32562094  0.07985790
   6.21294140  1.08396662  7.42041227
   6.24056448  1.06062670  0.07882132
  11.46034481  4.08755638  2.55350047
   3.61499502  4.08789164  2.56224348
   0.98272773  1.08500481  7.41971720
   1.01015631  1.06221766  0.08104636
   6.23130102  8.61755690  2.55182905
   6.20814892  4.10688224  9.89675424
   7.52518031  4.85611475  4.98968652
  10.12896461  6.37070805  9.88583275
   4.92374199  1.82417685  2.55946029
   2.30937256  1.82450882  2.55938731
  14.06256831  7.12084638  4.98691247
  11.44162808  5.61388168  7.41935270
   6.21172050  5.61459013  7.42816680
  11.46826613  5.59057500  0.08033776
   6.23887671  5.59141832  0.08952001
   7.53637267  6.35273851  2.55407722
   6.23005070  4.08796992  2.56018303
   3.60523322  2.59089842  5.00016466
  10.13550875  3.34953829  7.41831821
  10.16095671  3.32549716  0.07915445
  10.14164303  0.32702543  4.98006354
   8.83265080  7.12032087  4.98264907
  10.14033643  4.85652282  4.98501380
   6.21724058  7.12026877  4.99154223
   4.91150523  0.32627344  4.98731648
   4.92224476  6.35323832  2.55914537
   7.52665073  0.32685326  4.97538298
   8.82676084  1.08440973  7.41158506
  10.13349251  7.87830959  7.41393924
   8.85513122  1.06098846  0.07439171
  10.16200421  7.85517620  0.07902211
   4.91109620  4.85599118  4.99745766
  11.45028875  2.59185453  4.98850652
  14.07605262  8.61660883  2.54478597
   8.83445903  2.59126909  4.97813408
   6.22019822  2.59079834  4.99159367
 


--------------------------------------------------------------------------------------------------------


 k-point  1 :   0.0000 0.0000 0.0000  plane waves:   60991
 k-point  2 :   0.5000 0.0000 0.0000  plane waves:   60974
 k-point  3 :   0.0000 0.5000 0.0000  plane waves:   60974
 k-point  4 :   0.5000 0.5000 0.0000  plane waves:   60974

 maximum and minimum number of plane-waves per node :     15277    15213

 maximum number of plane-waves:     60991
 maximum index in each direction: 
   IXMAX=   20   IYMAX=   20   IZMAX=   42
   IXMIN=  -20   IYMIN=  -20   IZMIN=  -42


 real space projection operators:
  total allocation   :      78273.42 KBytes
  max/ min on nodes  :      19622.39      19540.12


 parallel 3D FFT for wavefunctions:
    minimum data exchange during FFTs selected (reduces bandwidth)
 parallel 3D FFT for charge:
    minimum data exchange during FFTs selected (reduces bandwidth)


 total amount of memory used by VASP MPI-rank0   220879. kBytes
=======================================================================

   base      :      30000. kBytes
   nonlr-proj:      33827. kBytes
   fftplans  :      15222. kBytes
   grid      :      37109. kBytes
   one-center:        622. kBytes
   wavefun   :     104099. kBytes
 
     INWAV:  cpu time    0.0000: real time    0.0000
 Broyden mixing: mesh for mixing (old mesh)
   NGX = 41   NGY = 41   NGZ = 85
  (NGX  =160   NGY  =160   NGZ  =336)
  gives a total of 142885 points

 initial charge density was supplied:
 charge density of overlapping atoms calculated
 number of electron     800.0000000 magnetization      80.0000000
 keeping initial charge density in first step


--------------------------------------------------------------------------------------------------------


 Maximum index for non-local projection operator         1747
 Maximum index for augmentation-charges          999 (set IRDMAX)


--------------------------------------------------------------------------------------------------------


 First call to EWALD:  gamma=   0.139
 Maximum number of real-space cells 4x 4x 2
 Maximum number of reciprocal cells 2x 2x 4

    FEWALD:  cpu time    0.0044: real time    0.0044


--------------------------------------- Iteration      1(   1)  ---------------------------------------


    POTLOK:  cpu time    0.3223: real time    0.3666
    SETDIJ:  cpu time    0.0326: real time    0.0331
     EDDAV:  cpu time   55.0857: real time   55.2439
       DOS:  cpu time    0.0023: real time    0.0024
    --------------------------------------------
      LOOP:  cpu time   55.4430: real time   55.6460

 eigenvalue-minimisations  :  8320
 total energy-change (2. order) : 0.5700424E+04  (-0.3991175E+05)
 number of electron     800.0000000 magnetization      80.0000000
 augmentation part      800.0000000 magnetization      80.0000000

 Free energy of the ion-electron system (eV)
  ---------------------------------------------------
  alpha Z        PSCENC =      2918.45622157
  Ewald energy   TEWEN  =    163368.54693291
  -Hartree energ DENC   =   -228584.38365261
  -exchange      EXHF   =         0.00000000
  -V(xc)+E(xc)   XCENC  =       310.79278366
  PAW double counting   =     55683.70208444   -53421.37691584
  entropy T*S    EENTRO =        -0.00775717
  eigenvalues    EBANDS =      7095.45011860
  atomic energy  EATOM  =     58329.24398462
  Solvation  Ediel_sol  =         0.00000000
  ---------------------------------------------------
  free energy    TOTEN  =      5700.42380017 eV

  energy without entropy =     5700.43155734  energy(sigma->0) =     5700.42638589


--------------------------------------------------------------------------------------------------------




--------------------------------------- Iteration      1(   2)  ---------------------------------------


     EDDAV:  cpu time   59.5407: real time   59.6911
       DOS:  cpu time    0.0019: real time    0.0019
    --------------------------------------------
      LOOP:  cpu time   59.5426: real time   59.6930

 eigenvalue-minimisations  :  9240
 total energy-change (2. order) :-0.5878662E+04  (-0.5424397E+04)
 number of electron     800.0000000 magnetization      80.0000000
 augmentation part      800.0000000 magnetization      80.0000000

 Free energy of the ion-electron system (eV)
  ---------------------------------------------------
  alpha Z        PSCENC =      2918.45622157
  Ewald energy   TEWEN  =    163368.54693291
  -Hartree energ DENC   =   -228584.38365261
  -exchange      EXHF   =         0.00000000
  -V(xc)+E(xc)   XCENC  =       310.79278366
  PAW double counting   =     55683.70208444   -53421.37691584
  entropy T*S    EENTRO =         0.00523002
  eigenvalues    EBANDS =      1216.77535065
  atomic energy  EATOM  =     58329.24398462
  Solvation  Ediel_sol  =         0.00000000
  ---------------------------------------------------
  free energy    TOTEN  =      -178.23798059 eV

  energy without entropy =     -178.24321061  energy(sigma->0) =     -178.23972393


--------------------------------------------------------------------------------------------------------




--------------------------------------- Iteration      1(   3)  ---------------------------------------


     EDDAV:  cpu time   60.1796: real time   60.3308
       DOS:  cpu time    0.0022: real time    0.0021
    --------------------------------------------
      LOOP:  cpu time   60.1818: real time   60.3330

 eigenvalue-minimisations  :  9360
 total energy-change (2. order) :-0.2959017E+03  (-0.2740676E+03)
 number of electron     800.0000000 magnetization      80.0000000
 augmentation part      800.0000000 magnetization      80.0000000

 Free energy of the ion-electron system (eV)
  ---------------------------------------------------
  alpha Z        PSCENC =      2918.45622157
  Ewald energy   TEWEN  =    163368.54693291
  -Hartree energ DENC   =   -228584.38365261
  -exchange      EXHF   =         0.00000000
  -V(xc)+E(xc)   XCENC  =       310.79278366
  PAW double counting   =     55683.70208444   -53421.37691584
  entropy T*S    EENTRO =        -0.06524365
  eigenvalues    EBANDS =       920.94409047
  atomic energy  EATOM  =     58329.24398462
  Solvation  Ediel_sol  =         0.00000000
  ---------------------------------------------------
  free energy    TOTEN  =      -474.13971443 eV

  energy without entropy =     -474.07447079  energy(sigma->0) =     -474.11796655


--------------------------------------------------------------------------------------------------------




--------------------------------------- Iteration      1(   4)  ---------------------------------------


     EDDAV:  cpu time   62.4156: real time   62.5860
       DOS:  cpu time    0.0021: real time    0.0021
    --------------------------------------------
      LOOP:  cpu time   62.4177: real time   62.5881

 eigenvalue-minimisations  :  9790
 total energy-change (2. order) :-0.7922987E+01  (-0.7850162E+01)
 number of electron     800.0000000 magnetization      80.0000000
 augmentation part      800.0000000 magnetization      80.0000000

 Free energy of the ion-electron system (eV)
  ---------------------------------------------------
  alpha Z        PSCENC =      2918.45622157
  Ewald energy   TEWEN  =    163368.54693291
  -Hartree energ DENC   =   -228584.38365261
  -exchange      EXHF   =         0.00000000
  -V(xc)+E(xc)   XCENC  =       310.79278366
  PAW double counting   =     55683.70208444   -53421.37691584
  entropy T*S    EENTRO =        -0.07090778
  eigenvalues    EBANDS =       913.02676798
  atomic energy  EATOM  =     58329.24398462
  Solvation  Ediel_sol  =         0.00000000
  ---------------------------------------------------
  free energy    TOTEN  =      -482.06270106 eV

  energy without entropy =     -481.99179328  energy(sigma->0) =     -482.03906513


--------------------------------------------------------------------------------------------------------




--------------------------------------- Iteration      1(   5)  ---------------------------------------


     EDDAV:  cpu time   61.5291: real time   61.6972
       DOS:  cpu time    0.0022: real time    0.0022
    CHARGE:  cpu time    3.7281: real time    3.7387
    MIXING:  cpu time    0.0089: real time    0.0098
    --------------------------------------------
      LOOP:  cpu time   65.2683: real time   65.4478

 eigenvalue-minimisations  :  9640
 total energy-change (2. order) :-0.2726247E+00  (-0.2720223E+00)
 number of electron     800.0000026 magnetization      73.3915223
 augmentation part      231.7617585 magnetization      59.4590720

 Broyden mixing:
  rms(total) = 0.12428E+02    rms(broyden)= 0.12428E+02
  rms(prec ) = 0.12523E+02
  weight for this iteration     100.00

 Free energy of the ion-electron system (eV)
  ---------------------------------------------------
  alpha Z        PSCENC =      2918.45622157
  Ewald energy   TEWEN  =    163368.54693291
  -Hartree energ DENC   =   -228584.38365261
  -exchange      EXHF   =         0.00000000
  -V(xc)+E(xc)   XCENC  =       310.79278366
  PAW double counting   =     55683.70208444   -53421.37691584
  entropy T*S    EENTRO =        -0.07159359
  eigenvalues    EBANDS =       912.75482909
  atomic energy  EATOM  =     58329.24398462
  Solvation  Ediel_sol  =         0.00000000
  ---------------------------------------------------
  free energy    TOTEN  =      -482.33532575 eV

  energy without entropy =     -482.26373216  energy(sigma->0) =     -482.31146122


--------------------------------------------------------------------------------------------------------




--------------------------------------- Iteration      1(   6)  ---------------------------------------


    POTLOK:  cpu time    0.3038: real time    0.3045
    SETDIJ:  cpu time    0.0315: real time    0.0316
    EDDIAG:  cpu time    9.4088: real time    9.4352
  RMM-DIIS:  cpu time   33.5058: real time   33.5982
    ORTHCH:  cpu time    1.1843: real time    1.1874
       DOS:  cpu time    0.0020: real time    0.0020
    CHARGE:  cpu time    3.7261: real time    3.7360
    MIXING:  cpu time    0.0089: real time    0.0092
    --------------------------------------------
      LOOP:  cpu time   48.1713: real time   48.3041

 eigenvalue-minimisations  :  8371
 total energy-change (2. order) : 0.3307674E+02  (-0.7356717E+01)
 number of electron     800.0000029 magnetization      65.7350573
 augmentation part      243.8164781 magnetization      48.2809971

 Broyden mixing:
  rms(total) = 0.80460E+01    rms(broyden)= 0.80460E+01
  rms(prec ) = 0.84851E+01
  weight for this iteration     100.00

 eigenvalues of (default mixing * dielectric matrix)
  average eigenvalue GAMMA=   1.3354
  1.3354

 Free energy of the ion-electron system (eV)
  ---------------------------------------------------
  alpha Z        PSCENC =      2918.45622157
  Ewald energy   TEWEN  =    163368.54693291
  -Hartree energ DENC   =   -227676.36623781
  -exchange      EXHF   =         0.00000000
  -V(xc)+E(xc)   XCENC  =       297.42985668
  PAW double counting   =     64159.56440393   -62036.69852381
  entropy T*S    EENTRO =         0.01306174
  eigenvalues    EBANDS =       190.55171567
  atomic energy  EATOM  =     58329.24398462
  Solvation  Ediel_sol  =         0.00000000
  ---------------------------------------------------
  free energy    TOTEN  =      -449.25858450 eV

  energy without entropy =     -449.27164624  energy(sigma->0) =     -449.26293842


--------------------------------------------------------------------------------------------------------




--------------------------------------- Iteration      1(   7)  ---------------------------------------


    POTLOK:  cpu time    0.3070: real time    0.3080
    SETDIJ:  cpu time    0.0315: real time    0.0315
    EDDIAG:  cpu time    9.4245: real time    9.4505
  RMM-DIIS:  cpu time   32.6271: real time   32.7167
    ORTHCH:  cpu time    1.0173: real time    1.0200
       DOS:  cpu time    0.0019: real time    0.0019
    CHARGE:  cpu time    3.8549: real time    3.8655
    MIXING:  cpu time    0.0092: real time    0.0092
    --------------------------------------------
      LOOP:  cpu time   47.2733: real time   47.4035

 eigenvalue-minimisations  :  8322
 total energy-change (2. order) :-0.2604146E+03  (-0.2078944E+02)
 number of electron     800.0000022 magnetization      59.7358904
 augmentation part      236.8812949 magnetization      49.0822570

 Broyden mixing:
  rms(total) = 0.14113E+02    rms(broyden)= 0.14113E+02
  rms(prec ) = 0.18193E+02
  weight for this iteration     100.00

 eigenvalues of (default mixing * dielectric matrix)
  average eigenvalue GAMMA=   1.0045
  1.7591  0.2500

 Free energy of the ion-electron system (eV)
  ---------------------------------------------------
  alpha Z        PSCENC =      2918.45622157
  Ewald energy   TEWEN  =    163368.54693291
  -Hartree energ DENC   =   -228936.56416037
  -exchange      EXHF   =         0.00000000
  -V(xc)+E(xc)   XCENC  =       288.09232675
  PAW double counting   =     71593.69659837   -69549.95313873
  entropy T*S    EENTRO =        -0.01721386
  eigenvalues    EBANDS =      1278.82527837
  atomic energy  EATOM  =     58329.24398462
  Solvation  Ediel_sol  =         0.00000000
  ---------------------------------------------------
  free energy    TOTEN  =      -709.67317039 eV

  energy without entropy =     -709.65595652  energy(sigma->0) =     -709.66743243


--------------------------------------------------------------------------------------------------------




--------------------------------------- Iteration      1(   8)  ---------------------------------------


    POTLOK:  cpu time    0.3046: real time    0.3054
    SETDIJ:  cpu time    0.0312: real time    0.0313
    EDDIAG:  cpu time    9.5932: real time    9.6199
  RMM-DIIS:  cpu time   32.9194: real time   33.0097
    ORTHCH:  cpu time    1.0148: real time    1.0175
       DOS:  cpu time    0.0021: real time    0.0021
    CHARGE:  cpu time    3.7481: real time    3.7584
    MIXING:  cpu time    0.0095: real time    0.0095
    --------------------------------------------
      LOOP:  cpu time   47.6230: real time   47.7538

 eigenvalue-minimisations  :  8352
 total energy-change (2. order) : 0.2307259E+03  (-0.8088438E+01)
 number of electron     800.0000030 magnetization      57.3520258
 augmentation part      246.3618843 magnetization      45.9430674

 Broyden mixing:
  rms(total) = 0.59761E+01    rms(broyden)= 0.59761E+01
  rms(prec ) = 0.72304E+01
  weight for this iteration     100.00

 eigenvalues of (default mixing * dielectric matrix)
  average eigenvalue GAMMA=   0.9231
  1.9444  0.5316  0.2934

 Free energy of the ion-electron system (eV)
  ---------------------------------------------------
  alpha Z        PSCENC =      2918.45622157
  Ewald energy   TEWEN  =    163368.54693291
  -Hartree energ DENC   =   -227931.70468522
  -exchange      EXHF   =         0.00000000
  -V(xc)+E(xc)   XCENC  =       287.98489346
  PAW double counting   =     76520.21257060   -74536.25270352
  entropy T*S    EENTRO =        -0.08224061
  eigenvalues    EBANDS =       564.64775597
  atomic energy  EATOM  =     58329.24398462
  Solvation  Ediel_sol  =         0.00000000
  ---------------------------------------------------
  free energy    TOTEN  =      -478.94727021 eV

  energy without entropy =     -478.86502961  energy(sigma->0) =     -478.91985668


--------------------------------------------------------------------------------------------------------




--------------------------------------- Iteration      1(   9)  ---------------------------------------


    POTLOK:  cpu time    0.3074: real time    0.3082
    SETDIJ:  cpu time    0.0316: real time    0.0316
    EDDIAG:  cpu time    9.4030: real time    9.4289
  RMM-DIIS:  cpu time   33.1072: real time   33.1978
    ORTHCH:  cpu time    1.0176: real time    1.0204
       DOS:  cpu time    0.0021: real time    0.0021
    CHARGE:  cpu time    3.7321: real time    3.7420
    MIXING:  cpu time    0.0100: real time    0.0100
    --------------------------------------------
      LOOP:  cpu time   47.6109: real time   47.7410

 eigenvalue-minimisations  :  8360
 total energy-change (2. order) : 0.2217751E+02  (-0.7201597E+01)
 number of electron     800.0000027 magnetization      54.3662996
 augmentation part      247.3182859 magnetization      39.9795132

 Broyden mixing:
  rms(total) = 0.47903E+01    rms(broyden)= 0.47903E+01
  rms(prec ) = 0.57314E+01
  weight for this iteration     100.00

 eigenvalues of (default mixing * dielectric matrix)
  average eigenvalue GAMMA=   0.8329
  2.1462  0.6482  0.3088  0.2286

 Free energy of the ion-electron system (eV)
  ---------------------------------------------------
  alpha Z        PSCENC =      2918.45622157
  Ewald energy   TEWEN  =    163368.54693291
  -Hartree energ DENC   =   -227740.14806909
  -exchange      EXHF   =         0.00000000
  -V(xc)+E(xc)   XCENC  =       289.08669226
  PAW double counting   =     76842.52923412   -74858.53893227
  entropy T*S    EENTRO =        -0.00722416
  eigenvalues    EBANDS =       394.06140138
  atomic energy  EATOM  =     58329.24398462
  Solvation  Ediel_sol  =         0.00000000
  ---------------------------------------------------
  free energy    TOTEN  =      -456.76975867 eV

  energy without entropy =     -456.76253450  energy(sigma->0) =     -456.76735061


--------------------------------------------------------------------------------------------------------




--------------------------------------- Iteration      1(  10)  ---------------------------------------


    POTLOK:  cpu time    0.3094: real time    0.3105
    SETDIJ:  cpu time    0.0321: real time    0.0322
    EDDIAG:  cpu time    9.4102: real time    9.4360
  RMM-DIIS:  cpu time   33.2966: real time   33.3835
    ORTHCH:  cpu time    1.0264: real time    1.0288
       DOS:  cpu time    0.0019: real time    0.0019
    CHARGE:  cpu time    3.7231: real time    3.7320
    MIXING:  cpu time    0.0107: real time    0.0107
    --------------------------------------------
      LOOP:  cpu time   47.8104: real time   47.9355

 eigenvalue-minimisations  :  8367
 total energy-change (2. order) :-0.1522669E+02  (-0.1049804E+01)
 number of electron     800.0000024 magnetization      53.3638007
 augmentation part      246.6866397 magnetization      40.4301093

 Broyden mixing:
  rms(total) = 0.56494E+01    rms(broyden)= 0.56494E+01
  rms(prec ) = 0.91463E+01
  weight for this iteration     100.00

 eigenvalues of (default mixing * dielectric matrix)
  average eigenvalue GAMMA=   0.7114
  2.2128  0.6796  0.2415  0.2415  0.1816

 Free energy of the ion-electron system (eV)
  ---------------------------------------------------
  alpha Z        PSCENC =      2918.45622157
  Ewald energy   TEWEN  =    163368.54693291
  -Hartree energ DENC   =   -227670.43782332
  -exchange      EXHF   =         0.00000000
  -V(xc)+E(xc)   XCENC  =       288.89614171
  PAW double counting   =     77268.96529140   -75284.82137957
  entropy T*S    EENTRO =        -0.00384230
  eigenvalues    EBANDS =       309.15802735
  atomic energy  EATOM  =     58329.24398462
  Solvation  Ediel_sol  =         0.00000000
  ---------------------------------------------------
  free energy    TOTEN  =      -471.99644562 eV

  energy without entropy =     -471.99260333  energy(sigma->0) =     -471.99516486


--------------------------------------------------------------------------------------------------------




--------------------------------------- Iteration      1(  11)  ---------------------------------------


    POTLOK:  cpu time    0.3033: real time    0.3040
    SETDIJ:  cpu time    0.0312: real time    0.0313
    EDDIAG:  cpu time    9.4428: real time    9.4653
  RMM-DIIS:  cpu time   33.1473: real time   33.2258
    ORTHCH:  cpu time    1.1460: real time    1.1501
       DOS:  cpu time    0.0020: real time    0.0020
    CHARGE:  cpu time    3.7498: real time    3.7603
    MIXING:  cpu time    0.0104: real time    0.0104
    --------------------------------------------
      LOOP:  cpu time   47.8328: real time   47.9492

 eigenvalue-minimisations  :  8370
 total energy-change (2. order) : 0.2537776E+02  (-0.4002179E+00)
 number of electron     800.0000028 magnetization      49.7068712
 augmentation part      246.9044283 magnetization      37.7640499

 Broyden mixing:
  rms(total) = 0.29071E+01    rms(broyden)= 0.29071E+01
  rms(prec ) = 0.38833E+01
  weight for this iteration     100.00

 eigenvalues of (default mixing * dielectric matrix)
  average eigenvalue GAMMA=   0.6978
  2.3000  0.7604  0.3986  0.3986  0.2481  0.0812

 Free energy of the ion-electron system (eV)
  ---------------------------------------------------
  alpha Z        PSCENC =      2918.45622157
  Ewald energy   TEWEN  =    163368.54693291
  -Hartree energ DENC   =   -227692.96075552
  -exchange      EXHF   =         0.00000000
  -V(xc)+E(xc)   XCENC  =       288.91320522
  PAW double counting   =     77490.00090999   -75507.64486345
  entropy T*S    EENTRO =         0.01854354
  eigenvalues    EBANDS =       358.80713106
  atomic energy  EATOM  =     58329.24398462
  Solvation  Ediel_sol  =         0.00000000
  ---------------------------------------------------
  free energy    TOTEN  =      -446.61869005 eV

  energy without entropy =     -446.63723359  energy(sigma->0) =     -446.62487123


--------------------------------------------------------------------------------------------------------




--------------------------------------- Iteration      1(  12)  ---------------------------------------


    POTLOK:  cpu time    0.3080: real time    0.3087
    SETDIJ:  cpu time    0.0316: real time    0.0316
    EDDIAG:  cpu time    9.4397: real time    9.4622
  RMM-DIIS:  cpu time   33.3120: real time   33.3910
    ORTHCH:  cpu time    1.0371: real time    1.0396
       DOS:  cpu time    0.0018: real time    0.0018
    CHARGE:  cpu time    3.6914: real time    3.7001
    MIXING:  cpu time    0.0113: real time    0.0113
    --------------------------------------------
      LOOP:  cpu time   47.8329: real time   47.9465

 eigenvalue-minimisations  :  8377
 total energy-change (2. order) : 0.4688206E+01  (-0.2584959E+00)
 number of electron     800.0000027 magnetization      48.6124432
 augmentation part      246.5299091 magnetization      36.3220398

 Broyden mixing:
  rms(total) = 0.17820E+01    rms(broyden)= 0.17820E+01
  rms(prec ) = 0.19383E+01
  weight for this iteration     100.00

 eigenvalues of (default mixing * dielectric matrix)
  average eigenvalue GAMMA=   0.6607
  2.1993  0.6689  0.6689  0.3881  0.3881  0.2313  0.0803

 Free energy of the ion-electron system (eV)
  ---------------------------------------------------
  alpha Z        PSCENC =      2918.45622157
  Ewald energy   TEWEN  =    163368.54693291
  -Hartree energ DENC   =   -227792.54770509
  -exchange      EXHF   =         0.00000000
  -V(xc)+E(xc)   XCENC  =       288.47208384
  PAW double counting   =     77919.30012403   -75941.65276337
  entropy T*S    EENTRO =         0.03466723
  eigenvalues    EBANDS =       468.21597056
  atomic energy  EATOM  =     58329.24398462
  Solvation  Ediel_sol  =         0.00000000
  ---------------------------------------------------
  free energy    TOTEN  =      -441.93048371 eV

  energy without entropy =     -441.96515094  energy(sigma->0) =     -441.94203945


--------------------------------------------------------------------------------------------------------




--------------------------------------- Iteration      1(  13)  ---------------------------------------


    POTLOK:  cpu time    0.3078: real time    0.3085
    SETDIJ:  cpu time    0.0316: real time    0.0317
    EDDIAG:  cpu time    9.5701: real time    9.6089
  RMM-DIIS:  cpu time   33.2794: real time   33.3706
    ORTHCH:  cpu time    1.0204: real time    1.0235
       DOS:  cpu time    0.0019: real time    0.0019
    CHARGE:  cpu time    3.6982: real time    3.7082
    MIXING:  cpu time    0.0138: real time    0.0138
    --------------------------------------------
      LOOP:  cpu time   47.9233: real time   48.0671

 eigenvalue-minimisations  :  8390
 total energy-change (2. order) :-0.8932188E-01  (-0.5417037E-01)
 number of electron     800.0000028 magnetization      46.4261910
 augmentation part      246.6032884 magnetization      33.6624028

 Broyden mixing:
  rms(total) = 0.12619E+01    rms(broyden)= 0.12619E+01
  rms(prec ) = 0.13038E+01
  weight for this iteration     100.00

 eigenvalues of (default mixing * dielectric matrix)
  average eigenvalue GAMMA=   0.6560
  2.1620  0.8214  0.8214  0.4134  0.3568  0.3568  0.2362  0.0803

 Free energy of the ion-electron system (eV)
  ---------------------------------------------------
  alpha Z        PSCENC =      2918.45622157
  Ewald energy   TEWEN  =    163368.54693291
  -Hartree energ DENC   =   -227777.54088994
  -exchange      EXHF   =         0.00000000
  -V(xc)+E(xc)   XCENC  =       288.30202057
  PAW double counting   =     77538.57313789   -75557.29529349
  entropy T*S    EENTRO =         0.10156842
  eigenvalues    EBANDS =       449.59251188
  atomic energy  EATOM  =     58329.24398462
  Solvation  Ediel_sol  =         0.00000000
  ---------------------------------------------------
  free energy    TOTEN  =      -442.01980559 eV

  energy without entropy =     -442.12137401  energy(sigma->0) =     -442.05366173


--------------------------------------------------------------------------------------------------------




--------------------------------------- Iteration      1(  14)  ---------------------------------------


    POTLOK:  cpu time    0.3133: real time    0.3143
    SETDIJ:  cpu time    0.0315: real time    0.0316
    EDDIAG:  cpu time    9.5324: real time    9.5634
  RMM-DIIS:  cpu time   33.2328: real time   33.3269
    ORTHCH:  cpu time    1.0237: real time    1.0268
       DOS:  cpu time    0.0020: real time    0.0020
    CHARGE:  cpu time    3.6935: real time    3.7034
    MIXING:  cpu time    0.0121: real time    0.0121
    --------------------------------------------
      LOOP:  cpu time   47.8414: real time   47.9805

 eigenvalue-minimisations  :  8384
 total energy-change (2. order) :-0.1732725E+01  (-0.8532761E-01)
 number of electron     800.0000028 magnetization      42.6618018
 augmentation part      246.4278605 magnetization      30.7407491

 Broyden mixing:
  rms(total) = 0.12575E+01    rms(broyden)= 0.12575E+01
  rms(prec ) = 0.13618E+01
  weight for this iteration     100.00

 eigenvalues of (default mixing * dielectric matrix)
  average eigenvalue GAMMA=   0.6624
  2.0900  1.0187  1.0187  0.4553  0.3984  0.3984  0.2378  0.2644  0.0802

 Free energy of the ion-electron system (eV)
  ---------------------------------------------------
  alpha Z        PSCENC =      2918.45622157
  Ewald energy   TEWEN  =    163368.54693291
  -Hartree energ DENC   =   -227785.78056855
  -exchange      EXHF   =         0.00000000
  -V(xc)+E(xc)   XCENC  =       287.63714236
  PAW double counting   =     77385.51148575   -75402.67119250
  entropy T*S    EENTRO =         0.05913154
  eigenvalues    EBANDS =       455.24433197
  atomic energy  EATOM  =     58329.24398462
  Solvation  Ediel_sol  =         0.00000000
  ---------------------------------------------------
  free energy    TOTEN  =      -443.75253034 eV

  energy without entropy =     -443.81166188  energy(sigma->0) =     -443.77224085


--------------------------------------------------------------------------------------------------------




--------------------------------------- Iteration      1(  15)  ---------------------------------------


    POTLOK:  cpu time    0.3072: real time    0.3083
    SETDIJ:  cpu time    0.0319: real time    0.0320
    EDDIAG:  cpu time    9.4631: real time    9.4888
  RMM-DIIS:  cpu time   33.3538: real time   33.4453
    ORTHCH:  cpu time    1.0161: real time    1.0191
       DOS:  cpu time    0.0020: real time    0.0020
    CHARGE:  cpu time    3.6917: real time    3.7015
    MIXING:  cpu time    0.0120: real time    0.0120
    --------------------------------------------
      LOOP:  cpu time   47.8777: real time   48.0090

 eigenvalue-minimisations  :  8377
 total energy-change (2. order) :-0.2311340E+01  (-0.7228143E-01)
 number of electron     800.0000029 magnetization      36.6038108
 augmentation part      246.3261187 magnetization      25.1888185

 Broyden mixing:
  rms(total) = 0.89586E+00    rms(broyden)= 0.89586E+00
  rms(prec ) = 0.94527E+00
  weight for this iteration     100.00

 eigenvalues of (default mixing * dielectric matrix)
  average eigenvalue GAMMA=   0.7458
  2.2390  1.2158  1.1075  1.1075  0.3901  0.3901  0.4308  0.2323  0.2647  0.0802

 Free energy of the ion-electron system (eV)
  ---------------------------------------------------
  alpha Z        PSCENC =      2918.45622157
  Ewald energy   TEWEN  =    163368.54693291
  -Hartree energ DENC   =   -227787.24720274
  -exchange      EXHF   =         0.00000000
  -V(xc)+E(xc)   XCENC  =       286.29003154
  PAW double counting   =     77315.46343373   -75331.69504721
  entropy T*S    EENTRO =         0.04010146
  eigenvalues    EBANDS =       454.83767410
  atomic energy  EATOM  =     58329.24398462
  Solvation  Ediel_sol  =         0.00000000
  ---------------------------------------------------
  free energy    TOTEN  =      -446.06387003 eV

  energy without entropy =     -446.10397149  energy(sigma->0) =     -446.07723718


--------------------------------------------------------------------------------------------------------




--------------------------------------- Iteration      1(  16)  ---------------------------------------


    POTLOK:  cpu time    0.3039: real time    0.3049
    SETDIJ:  cpu time    0.0317: real time    0.0317
    EDDIAG:  cpu time    9.3906: real time    9.4160
  RMM-DIIS:  cpu time   33.2481: real time   33.3392
    ORTHCH:  cpu time    1.1397: real time    1.1427
       DOS:  cpu time    0.0020: real time    0.0020
    CHARGE:  cpu time    3.6815: real time    3.6915
    MIXING:  cpu time    0.0132: real time    0.0133
    --------------------------------------------
      LOOP:  cpu time   47.8106: real time   47.9413

 eigenvalue-minimisations  :  8371
 total energy-change (2. order) :-0.3721058E+01  (-0.1137901E+00)
 number of electron     800.0000028 magnetization      32.9473572
 augmentation part      246.1565404 magnetization      22.3603296

 Broyden mixing:
  rms(total) = 0.75793E+00    rms(broyden)= 0.75793E+00
  rms(prec ) = 0.86016E+00
  weight for this iteration     100.00

 eigenvalues of (default mixing * dielectric matrix)
  average eigenvalue GAMMA=   0.7802
  2.4595  1.5632  1.0862  1.0862  0.5335  0.5335  0.3802  0.3802  0.2335  0.2462
  0.0802

 Free energy of the ion-electron system (eV)
  ---------------------------------------------------
  alpha Z        PSCENC =      2918.45622157
  Ewald energy   TEWEN  =    163368.54693291
  -Hartree energ DENC   =   -227786.73706015
  -exchange      EXHF   =         0.00000000
  -V(xc)+E(xc)   XCENC  =       284.15355430
  PAW double counting   =     77415.45239031   -75432.31169369
  entropy T*S    EENTRO =         0.02188060
  eigenvalues    EBANDS =       453.38886103
  atomic energy  EATOM  =     58329.24398462
  Solvation  Ediel_sol  =         0.00000000
  ---------------------------------------------------
  free energy    TOTEN  =      -449.78492849 eV

  energy without entropy =     -449.80680909  energy(sigma->0) =     -449.79222202


--------------------------------------------------------------------------------------------------------




--------------------------------------- Iteration      1(  17)  ---------------------------------------


    POTLOK:  cpu time    0.3032: real time    0.3039
    SETDIJ:  cpu time    0.0318: real time    0.0321
    EDDIAG:  cpu time    9.4275: real time    9.4532
  RMM-DIIS:  cpu time   33.3264: real time   33.4175
    ORTHCH:  cpu time    1.0222: real time    1.0250
       DOS:  cpu time    0.0021: real time    0.0021
    CHARGE:  cpu time    3.6751: real time    3.6852
    MIXING:  cpu time    0.0141: real time    0.0141
    --------------------------------------------
      LOOP:  cpu time   47.8024: real time   47.9332

 eigenvalue-minimisations  :  8354
 total energy-change (2. order) :-0.2238963E+01  (-0.8706584E-01)
 number of electron     800.0000028 magnetization      27.7587514
 augmentation part      246.0154260 magnetization      18.1316419

 Broyden mixing:
  rms(total) = 0.75266E+00    rms(broyden)= 0.75266E+00
  rms(prec ) = 0.84139E+00
  weight for this iteration     100.00

 eigenvalues of (default mixing * dielectric matrix)
  average eigenvalue GAMMA=   0.8095
  2.7960  2.1012  0.9362  0.9362  0.6776  0.6776  0.3813  0.3813  0.0802  0.2318
  0.2584  0.2556

 Free energy of the ion-electron system (eV)
  ---------------------------------------------------
  alpha Z        PSCENC =      2918.45622157
  Ewald energy   TEWEN  =    163368.54693291
  -Hartree energ DENC   =   -227790.28971573
  -exchange      EXHF   =         0.00000000
  -V(xc)+E(xc)   XCENC  =       282.82597790
  PAW double counting   =     77365.20470528   -75381.67008872
  entropy T*S    EENTRO =         0.00403597
  eigenvalues    EBANDS =       455.65405450
  atomic energy  EATOM  =     58329.24398462
  Solvation  Ediel_sol  =         0.00000000
  ---------------------------------------------------
  free energy    TOTEN  =      -452.02389171 eV

  energy without entropy =     -452.02792768  energy(sigma->0) =     -452.02523703


--------------------------------------------------------------------------------------------------------




--------------------------------------- Iteration      1(  18)  ---------------------------------------


    POTLOK:  cpu time    0.3047: real time    0.3055
    SETDIJ:  cpu time    0.0321: real time    0.0322
    EDDIAG:  cpu time    9.5578: real time    9.5839
  RMM-DIIS:  cpu time   33.3987: real time   33.4920
    ORTHCH:  cpu time    1.0211: real time    1.0239
       DOS:  cpu time    0.0021: real time    0.0021
    CHARGE:  cpu time    3.6693: real time    3.6791
    MIXING:  cpu time    0.0136: real time    0.0137
    --------------------------------------------
      LOOP:  cpu time   47.9995: real time   48.1324

 eigenvalue-minimisations  :  8361
 total energy-change (2. order) :-0.2188707E+01  (-0.1059153E+00)
 number of electron     800.0000028 magnetization      23.8783335
 augmentation part      245.9081742 magnetization      15.5249715

 Broyden mixing:
  rms(total) = 0.59461E+00    rms(broyden)= 0.59461E+00
  rms(prec ) = 0.62329E+00
  weight for this iteration     100.00

 eigenvalues of (default mixing * dielectric matrix)
  average eigenvalue GAMMA=   0.8377
  3.2135  2.3458  0.9829  0.9829  0.7177  0.7177  0.3821  0.3821  0.3670  0.0802
  0.2586  0.2298  0.2298

 Free energy of the ion-electron system (eV)
  ---------------------------------------------------
  alpha Z        PSCENC =      2918.45622157
  Ewald energy   TEWEN  =    163368.54693291
  -Hartree energ DENC   =   -227789.37170255
  -exchange      EXHF   =         0.00000000
  -V(xc)+E(xc)   XCENC  =       281.31907484
  PAW double counting   =     77208.34391411   -75223.67039565
  entropy T*S    EENTRO =        -0.00296032
  eigenvalues    EBANDS =       452.92233147
  atomic energy  EATOM  =     58329.24398462
  Solvation  Ediel_sol  =         0.00000000
  ---------------------------------------------------
  free energy    TOTEN  =      -454.21259899 eV

  energy without entropy =     -454.20963867  energy(sigma->0) =     -454.21161222


--------------------------------------------------------------------------------------------------------




--------------------------------------- Iteration      1(  19)  ---------------------------------------


    POTLOK:  cpu time    0.3025: real time    0.3035
    SETDIJ:  cpu time    0.0318: real time    0.0319
    EDDIAG:  cpu time    9.4258: real time    9.4514
  RMM-DIIS:  cpu time   33.5184: real time   33.6106
    ORTHCH:  cpu time    1.0216: real time    1.0244
       DOS:  cpu time    0.0021: real time    0.0021
    CHARGE:  cpu time    3.6735: real time    3.6832
    MIXING:  cpu time    0.0153: real time    0.0154
    --------------------------------------------
      LOOP:  cpu time   47.9910: real time   48.1224

 eigenvalue-minimisations  :  8366
 total energy-change (2. order) :-0.1238117E+01  (-0.4945391E-01)
 number of electron     800.0000028 magnetization      19.7870524
 augmentation part      245.8679291 magnetization      12.3585866

 Broyden mixing:
  rms(total) = 0.52120E+00    rms(broyden)= 0.52120E+00
  rms(prec ) = 0.55037E+00
  weight for this iteration     100.00

 eigenvalues of (default mixing * dielectric matrix)
  average eigenvalue GAMMA=   0.8764
  3.7625  2.4191  1.0836  1.0836  0.7355  0.7355  0.4432  0.4432  0.3876  0.3876
  0.0802  0.2493  0.2346  0.2242

 Free energy of the ion-electron system (eV)
  ---------------------------------------------------
  alpha Z        PSCENC =      2918.45622157
  Ewald energy   TEWEN  =    163368.54693291
  -Hartree energ DENC   =   -227777.95093307
  -exchange      EXHF   =         0.00000000
  -V(xc)+E(xc)   XCENC  =       280.36776174
  PAW double counting   =     77084.74088007   -75099.32829135
  entropy T*S    EENTRO =        -0.01738972
  eigenvalues    EBANDS =       440.49011707
  atomic energy  EATOM  =     58329.24398462
  Solvation  Ediel_sol  =         0.00000000
  ---------------------------------------------------
  free energy    TOTEN  =      -455.45071617 eV

  energy without entropy =     -455.43332645  energy(sigma->0) =     -455.44491960


--------------------------------------------------------------------------------------------------------




--------------------------------------- Iteration      1(  20)  ---------------------------------------


    POTLOK:  cpu time    0.3026: real time    0.3036
    SETDIJ:  cpu time    0.0318: real time    0.0318
    EDDIAG:  cpu time    9.4626: real time    9.4882
  RMM-DIIS:  cpu time   33.4657: real time   33.5575
    ORTHCH:  cpu time    1.0191: real time    1.0218
       DOS:  cpu time    0.0021: real time    0.0021
    CHARGE:  cpu time    3.6669: real time    3.6767
    MIXING:  cpu time    0.0151: real time    0.0152
    --------------------------------------------
      LOOP:  cpu time   47.9658: real time   48.0969

 eigenvalue-minimisations  :  8356
 total energy-change (2. order) :-0.8758618E+00  (-0.3871812E-01)
 number of electron     800.0000028 magnetization      13.0049250
 augmentation part      245.8780371 magnetization       6.6672051

 Broyden mixing:
  rms(total) = 0.53454E+00    rms(broyden)= 0.53454E+00
  rms(prec ) = 0.57772E+00
  weight for this iteration     100.00

 eigenvalues of (default mixing * dielectric matrix)
  average eigenvalue GAMMA=   1.0592
  6.1902  2.3958  1.2711  1.2711  0.8897  0.7639  0.7639  0.4966  0.3837  0.3837
  0.0802  0.2932  0.2490  0.2335  0.2223

 Free energy of the ion-electron system (eV)
  ---------------------------------------------------
  alpha Z        PSCENC =      2918.45622157
  Ewald energy   TEWEN  =    163368.54693291
  -Hartree energ DENC   =   -227758.85021443
  -exchange      EXHF   =         0.00000000
  -V(xc)+E(xc)   XCENC  =       279.54278894
  PAW double counting   =     76994.02123969   -75008.40164302
  entropy T*S    EENTRO =        -0.02894395
  eigenvalues    EBANDS =       421.14305566
  atomic energy  EATOM  =     58329.24398462
  Solvation  Ediel_sol  =         0.00000000
  ---------------------------------------------------
  free energy    TOTEN  =      -456.32657802 eV

  energy without entropy =     -456.29763406  energy(sigma->0) =     -456.31693003


--------------------------------------------------------------------------------------------------------




--------------------------------------- Iteration      1(  21)  ---------------------------------------


    POTLOK:  cpu time    0.3042: real time    0.3052
    SETDIJ:  cpu time    0.0315: real time    0.0316
    EDDIAG:  cpu time    9.3421: real time    9.3677
  RMM-DIIS:  cpu time   33.2184: real time   33.3095
    ORTHCH:  cpu time    1.1624: real time    1.1658
       DOS:  cpu time    0.0026: real time    0.0026
    CHARGE:  cpu time    3.6583: real time    3.6681
    MIXING:  cpu time    0.0170: real time    0.0171
    --------------------------------------------
      LOOP:  cpu time   47.7366: real time   47.8676

 eigenvalue-minimisations  :  8355
 total energy-change (2. order) :-0.4627648E+00  (-0.4573194E-01)
 number of electron     800.0000028 magnetization      10.7794267
 augmentation part      245.9278000 magnetization       6.1491631

 Broyden mixing:
  rms(total) = 0.43213E+00    rms(broyden)= 0.43213E+00
  rms(prec ) = 0.45709E+00
  weight for this iteration     100.00

 eigenvalues of (default mixing * dielectric matrix)
  average eigenvalue GAMMA=   1.1611
  8.1296  2.3837  1.3756  1.3756  0.8305  0.8305  0.8637  0.4735  0.4735  0.3829
  0.3829  0.0802  0.2873  0.2522  0.2334  0.2222

 Free energy of the ion-electron system (eV)
  ---------------------------------------------------
  alpha Z        PSCENC =      2918.45622157
  Ewald energy   TEWEN  =    163368.54693291
  -Hartree energ DENC   =   -227731.93179950
  -exchange      EXHF   =         0.00000000
  -V(xc)+E(xc)   XCENC  =       278.63851314
  PAW double counting   =     76987.81304732   -75003.43539929
  entropy T*S    EENTRO =        -0.03765928
  eigenvalues    EBANDS =       395.91681573
  atomic energy  EATOM  =     58329.24398462
  Solvation  Ediel_sol  =         0.00000000
  ---------------------------------------------------
  free energy    TOTEN  =      -456.78934278 eV

  energy without entropy =     -456.75168350  energy(sigma->0) =     -456.77678969


--------------------------------------------------------------------------------------------------------




--------------------------------------- Iteration      1(  22)  ---------------------------------------


    POTLOK:  cpu time    0.3039: real time    0.3051
    SETDIJ:  cpu time    0.0313: real time    0.0313
    EDDIAG:  cpu time    9.3512: real time    9.3770
  RMM-DIIS:  cpu time   33.2383: real time   33.3293
    ORTHCH:  cpu time    1.0152: real time    1.0180
       DOS:  cpu time    0.0021: real time    0.0021
    CHARGE:  cpu time    3.6597: real time    3.6699
    MIXING:  cpu time    0.0184: real time    0.0184
    --------------------------------------------
      LOOP:  cpu time   47.6200: real time   47.7510

 eigenvalue-minimisations  :  8372
 total energy-change (2. order) :-0.8990379E-01  (-0.1088777E-01)
 number of electron     800.0000028 magnetization       9.1898283
 augmentation part      245.9276531 magnetization       5.1261758

 Broyden mixing:
  rms(total) = 0.35222E+00    rms(broyden)= 0.35222E+00
  rms(prec ) = 0.37341E+00
  weight for this iteration     100.00

 eigenvalues of (default mixing * dielectric matrix)
[...]

  length of vectors
    10.460000006 10.460000043 22.000000000     0.110392021  0.110392020  0.045454545


 FORCES acting on ions
    electron-ion (+dipol)            ewald-force                    non-local-force                 convergence-correction
 -----------------------------------------------------------------------------------------------
   0.186E+00 -.653E-01 -.136E+04   -.195E+00 0.740E-01 0.136E+04   0.123E-01 -.148E-01 0.360E+00   0.627E-03 0.138E-03 0.902E-03
   0.176E+00 -.339E+00 -.136E+04   -.188E+00 0.354E+00 0.136E+04   0.119E-01 -.182E-01 0.347E+00   0.392E-03 0.170E-03 0.134E-02
   0.284E+00 -.307E+00 -.137E+04   -.295E+00 0.318E+00 0.137E+04   0.835E-02 -.130E-01 0.340E+00   0.443E-03 -.748E-03 0.149E-02
   -.224E+00 0.993E+00 0.270E+04   0.245E+00 -.100E+01 -.270E+04   -.150E-01 0.434E-02 0.930E-01   -.536E-03 -.201E-02 -.624E-03
   -.838E+00 0.138E+01 0.270E+04   0.848E+00 -.138E+01 -.270E+04   -.116E-01 -.347E-02 0.104E+00   -.488E-03 -.213E-02 -.845E-03
   -.887E+00 0.159E+01 0.270E+04   0.892E+00 -.159E+01 -.270E+04   -.387E-02 -.691E-02 0.112E+00   -.450E-03 -.423E-03 0.171E-03
   0.383E+00 -.397E+00 0.137E+04   -.380E+00 0.391E+00 -.137E+04   0.375E-02 -.213E-02 -.344E+00   -.727E-03 0.171E-02 0.243E-03
   0.437E+00 -.268E+00 0.137E+04   -.437E+00 0.271E+00 -.137E+04   -.922E-02 -.492E-02 -.348E+00   0.701E-03 -.143E-02 0.251E-03
   0.254E+00 -.845E-01 -.137E+04   -.264E+00 0.914E-01 0.137E+04   0.703E-02 -.718E-02 0.340E+00   0.426E-03 -.673E-03 0.164E-02
   -.121E+01 0.785E-01 0.270E+04   0.121E+01 -.954E-01 -.270E+04   -.905E-02 0.815E-02 0.113E+00   -.521E-04 0.239E-02 -.348E-03
   -.155E+00 -.310E+00 0.137E+04   0.167E+00 0.301E+00 -.137E+04   -.288E-01 0.821E-02 -.336E+00   -.423E-03 0.192E-02 0.136E-03
   -.381E+00 0.727E-01 -.182E+01   0.379E+00 -.675E-01 0.183E+01   0.129E-01 -.269E-02 -.105E-01   0.442E-03 -.222E-03 0.456E-03
   -.369E+00 0.344E+00 -.137E+04   0.365E+00 -.342E+00 0.137E+04   0.686E-02 0.852E-02 0.339E+00   -.573E-03 0.974E-03 0.995E-03
   -.945E-01 -.368E+00 -.136E+04   0.893E-01 0.374E+00 0.136E+04   0.367E-03 0.115E-01 0.346E+00   -.397E-03 -.573E-03 0.674E-03
   -.135E+00 0.260E+00 -.137E+04   0.133E+00 -.260E+00 0.137E+04   -.138E-01 0.263E-02 0.334E+00   -.526E-03 -.138E-03 0.103E-02
   0.334E+00 -.150E+01 0.270E+04   -.320E+00 0.148E+01 -.270E+04   -.207E-01 0.224E-01 0.119E+00   0.654E-03 0.447E-03 -.896E-03
   0.109E+01 -.169E+00 0.270E+04   -.106E+01 0.149E+00 -.270E+04   -.229E-01 0.185E-01 0.993E-01   0.418E-03 -.648E-03 0.633E-04
   0.759E+00 -.512E+00 0.270E+04   -.740E+00 0.491E+00 -.270E+04   -.165E-01 0.112E-01 0.116E+00   0.301E-03 0.172E-02 -.341E-04
   0.280E+00 -.196E+00 0.137E+04   -.274E+00 0.195E+00 -.137E+04   -.232E-02 0.760E-03 -.346E+00   -.215E-03 -.138E-02 -.577E-04
   -.509E+00 -.117E+00 0.434E+01   0.513E+00 0.125E+00 -.436E+01   0.143E-01 0.857E-02 0.175E-01   -.929E-04 -.130E-03 0.275E-03
   -.375E+00 0.372E+00 0.137E+04   0.388E+00 -.384E+00 -.137E+04   -.900E-02 0.126E-01 -.346E+00   -.254E-03 -.149E-02 -.117E-02
   -.757E-01 -.328E+00 0.137E+04   0.805E-01 0.318E+00 -.137E+04   0.119E-01 0.203E-02 -.352E+00   -.367E-03 0.169E-02 -.716E-03
   -.471E+00 0.454E+00 -.136E+04   0.466E+00 -.449E+00 0.136E+04   0.179E-01 -.197E-01 0.351E+00   -.730E-03 0.886E-03 0.962E-03
   0.350E+00 0.174E+00 0.270E+04   -.337E+00 -.179E+00 -.270E+04   -.177E-01 -.555E-02 0.997E-01   0.519E-03 -.219E-02 -.738E-03
   0.860E-01 0.210E+00 0.137E+04   -.809E-01 -.222E+00 -.137E+04   0.751E-02 0.104E-01 -.352E+00   0.186E-03 -.137E-02 -.104E-02
   0.280E+00 0.308E+00 -.759E+00   -.288E+00 -.303E+00 0.759E+00   -.835E-02 -.121E-01 -.162E-02   0.436E-03 0.132E-03 0.246E-02
   0.844E+00 -.896E+00 -.270E+04   -.849E+00 0.894E+00 0.270E+04   0.459E-02 0.126E-01 -.116E+00   0.775E-03 -.167E-03 -.552E-03
   0.769E+00 -.611E+00 -.270E+04   -.777E+00 0.612E+00 0.270E+04   -.809E-02 0.132E-02 -.902E-01   -.868E-04 -.266E-03 -.788E-03
   0.585E+00 -.211E+00 -.270E+04   -.593E+00 0.218E+00 0.270E+04   0.981E-02 -.115E-01 -.103E+00   -.127E-03 0.395E-03 -.765E-03
   0.144E+01 -.695E+00 -.270E+04   -.143E+01 0.693E+00 0.270E+04   -.918E-02 0.168E-01 -.103E+00   0.838E-03 -.804E-03 -.629E-03
   -.801E+00 0.102E+01 -.270E+04   0.782E+00 -.995E+00 0.270E+04   0.186E-01 -.138E-01 -.109E+00   -.815E-03 0.958E-03 -.573E-03
   0.130E+01 0.389E+00 -.270E+04   -.130E+01 -.381E+00 0.270E+04   -.925E-02 0.268E-02 -.118E+00   0.788E-03 -.572E-05 -.824E-03
   0.105E+01 0.934E+00 -.270E+04   -.105E+01 -.920E+00 0.270E+04   0.112E-02 -.223E-01 -.104E+00   -.486E-04 0.490E-03 -.101E-02
   -.913E+00 0.618E+00 -.270E+04   0.903E+00 -.607E+00 0.270E+04   0.262E-01 -.237E-03 -.111E+00   0.167E-03 0.382E-03 -.362E-03
   0.119E+01 -.168E+01 -.270E+04   -.119E+01 0.168E+01 0.270E+04   -.831E-02 0.186E-01 -.112E+00   0.864E-03 -.907E-03 -.364E-03
   -.113E+01 0.178E+01 -.270E+04   0.111E+01 -.176E+01 0.270E+04   0.137E-01 -.304E-01 -.933E-01   -.762E-03 0.900E-03 -.847E-03
   -.102E+01 -.350E+00 -.270E+04   0.100E+01 0.356E+00 0.270E+04   0.175E-01 -.138E-02 -.103E+00   -.921E-03 0.297E-04 -.376E-03
   -.642E+00 0.451E+00 -.270E+04   0.629E+00 -.450E+00 0.270E+04   0.970E-02 0.256E-02 -.104E+00   0.830E-04 -.520E-03 -.481E-03
   0.243E+00 -.146E+01 -.270E+04   -.253E+00 0.146E+01 0.270E+04   0.125E-01 0.282E-02 -.103E+00   -.162E-03 -.373E-03 -.565E-03
   -.126E+01 0.120E+01 -.270E+04   0.124E+01 -.118E+01 0.270E+04   0.142E-01 -.701E-02 -.114E+00   0.227E-04 0.386E-03 -.667E-03
   -.512E+00 0.187E+00 -.136E+04   0.517E+00 -.190E+00 0.136E+04   -.151E-01 0.911E-02 0.350E+00   -.346E-03 -.305E-03 0.647E-03
   0.184E+01 -.141E+01 0.270E+04   -.181E+01 0.138E+01 -.270E+04   -.366E-01 0.348E-01 0.101E+00   -.610E-05 0.178E-02 -.266E-03
   -.150E+00 0.333E+00 -.136E+04   0.150E+00 -.332E+00 0.136E+04   -.180E-01 0.101E-01 0.344E+00   -.316E-03 0.887E-03 0.568E-03
   0.197E+01 -.160E+01 0.270E+04   -.193E+01 0.158E+01 -.270E+04   -.477E-01 0.359E-01 0.986E-01   0.742E-04 0.368E-03 -.863E-03
   -.114E+00 -.113E+00 0.136E+04   0.122E+00 0.102E+00 -.136E+04   -.142E-01 0.132E-01 -.348E+00   0.481E-04 0.207E-02 -.106E-02
   -.435E+00 -.647E-01 0.136E+04   0.442E+00 0.559E-01 -.136E+04   0.524E-02 0.145E-01 -.354E+00   0.444E-03 0.144E-02 -.598E-03
   0.596E+00 0.121E+00 -.136E+04   -.610E+00 -.115E+00 0.136E+04   -.346E-02 0.978E-03 0.347E+00   0.415E-03 0.283E-03 0.147E-02
   -.167E+01 -.332E+00 0.270E+04   0.167E+01 0.319E+00 -.270E+04   0.148E-02 0.704E-02 0.105E+00   -.625E-04 0.768E-03 -.134E-02
   -.523E+00 0.191E+00 0.137E+04   0.534E+00 -.196E+00 -.136E+04   -.634E-02 0.307E-02 -.344E+00   0.271E-03 -.181E-02 0.369E-03
   -.163E+01 0.294E+00 -.270E+04   0.161E+01 -.288E+00 0.270E+04   0.230E-01 -.499E-02 -.978E-01   -.836E-03 0.388E-04 -.642E-03
   -.257E+00 0.514E-01 -.150E+01   0.254E+00 -.453E-01 0.151E+01   0.145E-01 -.296E-02 -.729E-02   -.414E-03 -.384E-03 0.142E-03
   -.651E+00 -.464E+00 -.270E+04   0.641E+00 0.466E+00 0.270E+04   0.221E-01 0.751E-02 -.114E+00   0.218E-03 -.529E-03 -.164E-03
   0.421E+00 -.446E+00 0.136E+04   -.421E+00 0.445E+00 -.136E+04   -.721E-02 -.963E-02 -.352E+00   0.331E-03 0.161E-02 0.402E-03
   -.342E+00 -.727E-01 0.136E+04   0.351E+00 0.678E-01 -.136E+04   -.177E-01 -.135E-01 -.359E+00   0.822E-03 0.174E-02 0.358E-03
   0.268E-01 0.854E-01 0.174E+00   -.350E-01 -.754E-01 -.178E+00   0.482E-02 -.662E-02 -.251E-02   0.174E-03 -.548E-03 0.907E-03
   0.123E+00 -.597E+00 -.136E+04   -.126E+00 0.607E+00 0.136E+04   0.460E-02 0.352E-02 0.345E+00   0.628E-03 -.958E-03 0.115E-02
   -.482E+00 -.178E+00 -.137E+04   0.479E+00 0.186E+00 0.137E+04   0.372E-02 -.433E-02 0.337E+00   -.675E-03 -.276E-03 0.970E-03
   -.788E+00 0.103E+01 0.270E+04   0.802E+00 -.104E+01 -.270E+04   -.149E-02 0.353E-02 0.106E+00   -.106E-03 -.189E-03 0.980E-04
   0.730E+00 0.704E+00 0.270E+04   -.708E+00 -.710E+00 -.270E+04   -.735E-02 -.409E-03 0.121E+00   0.136E-03 -.906E-03 0.179E-03
   0.176E+00 -.213E+00 0.136E+04   -.178E+00 0.211E+00 -.136E+04   0.139E-01 0.884E-02 -.352E+00   0.194E-03 -.198E-02 -.553E-03
   0.643E+00 -.165E+00 0.136E+04   -.646E+00 0.156E+00 -.136E+04   -.570E-02 0.727E-02 -.356E+00   -.122E-03 0.116E-02 -.398E-03
   -.125E+00 -.263E+00 -.649E+01   0.123E+00 0.274E+00 0.653E+01   -.136E-02 -.169E-03 -.261E-01   0.645E-03 0.272E-03 0.176E-02
   0.538E+00 0.243E+00 -.136E+04   -.546E+00 -.244E+00 0.136E+04   -.596E-02 -.487E-02 0.349E+00   0.442E-03 -.753E-03 0.116E-02
   -.108E+01 -.757E+00 0.270E+04   0.109E+01 0.733E+00 -.270E+04   0.681E-02 0.315E-01 0.992E-01   -.242E-03 0.244E-02 -.530E-03
   -.240E+00 0.179E+00 0.344E+01   0.239E+00 -.170E+00 -.346E+01   0.679E-02 -.121E-01 0.933E-02   -.744E-04 0.564E-04 0.253E-02
   0.371E+00 0.114E+00 0.191E+01   -.380E+00 -.105E+00 -.193E+01   -.138E-02 -.538E-02 0.146E-01   -.201E-03 -.328E-03 0.461E-03
   0.757E-01 0.479E+00 0.988E+00   -.813E-01 -.476E+00 -.988E+00   0.134E-02 -.135E-01 -.233E-02   -.409E-03 -.102E-03 0.153E-03
   -.291E+00 -.290E+00 -.223E+01   0.284E+00 0.302E+00 0.225E+01   0.229E-01 0.573E-02 -.117E-01   0.117E-03 -.792E-03 0.115E-02
   -.218E+00 -.849E-01 -.157E+00   0.218E+00 0.970E-01 0.160E+00   0.520E-02 -.662E-02 -.520E-02   -.296E-04 0.629E-03 0.161E-02
   0.376E-01 0.694E+00 0.136E+04   -.344E-01 -.703E+00 -.136E+04   -.281E-02 -.833E-02 -.355E+00   -.126E-03 -.218E-02 -.597E-03
   0.146E+00 0.234E+00 0.565E+01   -.149E+00 -.227E+00 -.568E+01   -.121E-01 -.129E-01 0.201E-01   -.337E-03 0.510E-03 0.174E-02
   -.892E-01 -.609E-01 -.136E+04   0.835E-01 0.643E-01 0.136E+04   0.142E-01 0.963E-02 0.352E+00   0.471E-03 0.322E-03 0.887E-03
   -.232E+00 0.313E+00 -.136E+04   0.228E+00 -.312E+00 0.136E+04   0.515E-02 -.800E-03 0.365E+00   -.290E-03 0.771E-03 0.602E-03
   -.174E+00 -.242E+00 0.270E+04   0.190E+00 0.221E+00 -.270E+04   -.191E-01 0.164E-01 0.975E-01   -.663E-03 0.665E-03 -.124E-02
   0.102E+01 -.395E+00 0.270E+04   -.993E+00 0.382E+00 -.270E+04   -.259E-01 0.153E-01 0.974E-01   0.505E-03 -.207E-02 -.542E-03
   0.262E+00 0.371E+00 -.519E+01   -.271E+00 -.367E+00 0.522E+01   0.404E-03 -.143E-01 -.205E-01   0.378E-03 -.530E-03 0.460E-03
   0.324E+00 0.138E+00 -.711E+00   -.330E+00 -.130E+00 0.711E+00   -.161E-01 -.106E-01 -.272E-02   0.175E-03 0.295E-03 0.205E-02
   0.136E-01 0.209E+00 0.137E+04   -.449E-02 -.217E+00 -.137E+04   -.147E-01 0.178E-01 -.337E+00   -.757E-03 -.170E-02 0.277E-04
   -.265E+00 -.843E-01 0.424E+01   0.266E+00 0.923E-01 -.427E+01   0.193E-02 0.449E-02 0.158E-01   -.619E-03 0.558E-03 0.157E-02
   0.182E+00 0.531E-01 -.238E+01   -.186E+00 -.498E-01 0.239E+01   -.114E-01 0.283E-03 -.600E-02   -.207E-03 0.569E-03 0.125E-02
 -----------------------------------------------------------------------------------------------
   0.357E-01 -.365E-01 0.223E-02   0.132E-12 -.974E-13 -.481E-11   -.114E+00 0.118E+00 -.672E-01   -.210E-04 -.568E-05 0.137E-01
 
 
 POSITION                                       TOTAL-FORCE (eV/Angst)
 -----------------------------------------------------------------------------------
     12.74805      7.87941      7.41328         0.007381     -0.006751     -0.000089
      4.90336      7.88020      7.42132         0.000199     -0.003359      0.002905
      3.59662      5.61512      7.42662        -0.001630     -0.003266      0.000632
     12.77691      7.85502      0.07439         0.006754     -0.005747     -0.012233
      4.93262      7.85565      0.08113        -0.001456     -0.004773     -0.008235
      3.62428      5.59128      0.08541         0.001970     -0.008043      0.000294
      7.53806      1.82342      2.54573         0.007131     -0.008283     -0.004600
      8.84593      8.61783      2.55205        -0.008136     -0.003038      0.002730
      2.29021      3.35017      7.42897        -0.002077     -0.002537      0.005850
      2.31739      3.32671      0.08661        -0.001145     -0.007416      0.001282
     10.15457      1.82309      2.54658        -0.015744      0.000065     -0.003497
     12.75548      4.85597      4.99075         0.013205      0.000383      0.001959
      3.59737      1.08450      7.42798         0.002915      0.011533      0.001909
      8.82653      5.61334      7.42045        -0.003357      0.014081     -0.010727
      4.90617      3.34940      7.43257        -0.016779      0.001816     -0.000764
      3.62567      1.06193      0.08729        -0.005123      0.002355      0.002082
      8.85375      5.59061      0.08013         0.001641     -0.003055     -0.006801
      4.93234      3.32664      0.09048         0.003195     -0.008343      0.003365
     11.46037      8.61714      2.54594         0.005487     -0.001359     -0.002244
     11.44708      7.11977      4.97796         0.020448      0.015473     -0.008332
     12.76746      6.35207      2.55004         0.006294     -0.002266     -0.002040
      8.84410      4.08795      2.55017         0.017691     -0.008356      0.001119
      7.51820      7.87960      7.42200         0.011337     -0.013573     -0.005635
      7.54752      7.85650      0.07994        -0.004329     -0.013063     -0.004189
     10.15142      6.35205      2.54852         0.014040     -0.003813     -0.003662
      2.29753      0.32666      4.98857        -0.016898     -0.006936      0.001644
     14.05152      8.63544      9.88717         0.002311      0.009639     -0.000040
      3.59357      4.10704      9.90077        -0.014746      0.001605      0.018159
      6.20713      8.63668      9.89300         0.001318     -0.004666      0.007020
     11.43781      4.10596      9.89401        -0.002458      0.011705      0.007887
      8.82211      8.63596      9.89118        -0.000490      0.007250      0.003307
     10.13030      1.84136      9.88549        -0.009658      0.008824      0.005129
      2.28539      1.84267      9.89655        -0.000597     -0.008541      0.010595
     11.43598      8.63504      9.88622         0.017793      0.010713      0.002390
     12.74470      6.37071      9.89024        -0.007294      0.010221      0.002141
      4.90052      1.84258      9.89927        -0.003957     -0.010630      0.012657
      7.51489      6.37148      9.89366        -0.001673      0.004094      0.005947
      8.82280      4.10598      9.89128        -0.002044      0.001555      0.004539
      4.89982      6.37181      9.89527         0.002934      0.002475      0.011467
      7.51514      1.84144      9.88741        -0.000996      0.002220      0.002665
      7.52113      3.34881      7.42067        -0.009550      0.003769     -0.002675
      7.54704      3.32562      0.07986        -0.009941      0.005070     -0.005949
      6.21294      1.08397      7.42041        -0.016021      0.010523     -0.005817
      6.24056      1.06063      0.07882        -0.012577      0.010690     -0.008442
     11.46034      4.08756      2.55350        -0.004086      0.002068      0.001081
      3.61500      4.08789      2.56224         0.012981      0.006536      0.006267
      0.98273      1.08500      7.41972        -0.017256      0.005893      0.001586
      1.01016      1.06222      0.08105         0.006086     -0.006216     -0.008297
      6.23130      8.61756      2.55183         0.003714     -0.002577      0.003260
      6.20815      4.10688      9.89675         0.000751      0.000325      0.014292
      7.52518      4.85611      4.98969         0.011925      0.000301      0.005393
     10.12896      6.37071      9.88583         0.013825      0.006984      0.004070
      4.92374      1.82418      2.55946        -0.006900     -0.008242      0.009116
      2.30937      1.82451      2.55939        -0.007422     -0.016818     -0.003693
     14.06257      7.12085      4.98691        -0.001626      0.001458     -0.004114
     11.44163      5.61388      7.41935         0.003551      0.010618     -0.004702
      6.21172      5.61459      7.42817         0.000088      0.002625     -0.002778
     11.46827      5.59057      0.08034         0.013693     -0.009633     -0.006097
      6.23888      5.59142      0.08952         0.014949     -0.008107      0.001530
      7.53637      6.35274      2.55408         0.011307      0.003437      0.005272
      6.23005      4.08797      2.56018        -0.008662     -0.000837      0.004192
      3.60523      2.59090      5.00016        -0.002201      0.010607      0.014924
     10.13551      3.34954      7.41832        -0.011558     -0.009417     -0.002817
     10.16096      3.32550      0.07915         0.021440      0.007704     -0.010455
     10.14164      0.32703      4.98006         0.006196     -0.003291     -0.008875
      8.83265      7.12032      4.98265        -0.009364      0.001922     -0.002478
     10.14034      4.85652      4.98501        -0.002402     -0.013884     -0.001915
      6.21724      7.12027      4.99154         0.016122      0.016517      0.003650
      4.91151      0.32627      4.98732         0.005896      0.005696      0.000278
      4.92224      6.35324      2.55915         0.000268     -0.018889      0.003334
      7.52665      0.32685      4.97538        -0.012772     -0.006345     -0.012405
      8.82676      1.08441      7.41159         0.011037      0.011977     -0.005258
     10.13349      7.87831      7.41394         0.003103      0.001300     -0.001541
      8.85513      1.06099      0.07439        -0.002547     -0.004620     -0.015608
     10.16200      7.85518      0.07902         0.000076      0.000322     -0.012594
      4.91110      4.85599      4.99746        -0.008014     -0.011613      0.009628
     11.45029      2.59185      4.98851        -0.021288     -0.004468     -0.000323
     14.07605      8.61661      2.54479        -0.004844      0.007718     -0.003076
      8.83446      2.59127      4.97813         0.003838      0.010150     -0.010203
      6.22020      2.59080      4.99159        -0.015272      0.002557      0.005658
 -----------------------------------------------------------------------------------
    total drift:                               -0.078459      0.081812     -0.051317


--------------------------------------------------------------------------------------------------------



  FREE ENERGIE OF THE ION-ELECTRON SYSTEM (eV)
  ---------------------------------------------------
  free  energy   TOTEN  =      -510.07642808 eV

  energy  without entropy=     -510.02578654  energy(sigma->0) =     -510.05954757
 


--------------------------------------------------------------------------------------------------------


    POTLOK:  cpu time    0.3438: real time    0.3446


--------------------------------------------------------------------------------------------------------




--------------------------------------------------------------------------------------------------------


  
 reached required accuracy - stopping structural energy minimisation
     LOOP+:  cpu time 2484.3045: real time 2491.0938
    4ORBIT:  cpu time    0.0000: real time    0.0000

 total amount of memory used by VASP MPI-rank0   220879. kBytes
=======================================================================

   base      :      30000. kBytes
   nonlr-proj:      33827. kBytes
   fftplans  :      15222. kBytes
   grid      :      37109. kBytes
   one-center:        622. kBytes
   wavefun   :     104099. kBytes
 
  
  
 General timing and accounting informations for this job:
 ========================================================
  
                  Total CPU time used (sec):     2504.901
                            User time (sec):     2499.430
                          System time (sec):        5.471
                         Elapsed time (sec):     2512.598
  
                   Maximum memory used (kb):      615996.
                   Average memory used (kb):           0.
  
                          Minor page faults:       827583
                          Major page faults:            0
                 Voluntary context switches:         4311
