 vasp.5.4.4.18Apr17-6-g9f103f2a35 (build Nov 30 2020 22:55:02) complex          
  
 executed on             LinuxIFC date 2023.09.07  17:00:48
 running on   40 total cores
 distrk:  each k-point on   40 cores,    1 groups
 distr:  one band on NCORES_PER_BAND=   4 cores,   10 groups


--------------------------------------------------------------------------------------------------------


 INCAR:
 POTCAR:    PAW_PBE Co 02Aug2007                  
 POTCAR:    PAW_PBE Pt 04Feb2005                  
 POTCAR:    PAW_PBE Co 02Aug2007                  
   VRHFIN =Co: d8 s1                                                            
   LEXCH  = PE                                                                  
   EATOM  =   813.3670 eV,   59.7808 Ry                                         
                                                                                
   TITEL  = PAW_PBE Co 02Aug2007                                                
   LULTRA =        F    use ultrasoft PP ?                                      
   IUNSCR =        1    unscreen: 0-lin 1-nonlin 2-no                           
   RPACOR =    2.000    partial core radius                                     
   POMASS =   58.933; ZVAL   =    9.000    mass and valenz                      
   RCORE  =    2.300    outmost cutoff radius                                   
   RWIGS  =    2.460; RWIGS  =    1.302    wigner-seitz radius (au A)           
   ENMAX  =  267.968; ENMIN  =  200.976 eV                                      
   RCLOC  =    1.203    cutoff for local pot                                    
   LCOR   =        T    correct aug charges                                     
   LPAW   =        T    paw PP                                                  
   EAUG   =  477.818                                                            
   DEXC   =    0.000                                                            
   RMAX   =    2.360    core radius for proj-oper                               
   RAUG   =    1.300    factor for augmentation sphere                          
   RDEP   =    2.393    radius for radial grids                                 
   RDEPT  =    1.864    core radius for aug-charge                              
                                                                                
   Atomic configuration                                                         
    9 entries                                                                   
     n  l   j            E        occ.                                          
     1  0  0.50     -7587.6674   2.0000                                         
     2  0  0.50      -893.6084   2.0000                                         
     2  1  1.50      -764.5805   6.0000                                         
     3  0  0.50       -97.5973   2.0000                                         
     3  1  1.50       -60.9648   6.0000                                         
     3  2  2.50        -4.2382   8.0000                                         
     4  0  0.50        -4.3746   1.0000                                         
     4  1  1.50        -4.0817   0.0000                                         
     4  3  2.50        -1.3606   0.0000                                         
   Description                                                                  
     l       E           TYP  RCUT    TYP  RCUT                                 
     2     -4.2382362     23  2.300                                             
     2     -5.5988188     23  2.300                                             
     0     -4.3745797     23  2.300                                             
     0      5.7660125     23  2.300                                             
     1     -2.7211652     23  2.300                                             
     1     16.9860234     23  2.300                                             
  local pseudopotential read in
  partial core-charges read in
  partial kinetic energy density read in
  atomic valenz-charges read in
  non local Contribution for L=           2  read in
    real space projection operators read in
  non local Contribution for L=           2  read in
    real space projection operators read in
  non local Contribution for L=           0  read in
    real space projection operators read in
  non local Contribution for L=           0  read in
    real space projection operators read in
  non local Contribution for L=           1  read in
    real space projection operators read in
  non local Contribution for L=           1  read in
    real space projection operators read in
    PAW grid and wavefunctions read in
 
   number of l-projection  operators is LMAX  =           6
   number of lm-projection operators is LMMAX =          18
 
 POTCAR:    PAW_PBE Pt 04Feb2005                  
   VRHFIN =Pt: s1d9                                                             
   LEXCH  = PE                                                                  
   EATOM  =   729.1176 eV,   53.5886 Ry                                         
                                                                                
   TITEL  = PAW_PBE Pt 04Feb2005                                                
   LULTRA =        F    use ultrasoft PP ?                                      
   IUNSCR =        1    unscreen: 0-lin 1-nonlin 2-no                           
   RPACOR =    2.330    partial core radius                                     
   POMASS =  195.080; ZVAL   =   10.000    mass and valenz                      
   RCORE  =    2.600    outmost cutoff radius                                   
   RWIGS  =    2.750; RWIGS  =    1.455    wigner-seitz radius (au A)           
   ENMAX  =  230.283; ENMIN  =  172.712 eV                                      
   ICORE  =        3    local potential                                         
   LCOR   =        T    correct aug charges                                     
   LPAW   =        T    paw PP                                                  
   EAUG   =  358.966                                                            
   DEXC   =    0.000                                                            
   RMAX   =    2.658    core radius for proj-oper                               
   RAUG   =    1.300    factor for augmentation sphere                          
   RDEP   =    2.761    radius for radial grids                                 
   RDEPT  =    2.203    core radius for aug-charge                              
                                                                                
   Atomic configuration                                                         
   16 entries                                                                   
     n  l   j            E        occ.                                          
     1  0  0.50    -78401.1885   2.0000                                         
     2  0  0.50    -13770.7750   2.0000                                         
     2  1  1.50    -11931.0468   6.0000                                         
     3  0  0.50     -3234.7234   2.0000                                         
     3  1  1.50     -2699.2216   6.0000                                         
     3  2  2.50     -2119.5714  10.0000                                         
     4  0  0.50      -695.1528   2.0000                                         
     4  1  1.50      -519.6034   6.0000                                         
     4  2  2.50      -306.6786  10.0000                                         
     4  3  3.50       -70.1041  14.0000                                         
     5  0  0.50      -101.7747   2.0000                                         
     5  1  1.50       -55.9873   6.0000                                         
     5  2  2.50        -6.1423   9.0000                                         
     6  0  0.50        -5.6573   1.0000                                         
     6  1  1.50        -6.8029   0.0000                                         
     5  3  2.50        -1.3606   0.0000                                         
   Description                                                                  
     l       E           TYP  RCUT    TYP  RCUT                                 
     2     -6.1423404     23  2.500                                             
     2     -7.5029230     23  2.500                                             
     0     -5.6573207     23  2.500                                             
     0      0.7416693     23  2.500                                             
     1     -2.7211652     23  2.600                                             
     1     20.4087390     23  2.600                                             
     3     -1.3605826     23  2.500                                             
  local pseudopotential read in
  partial core-charges read in
  partial kinetic energy density read in
  atomic valenz-charges read in
  non local Contribution for L=           2  read in
    real space projection operators read in
  non local Contribution for L=           2  read in
    real space projection operators read in
  non local Contribution for L=           0  read in
    real space projection operators read in
  non local Contribution for L=           0  read in
    real space projection operators read in
  non local Contribution for L=           1  read in
    real space projection operators read in
  non local Contribution for L=           1  read in
    real space projection operators read in
    PAW grid and wavefunctions read in
 
   number of l-projection  operators is LMAX  =           6
   number of lm-projection operators is LMMAX =          18
 
 Optimization of the real space projectors (new method)

 maximal supplied QI-value         = 16.25
 optimisation between [QCUT,QGAM] = [ 11.86, 23.89] = [ 39.41,159.82] Ry 
 Optimized for a Real-space Cutoff    1.33 Angstroem

   l    n(q)    QCUT    max X(q) W(low)/X(q) W(high)/X(q)  e(spline) 
   2      9    11.864    65.824    0.22E-03    0.53E-03    0.26E-06
   2      9    11.864    61.429    0.22E-03    0.53E-03    0.26E-06
   0      9    11.864    56.174    0.21E-03    0.32E-04    0.15E-06
   0      9    11.864    31.263    0.19E-03    0.30E-04    0.14E-06
   1      9    11.864    19.828    0.63E-04    0.30E-03    0.16E-06
   1      9    11.864    15.139    0.49E-04    0.25E-03    0.13E-06
 Optimization of the real space projectors (new method)

 maximal supplied QI-value         = 14.36
 optimisation between [QCUT,QGAM] = [ 11.92, 23.98] = [ 39.79,161.09] Ry 
 Optimized for a Real-space Cutoff    1.49 Angstroem

   l    n(q)    QCUT    max X(q) W(low)/X(q) W(high)/X(q)  e(spline) 
   2     10    11.920    66.195    0.79E-04    0.18E-03    0.24E-06
   2     10    11.920    64.643    0.81E-04    0.19E-03    0.24E-06
   0     11    11.920    95.520    0.28E-04    0.54E-04    0.18E-06
   0     11    11.920    63.403    0.27E-04    0.52E-04    0.17E-06
   1     10    11.920    19.961    0.18E-04    0.11E-03    0.23E-06
   1     10    11.920    13.289    0.25E-04    0.87E-04    0.19E-06
  PAW_PBE Co 02Aug2007                  :
 energy of atom  1       EATOM= -813.3670
 kinetic energy error for atom=    0.0026 (will be added to EATOM!!)
  PAW_PBE Pt 04Feb2005                  :
 energy of atom  2       EATOM= -729.1176
 kinetic energy error for atom=    0.0021 (will be added to EATOM!!)
 
 
 POSCAR: PtM\(2)                                 
  positions in direct lattice
  No initial velocities read in
 exchange correlation table for  LEXCH =        8
   RHO(1)=    0.500       N(1)  =     2000
   RHO(2)=  100.500       N(2)  =     4000
 


--------------------------------------------------------------------------------------------------------


 ion  position               nearest neighbor table
   1  0.783  0.870  0.326-  29 2.63  40 2.64  57 2.64   3 2.64  56 2.64   2 2.65  20 2.67  39 2.68
                            55 2.68  65 2.72  73 2.73  72 2.74
   2  0.033  0.871  0.327-  56 2.62   3 2.64  33 2.64  23 2.64   1 2.65  41 2.65  49 2.67  39 2.68
                            52 2.68  65 2.73  77 2.73  67 2.73
   3  0.034  0.620  0.327-   9 2.64  41 2.64   2 2.64   1 2.64  40 2.65  15 2.65  60 2.67  12 2.68
                            39 2.68  73 2.72  66 2.72  77 2.73
   4  0.788  0.867  0.024-  30 2.63   6 2.64  58 2.64  59 2.64  42 2.65   5 2.65  62 2.72  21 2.72
                            19 2.73
   5  0.039  0.866  0.024-  43 2.62  24 2.64   6 2.64  58 2.65   4 2.65  34 2.66  54 2.72  35 2.73
                            62 2.73
   6  0.037  0.617  0.024-  10 2.63   4 2.64   5 2.64  43 2.64  42 2.64  18 2.65  54 2.72  32 2.73
                            21 2.73
   7  0.620  0.202  0.126-  22 2.63  37 2.64  11 2.64  62 2.64  45 2.65  19 2.65  55 2.67  63 2.67
                            64 2.69  28 2.72  30 2.73  58 2.73
   8  0.370  0.952  0.126-  25 2.63  35 2.64  19 2.64  38 2.64  37 2.64  44 2.64  53 2.67  50 2.68
                            26 2.69  16 2.72  24 2.73  59 2.74
   9  0.035  0.370  0.327-   3 2.64  33 2.64  47 2.64  13 2.64  15 2.64  40 2.65  12 2.67  61 2.68
                            46 2.68  66 2.72  71 2.72  68 2.73
  10  0.038  0.368  0.024-   6 2.63  18 2.64  42 2.64  34 2.64  16 2.64  48 2.66  38 2.72  32 2.72
                            31 2.73
  11  0.870  0.202  0.127-  31 2.63  35 2.64   7 2.64  38 2.65  62 2.65  22 2.65  49 2.66  61 2.68
                            63 2.68  48 2.72  58 2.72  34 2.73
  12  0.951  0.536  0.227-  61 2.63  39 2.64  20 2.64  51 2.64  60 2.65  46 2.65   9 2.67  21 2.68
                             3 2.68  40 2.68  31 2.68  32 2.68
  13  0.285  0.119  0.327-  57 2.63  29 2.63  33 2.64   9 2.64  23 2.64  15 2.65  46 2.67  26 2.68
                            53 2.69  74 2.72  71 2.73  69 2.73
  14  0.534  0.619  0.327-  27 2.63  41 2.63  57 2.63  40 2.64  23 2.64  47 2.65  36 2.67  50 2.68
                            51 2.69  76 2.72  80 2.73  75 2.74
  15  0.285  0.370  0.327-  41 2.63  27 2.64  29 2.64   9 2.64  13 2.65   3 2.65  60 2.67  46 2.67
                            64 2.68  74 2.72  79 2.72  66 2.72
  16  0.288  0.118  0.024-  18 2.63  34 2.63  10 2.64  24 2.64  30 2.64  59 2.65   8 2.72  37 2.73
                            38 2.74
  17  0.537  0.617  0.023-  28 2.64  42 2.64  59 2.64  48 2.64  43 2.64  24 2.64  25 2.73  22 2.73
                            44 2.74
  18  0.288  0.367  0.024-  28 2.63  16 2.63  10 2.64  43 2.64  30 2.64   6 2.65  37 2.72  45 2.72
                            32 2.74
  19  0.620  0.951  0.126-  21 2.63  37 2.63   8 2.64  25 2.64  62 2.65   7 2.65  55 2.67  20 2.67
                            53 2.69  30 2.72   4 2.73  59 2.73
  20  0.700  0.786  0.226-  53 2.63  51 2.63  50 2.64  12 2.64  39 2.64  55 2.65   1 2.67  19 2.67
                            25 2.68  40 2.68  57 2.68  21 2.68
  21  0.869  0.701  0.127-  19 2.63  31 2.63  32 2.64  25 2.64  54 2.64  62 2.65  39 2.68  12 2.68
                            20 2.68   4 2.72   6 2.73  42 2.73
  22  0.619  0.452  0.126-   7 2.63  25 2.63  45 2.64  44 2.64  31 2.64  11 2.65  63 2.67  51 2.67
                            36 2.69  28 2.72  17 2.73  48 2.73
  23  0.283  0.870  0.327-  33 2.63  41 2.63  57 2.64   2 2.64  14 2.64  13 2.64  26 2.67  52 2.68
                            50 2.69  67 2.72  69 2.73  75 2.73
  24  0.288  0.868  0.023-  59 2.63   5 2.64  34 2.64  16 2.64  17 2.64  43 2.65   8 2.73  44 2.73
                            35 2.74
  25  0.618  0.702  0.126-   8 2.63  44 2.63  22 2.63  31 2.64  21 2.64  19 2.64  51 2.67  20 2.68
                            50 2.69  59 2.72  17 2.73  42 2.73
  26  0.202  0.036  0.227-  50 2.63  53 2.64  49 2.64  52 2.64  61 2.64  46 2.65  38 2.67  23 2.67
                            33 2.68  35 2.68  13 2.68   8 2.69
  27  0.535  0.369  0.327-  14 2.63  56 2.63  47 2.63  15 2.64  29 2.65  41 2.65  64 2.67  36 2.68
                            63 2.68  78 2.72  76 2.73  79 2.73
  28  0.536  0.368  0.024-  18 2.63  43 2.63  17 2.64  30 2.64  48 2.64  58 2.66   7 2.72  22 2.72
                            45 2.74
  29  0.535  0.119  0.327-   1 2.63  13 2.63  56 2.64  15 2.64  57 2.65  27 2.65  64 2.67  53 2.67
                            55 2.69  78 2.72  72 2.73  74 2.73
  30  0.539  0.117  0.024-   4 2.63  28 2.64  58 2.64  16 2.64  18 2.64  59 2.65  19 2.72   7 2.73
                            37 2.74
  31  0.869  0.452  0.127-  11 2.63  21 2.63  25 2.64  22 2.64  38 2.65  32 2.65  61 2.67  12 2.68
                            51 2.68  42 2.72  48 2.73  10 2.73
  32  0.120  0.452  0.127-  38 2.63  54 2.63  45 2.63  21 2.64  31 2.65  37 2.65  46 2.67  60 2.67
                            12 2.68  10 2.72   6 2.73  18 2.74
  33  0.035  0.120  0.326-  23 2.63  47 2.64   2 2.64   9 2.64  13 2.64  56 2.65  61 2.67  26 2.68
                            49 2.68  70 2.72  71 2.73  67 2.73
  34  0.038  0.118  0.024-  16 2.63  10 2.64  24 2.64  48 2.64  58 2.64   5 2.66  35 2.72  11 2.73
                            38 2.73
  35  0.120  0.952  0.127-  44 2.63   8 2.64  11 2.64  62 2.64  38 2.65  54 2.65  52 2.68  26 2.68
                            49 2.68  34 2.72   5 2.73  24 2.74
  36  0.451  0.536  0.227-  50 2.63  60 2.64  51 2.64  64 2.64  52 2.64  63 2.65  45 2.67  14 2.67
                            27 2.68  44 2.68  41 2.68  22 2.69
  37  0.371  0.201  0.127-  19 2.63   7 2.64  45 2.64  38 2.64   8 2.64  32 2.65  53 2.67  64 2.67
                            46 2.69  18 2.72  16 2.73  30 2.74
  38  0.121  0.202  0.127-  32 2.63  37 2.64   8 2.64  11 2.65  31 2.65  35 2.65  26 2.67  46 2.67
                            61 2.68  10 2.72  34 2.73  16 2.74
  39  0.950  0.786  0.227-  55 2.63  12 2.64  20 2.64  60 2.64  52 2.64  49 2.65  62 2.67  21 2.68
                             1 2.68   2 2.68  54 2.68   3 2.68
  40  0.784  0.620  0.327-  47 2.63   1 2.64  57 2.64  14 2.64   9 2.65   3 2.65  12 2.68  20 2.68
                            51 2.68  68 2.72  73 2.73  80 2.73
  41  0.284  0.620  0.327-  23 2.63  14 2.63  15 2.63   3 2.64   2 2.65  27 2.65  60 2.67  52 2.68
                            36 2.68  75 2.72  79 2.72  77 2.73
  42  0.787  0.616  0.024-  10 2.64  17 2.64  48 2.64  59 2.64   6 2.64   4 2.65  31 2.72  21 2.73
                            25 2.73
  43  0.287  0.618  0.024-   5 2.62  28 2.63   6 2.64  17 2.64  18 2.64  24 2.65  44 2.72  45 2.73
                            54 2.74
  44  0.369  0.702  0.126-  35 2.63  25 2.63  22 2.64  45 2.64  54 2.64   8 2.64  50 2.67  36 2.68
                            52 2.69  43 2.72  24 2.73  17 2.74
  45  0.369  0.452  0.127-  32 2.63  22 2.64  37 2.64  54 2.64  44 2.64   7 2.65  64 2.67  36 2.67
                            60 2.69  18 2.72  43 2.73  28 2.74
  46  0.203  0.286  0.227-  64 2.63  60 2.64  53 2.64  26 2.65  61 2.65  12 2.65  15 2.67  13 2.67
                            32 2.67  38 2.67   9 2.68  37 2.69
  47  0.785  0.370  0.326-  40 2.63  27 2.63  33 2.64   9 2.64  14 2.65  56 2.65  63 2.67  51 2.68
                            61 2.68  70 2.72  68 2.73  76 2.73
  48  0.787  0.367  0.024-  58 2.63  42 2.64  17 2.64  34 2.64  28 2.64  10 2.66  11 2.72  31 2.73
                            22 2.73
  49  0.952  0.036  0.226-  52 2.64  63 2.64  55 2.64  26 2.64  61 2.64  39 2.65  11 2.66   2 2.67
                            62 2.68  33 2.68  56 2.68  35 2.68
  50  0.451  0.785  0.227-  36 2.63  26 2.63  52 2.63  51 2.64  20 2.64  53 2.65  44 2.67  57 2.67
                             8 2.68  14 2.68  23 2.69  25 2.69
  51  0.701  0.536  0.226-  63 2.63  20 2.63  50 2.64  36 2.64  12 2.64  61 2.65  25 2.67  22 2.67
                            47 2.68  40 2.68  31 2.68  14 2.69
  52  0.201  0.786  0.227-  50 2.63  49 2.64  60 2.64  36 2.64  26 2.64  39 2.64  54 2.67  35 2.68
                            23 2.68  41 2.68   2 2.68  44 2.69
  53  0.452  0.035  0.227-  20 2.63  26 2.64  55 2.64  46 2.64  64 2.65  50 2.65  37 2.67  29 2.67
                             8 2.67  57 2.68  19 2.69  13 2.69
  54  0.119  0.702  0.127-  62 2.63  32 2.63  45 2.64  44 2.64  21 2.64  35 2.65  52 2.67  60 2.67
                            39 2.68   5 2.72   6 2.72  43 2.74
  55  0.702  0.036  0.226-  39 2.63  64 2.63  53 2.64  49 2.64  63 2.65  20 2.65   7 2.67  19 2.67
                            56 2.67   1 2.68  62 2.68  29 2.69
  56  0.784  0.119  0.326-   2 2.62  27 2.63  29 2.64   1 2.64  33 2.65  47 2.65  63 2.67  55 2.67
                            49 2.68  70 2.72  65 2.73  78 2.73
  57  0.533  0.869  0.327-  13 2.63  14 2.63  23 2.64   1 2.64  40 2.64  29 2.65  50 2.67  53 2.68
                            20 2.68  72 2.72  69 2.73  80 2.73
  58  0.789  0.117  0.024-  48 2.63  30 2.64   4 2.64  34 2.64   5 2.65  28 2.66  62 2.71  11 2.72
                             7 2.73
  59  0.538  0.867  0.023-  24 2.63  17 2.64  42 2.64   4 2.64  30 2.65  16 2.65  25 2.72  19 2.73
                             8 2.74
  60  0.201  0.536  0.227-  36 2.64  46 2.64  52 2.64  39 2.64  12 2.65  64 2.65  15 2.67  41 2.67
                            32 2.67   3 2.67  54 2.67  45 2.69
  61  0.952  0.286  0.227-  12 2.63  63 2.64  49 2.64  26 2.64  46 2.65  51 2.65  31 2.67  33 2.67
                            11 2.68   9 2.68  38 2.68  47 2.68
  62  0.870  0.951  0.126-  54 2.63  35 2.64   7 2.64  19 2.65  21 2.65  11 2.65  39 2.67  49 2.68
                            55 2.68  58 2.71   4 2.72   5 2.73
  63  0.702  0.286  0.226-  51 2.63  64 2.64  49 2.64  61 2.64  36 2.65  55 2.65  22 2.67  56 2.67
                             7 2.67  47 2.67  11 2.68  27 2.68
  64  0.453  0.286  0.227-  46 2.63  55 2.63  63 2.64  36 2.64  53 2.65  60 2.65  45 2.67  27 2.67
                            37 2.67  29 2.67  15 2.68   7 2.69
  65  0.865  0.953  0.429-  78 2.62  73 2.63  77 2.64  72 2.64  70 2.64  67 2.66   1 2.72   2 2.73
                            56 2.73
  66  0.117  0.453  0.429-  74 2.64  73 2.64  71 2.64  68 2.64  77 2.65  79 2.65   9 2.72   3 2.72
                            15 2.72
  67  0.117  0.954  0.429-  70 2.63  71 2.63  77 2.64  75 2.64  69 2.64  65 2.66  23 2.72  33 2.73
                             2 2.73
  68  0.867  0.453  0.429-  76 2.63  73 2.64  80 2.64  71 2.64  66 2.64  70 2.65  40 2.72  47 2.73
                             9 2.73
  69  0.368  0.953  0.430-  72 2.62  80 2.63  75 2.64  67 2.64  71 2.65  74 2.65  13 2.73  57 2.73
                            23 2.73
  70  0.867  0.202  0.429-  67 2.63  78 2.64  76 2.64  65 2.64  71 2.64  68 2.65  56 2.72  47 2.72
                            33 2.72
  71  0.117  0.203  0.429-  67 2.63  66 2.64  68 2.64  70 2.64  69 2.65  74 2.65   9 2.72  13 2.73
                            33 2.73
  72  0.616  0.952  0.430-  69 2.62  80 2.63  65 2.64  74 2.64  73 2.64  78 2.65  57 2.72  29 2.73
                             1 2.74
  73  0.867  0.703  0.429-  65 2.63  77 2.64  68 2.64  66 2.64  72 2.64  80 2.65   3 2.72  40 2.73
                             1 2.73
  74  0.367  0.204  0.430-  78 2.63  66 2.64  79 2.64  72 2.64  71 2.65  69 2.65  15 2.72  13 2.72
                            29 2.73
  75  0.366  0.703  0.430-  79 2.63  77 2.63  67 2.64  69 2.64  80 2.64  76 2.65  41 2.72  23 2.73
                            14 2.74
  76  0.618  0.453  0.430-  68 2.63  80 2.63  79 2.63  70 2.64  78 2.65  75 2.65  14 2.72  27 2.73
                            47 2.73
  77  0.116  0.705  0.430-  75 2.63  73 2.64  65 2.64  67 2.64  66 2.65  79 2.66  41 2.73   3 2.73
                             2 2.73
  78  0.618  0.202  0.429-  65 2.62  74 2.63  70 2.64  79 2.64  76 2.65  72 2.65  29 2.72  27 2.72
                            56 2.73
  79  0.369  0.453  0.430-  75 2.63  76 2.63  74 2.64  78 2.64  66 2.65  77 2.66  15 2.72  41 2.72
                            27 2.73
  80  0.616  0.703  0.430-  72 2.63  76 2.63  69 2.63  68 2.64  75 2.64  73 2.65  14 2.73  57 2.73
                            40 2.73
 
  LATTYP: Found a hexagonal cell.
 ALAT       =    10.5600004196
 C/A-ratio  =     2.0833332505
  
  Lattice vectors:
  
 A1 = (   5.2800002098,  -9.1452286274,   0.0000000000)
 A2 = ( -10.5600004196,   0.0000000000,   0.0000000000)
 A3 = (   0.0000000000,   0.0000000000, -22.0000000000)


Analysis of symmetry for initial positions (statically):
=====================================================================
 Subroutine PRICEL returns:
 Original cell was already a primitive cell.
 

 Routine SETGRP: Setting up the symmetry group for a 
 hexagonal supercell.


 Subroutine GETGRP returns: Found  1 space group operations
 (whereof  1 operations were pure point group operations)
 out of a pool of 24 trial point group operations.


The static configuration has the point symmetry C_1 .


Analysis of symmetry for dynamics (positions and initial velocities):
=====================================================================
 Subroutine PRICEL returns:
 Original cell was already a primitive cell.
 

 Routine SETGRP: Setting up the symmetry group for a 
 hexagonal supercell.


 Subroutine GETGRP returns: Found  1 space group operations
 (whereof  1 operations were pure point group operations)
 out of a pool of 24 trial point group operations.


The dynamic configuration has the point symmetry C_1 .


Analysis of structural, dynamic, and magnetic symmetry:
=====================================================================
 Subroutine PRICEL returns:
 Original cell was already a primitive cell.
 

 Routine SETGRP: Setting up the symmetry group for a 
 hexagonal supercell.


 Subroutine GETGRP returns: Found  1 space group operations
 (whereof  1 operations were pure point group operations)
 out of a pool of 24 trial point group operations.


The magnetic configuration has the point symmetry C_1 .


 Subroutine INISYM returns: Found  1 space group operations
 (whereof  1 operations are pure point group operations),
 and found     1 'primitive' translations

 
 
 KPOINTS: mesh auto                               

Automatic generation of k-mesh.
Space group operators:
 irot       det(A)        alpha          n_x          n_y          n_z        tau_x        tau_y        tau_z
    1     1.000000     0.000001     1.000000     0.000000     0.000000     0.000000     0.000000     0.000000
 
 Subroutine IBZKPT returns following result:
 ===========================================
 
 Found      4 irreducible k-points:
 
 Following reciprocal coordinates:
            Coordinates               Weight
  0.000000  0.000000  0.000000      1.000000
  0.500000  0.000000  0.000000      1.000000
  0.000000  0.500000  0.000000      1.000000
  0.500000  0.500000  0.000000      1.000000
 
 Following cartesian coordinates:
            Coordinates               Weight
  0.000000  0.000000  0.000000      1.000000
  0.047348 -0.027337  0.000000      1.000000
  0.000000  0.054673  0.000000      1.000000
  0.047348  0.027337  0.000000      1.000000
 


--------------------------------------------------------------------------------------------------------




 Dimension of arrays:
   k-points           NKPTS =      4   k-points in BZ     NKDIM =      4   number of bands    NBANDS=    490
   number of dos      NEDOS =    301   number of ions     NIONS =     80
   non local maximal  LDIM  =      6   non local SUM 2l+1 LMDIM =     18
   total plane-waves  NPLWV = ******
   max r-space proj   IRMAX =   7802   max aug-charges    IRDMAX=  33988
   dimension x,y,z NGX =    84 NGY =   84 NGZ =  168
   dimension x,y,z NGXF=   168 NGYF=  168 NGZF=  336
   support grid    NGXF=   168 NGYF=  168 NGZF=  336
   ions per type =              64  16
   NGX,Y,Z   is equivalent  to a cutoff of  13.22, 13.22, 12.70 a.u.
   NGXF,Y,Z  is equivalent  to a cutoff of  26.45, 26.45, 25.39 a.u.

 SYSTEM =  Pt111                                   
 POSCAR =  PtM\(2)                                 

 Startparameter for this run:
   NWRITE =      2    write-flag & timer
   PREC   = accura    normal or accurate (medium, high low for compatibility)
   ISTART =      0    job   : 0-new  1-cont  2-samecut
   ICHARG =      2    charge: 1-file 2-atom 10-const
   ISPIN  =      2    spin polarized calculation?
   LNONCOLLINEAR =      F non collinear calculations
   LSORBIT =      F    spin-orbit coupling
   INIWAV =      1    electr: 0-lowe 1-rand  2-diag
   LASPH  =      F    aspherical Exc in radial PAW
   METAGGA=      F    non-selfconsistent MetaGGA calc.

 Electronic Relaxation 1
   ENCUT  =  550.0 eV  40.42 Ry    6.36 a.u.  20.19 20.19 42.07*2*pi/ulx,y,z
   ENINI  =  550.0     initial cutoff
   ENAUG  =  477.8 eV  augmentation charge cutoff
   NELM   =    200;   NELMIN=  2; NELMDL= -5     # of ELM steps 
   EDIFF  = 0.1E-04   stopping-criterion for ELM
   LREAL  =      T    real-space projection
   NLSPLINE    = F    spline interpolate recip. space projectors
   LCOMPAT=      F    compatible to vasp.4.4
   GGA_COMPAT  = T    GGA compatible to vasp.4.4-vasp.4.6
   LMAXPAW     = -100 max onsite density
   LMAXMIX     =    2 max onsite mixed and CHGCAR
   VOSKOWN=      0    Vosko Wilk Nusair interpolation
   ROPT   =   -0.00025  -0.00025
 Ionic relaxation
   EDIFFG = -.5E-01   stopping-criterion for IOM
   NSW    =    300    number of steps for IOM
   NBLOCK =      1;   KBLOCK =    300    inner block; outer block 
   IBRION =      2    ionic relax: 0-MD 1-quasi-New 2-CG
   NFREE  =      1    steps in history (QN), initial steepest desc. (CG)
   ISIF   =      2    stress and relaxation
   IWAVPR =     11    prediction:  0-non 1-charg 2-wave 3-comb
   ISYM   =      2    0-nonsym 1-usesym 2-fastsym
   LCORR  =      T    Harris-Foulkes like correction to forces

   POTIM  = 0.5000    time-step for ionic-motion
   TEIN   =    0.0    initial temperature
   TEBEG  =    0.0;   TEEND  =   0.0 temperature during run
   SMASS  =  -3.00    Nose mass-parameter (am)
   estimated Nose-frequenzy (Omega)   =  0.10E-29 period in steps =****** mass=  -0.255E-26a.u.
   SCALEE = 1.0000    scale energy and forces
   NPACO  =    256;   APACO  = 16.0  distance and # of slots for P.C.
   PSTRESS=    0.0 pullay stress

  Mass of Ions in am
   POMASS =  58.93195.08
  Ionic Valenz
   ZVAL   =   9.00 10.00
  Atomic Wigner-Seitz radii
   RWIGS  =  -1.00 -1.00
  virtual crystal weights 
   VCA    =   1.00  1.00
   NELECT =     736.0000    total number of electrons
   NUPDOWN=      -1.0000    fix difference up-down

 DOS related values:
   EMIN   =  10.00;   EMAX   =-10.00  energy-range for DOS
   EFERMI =   0.00
   ISMEAR =     1;   SIGMA  =   0.10  broadening in eV -4-tet -1-fermi 0-gaus

 Electronic relaxation 2 (details)
   IALGO  =     68    algorithm
   LDIAG  =      T    sub-space diagonalisation (order eigenvalues)
   LSUBROT=      F    optimize rotation matrix (better conditioning)
   TURBO    =      0    0=normal 1=particle mesh
   IRESTART =      0    0=no restart 2=restart with 2 vectors
   NREBOOT  =      0    no. of reboots
   NMIN     =      0    reboot dimension
   EREF     =   0.00    reference energy to select bands
   IMIX   =      4    mixing-type and parameters
     AMIX     =   0.40;   BMIX     =  1.00
     AMIX_MAG =   1.60;   BMIX_MAG =  1.00
     AMIN     =   0.10
     WC   =   100.;   INIMIX=   1;  MIXPRE=   1;  MAXMIX= -45

 Intra band minimization:
   WEIMIN = 0.0010     energy-eigenvalue tresh-hold
   EBREAK =  0.51E-08  absolut break condition
   DEPER  =   0.30     relativ break condition  

   TIME   =   0.40     timestep for ELM

  volume/ion in A,a.u.               =      26.56       179.22
  Fermi-wavevector in a.u.,A,eV,Ry     =   1.149760  2.172731 17.986182  1.321947
  Thomas-Fermi vector in A             =   2.286427
 
 Write flags
   LWAVE        =      F    write WAVECAR
   LDOWNSAMPLE  =      F    k-point downsampling of WAVECAR
   LCHARG       =      F    write CHGCAR
   LVTOT        =      F    write LOCPOT, total local potential
   LVHAR        =      F    write LOCPOT, Hartree potential only
   LELF         =      F    write electronic localiz. function (ELF)
   LORBIT       =      0    0 simple, 1 ext, 2 COOP (PROOUT), +10 PAW based schemes


 Dipole corrections
   LMONO  =      F    monopole corrections only (constant potential shift)
   LDIPOL =      F    correct potential (dipole corrections)
   IDIPOL =      0    1-x, 2-y, 3-z, 4-all directions 
   EPSILON=  1.0000000 bulk dielectric constant

 Exchange correlation treatment:
   GGA     =    --    GGA type
   LEXCH   =     8    internal setting for exchange type
   VOSKOWN=      0    Vosko Wilk Nusair interpolation
   LHFCALC =     F    Hartree Fock is set to
   LHFONE  =     F    Hartree Fock one center treatment
   AEXX    =    0.0000 exact exchange contribution

 Linear response parameters
   LEPSILON=     F    determine dielectric tensor
   LRPA    =     F    only Hartree local field effects (RPA)
   LNABLA  =     F    use nabla operator in PAW spheres
   LVEL    =     F    velocity operator in full k-point grid
   LINTERFAST=   F  fast interpolation
   KINTER  =     0    interpolate to denser k-point grid
   CSHIFT  =0.1000    complex shift for real part using Kramers Kronig
   OMEGAMAX=  -1.0    maximum frequency
   DEG_THRESHOLD= 0.2000000E-02 threshold for treating states as degnerate
   RTIME   =   -0.100 relaxation time in fs
  (WPLASMAI=    0.000 imaginary part of plasma frequency in eV, 0.658/RTIME)
   DFIELD  = 0.0000000 0.0000000 0.0000000 field for delta impulse in time
 
 Orbital magnetization related:
   ORBITALMAG=     F  switch on orbital magnetization
   LCHIMAG   =     F  perturbation theory with respect to B field
   DQ        =  0.001000  dq finite difference perturbation B field
   LLRAUG    =     F  two centre corrections for induced B field



--------------------------------------------------------------------------------------------------------


 conjugate gradient relaxation of ions
 charge density and potential will be updated during run
 spin polarized calculation
 RMM-DIIS sequential band-by-band and
  variant of blocked Davidson during initial phase
 perform sub-space diagonalisation
    before iterative eigenvector-optimisation
 modified Broyden-mixing scheme, WC =      100.0
 initial mixing is a Kerker type mixing with AMIX =  0.4000 and BMIX =      1.0000
 Hartree-type preconditioning will be used
 using additional bands          122
 real space projection scheme for non local part
 use partial core corrections
 calculate Harris-corrections to forces 
   (improved forces if not selfconsistent)
 use gradient corrections 
 use of overlap-Matrix (Vanderbilt PP)
 Methfessel and Paxton  Order N= 1 SIGMA  =   0.10


--------------------------------------------------------------------------------------------------------


  energy-cutoff  :      550.00
  volume of cell :     2124.62
      direct lattice vectors                 reciprocal lattice vectors
    10.560000420  0.000000000  0.000000000     0.094696966 -0.054673319  0.000000000
     5.280000210  9.145228627  0.000000000     0.000000000  0.109346638  0.000000000
     0.000000000  0.000000000 22.000000000     0.000000000  0.000000000  0.045454545

  length of vectors
    10.560000420 10.560000420 22.000000000     0.109346638  0.109346638  0.045454545


 
 k-points in units of 2pi/SCALE and weight: mesh auto                               
   0.00000000  0.00000000  0.00000000       0.250
   0.04734848 -0.02733666  0.00000000       0.250
   0.00000000  0.05467332  0.00000000       0.250
   0.04734848  0.02733666  0.00000000       0.250
 
 k-points in reciprocal lattice and weights: mesh auto                               
   0.00000000  0.00000000  0.00000000       0.250
   0.50000000  0.00000000  0.00000000       0.250
   0.00000000  0.50000000  0.00000000       0.250
   0.50000000  0.50000000  0.00000000       0.250
 
 position of ions in fractional coordinates (direct lattice) 
   0.78284996  0.86957995  0.32632000
   0.03273001  0.87076996  0.32655001
   0.03387001  0.62015995  0.32688999
   0.78771009  0.86721997  0.02370000
   0.03934001  0.86613998  0.02391000
   0.03714000  0.61724998  0.02419000
   0.62021998  0.20185999  0.12644000
   0.37006005  0.95152992  0.12649000
   0.03483001  0.36989000  0.32684001
   0.03802001  0.36805999  0.02433000
   0.87041005  0.20184999  0.12664001
   0.95092000  0.53621999  0.22694000
   0.28503001  0.11936999  0.32701000
   0.53358003  0.61943999  0.32695001
   0.28527004  0.36987000  0.32708001
   0.28780003  0.11808000  0.02402000
   0.53736002  0.61703996  0.02312000
   0.28819999  0.36686000  0.02440000
   0.61985002  0.95118996  0.12626000
   0.70048997  0.78561997  0.22644999
   0.86877999  0.70140998  0.12654001
   0.61861993  0.45202000  0.12646000
   0.28336005  0.86977997  0.32688999
   0.28794000  0.86800995  0.02347000
   0.61849001  0.70150998  0.12622000
   0.20249999  0.03565000  0.22678999
   0.53547001  0.36915998  0.32677999
   0.53629998  0.36801002  0.02381000
   0.53469004  0.11891000  0.32666001
   0.53878997  0.11661000  0.02376000
   0.86919996  0.45179001  0.12666000
   0.11968001  0.45192000  0.12732001
   0.03461000  0.11987999  0.32642000
   0.03843000  0.11810000  0.02425000
   0.12033001  0.95177999  0.12659999
   0.45098005  0.53623996  0.22687000
   0.37096001  0.20126999  0.12691000
   0.12071001  0.20224000  0.12716000
   0.95050000  0.78609993  0.22654999
   0.78353006  0.61970001  0.32677000
   0.28375002  0.62012997  0.32715000
   0.78728007  0.61647997  0.02363000
   0.28703002  0.61755000  0.02399000
   0.36896999  0.70186000  0.12639999
   0.36908997  0.45183000  0.12708000
   0.20324002  0.28576999  0.22721000
   0.78478991  0.36956998  0.32648000
   0.78704001  0.36690000  0.02398000
   0.95192005  0.03617000  0.22627000
   0.45074007  0.78549994  0.22662000
   0.70059006  0.53619996  0.22649000
   0.20094005  0.78605993  0.22678999
   0.45231000  0.03531000  0.22658998
   0.11905002  0.70150998  0.12699000
   0.70180998  0.03576000  0.22611999
   0.78438996  0.11921000  0.32618000
   0.53328004  0.86909995  0.32664999
   0.78885006  0.11683999  0.02396000
   0.53776005  0.86651998  0.02337000
   0.20143000  0.53623996  0.22729999
   0.95232003  0.28637999  0.22665999
   0.87037996  0.95122000  0.12630001
   0.70211000  0.28622998  0.22641999
   0.45272999  0.28568000  0.22686000
   0.86535009  0.95290997  0.42912999
   0.11741000  0.45325000  0.42937998
   0.11681002  0.95393996  0.42944999
   0.86686991  0.45345001  0.42940001
   0.36756004  0.95262998  0.42976999
   0.86727995  0.20221999  0.42879001
   0.11711998  0.20317999  0.42937998
   0.61592998  0.95229002  0.42950999
   0.86738994  0.70307999  0.42943001
   0.36740001  0.20387999  0.42958996
   0.36596005  0.70345993  0.43000997
   0.61795004  0.45283996  0.42962001
   0.11618000  0.70459003  0.42960002
   0.61762001  0.20224000  0.42933000
   0.36855998  0.45303998  0.42963002
   0.61645998  0.70286000  0.42978998
 
 position of ions in cartesian coordinates  (Angst):
  12.85827827  7.95250750  7.17903996
   4.94329452  7.96339035  7.18410015
   3.63211202  5.67150450  7.19157982
  12.89714050  7.93092490  0.52140004
   4.98864985  7.92104817  0.52602004
   3.65127850  5.64489221  0.53218002
   7.61534405  1.84605575  2.78168011
   8.93191242  8.70195866  2.78277993
   2.32082415  3.38272858  7.19048024
   2.34484815  3.36599278  0.53525996
  10.25729847  1.84596432  2.78608013
  12.87295723  4.90385437  4.99268007
   3.64019061  1.09166587  7.19422007
   8.90524864  5.66492033  7.19290018
   4.96536541  3.38254571  7.19576024
   3.66263079  1.07986855  0.52844000
   8.93249321  5.64297152  0.50864000
   4.98041296  3.35501862  0.53679998
  11.56789971  8.69884968  2.77771998
  11.54524803  7.18467427  4.98189974
  12.87776184  6.41455459  2.78388024
   8.91929245  4.13382625  2.78212000
   7.58472061  7.95433664  7.19157982
   7.62373924  7.93814945  0.51634002
  10.23522759  6.41546917  2.77683998
   2.32663202  0.32602739  4.98937989
   7.60372829  3.37605238  7.18915987
   7.60642100  3.36553573  0.52381998
   6.27417183  1.08745909  7.18652011
   6.30532312  1.06642508  0.52271998
  11.56420326  4.13172292  2.78652000
   3.64995861  4.13291168  2.80104018
   0.99844801  1.09632993  7.18124009
   1.02938890  1.08005154  0.53350002
   6.29608344  8.70424557  2.78519989
   7.59369660  4.90403700  4.99113989
   4.98004341  1.84066009  2.79202009
   2.34252501  1.84953106  2.79751991
  14.18788814  7.18906355  4.98409987
  11.54609394  5.66729832  7.18894004
   6.27068663  5.67123032  7.19729996
  11.56869221  5.63785029  0.51986002
   6.29170131  5.64763594  0.52778000
   7.60214424  6.41867017  2.78079987
   6.28325272  4.13208866  2.79575991
   3.65508031  2.61343193  4.99862004
  10.23871136  3.37980199  7.18255998
  10.24837493  3.35538435  0.52756000
  10.24325371  0.33078289  4.97794009
   8.90725517  7.18357658  4.98564004
  10.22936725  4.90367126  4.98277998
   6.27232361  7.18869781  4.98937989
   4.96283055  0.32291803  4.98497963
   4.96114111  6.41546917  2.79378009
   7.59992646  0.32703337  4.97463989
   8.91258716  1.09020269  7.17596007
  10.22028541  7.94811773  7.18629980
   8.94717216  1.06852841  0.52712000
  10.25397206  7.92452335  0.51414000
   4.95844793  4.90403700  5.00059987
  11.56858634  2.61901045  4.98651982
  14.21365452  8.69912434  2.77860022
   8.92557621  2.61763859  4.98123980
   6.28921938  2.61260891  4.99092007
  14.16946220  8.71457958  9.44085980
   3.63300968  4.14507485  9.44635963
   6.27031708  8.72399902  9.44789982
  11.54836273  4.14690399  9.44680024
   8.91132068  8.71201896  9.45493985
  10.22619820  1.84934807  9.43338013
   2.30957747  1.85812748  9.44635963
  11.53231239  8.70890999  9.44921971
  12.87190056  6.42982722  9.44746018
   4.95623063  1.86452913  9.45097923
   7.57880688  6.43330193  9.46021938
   8.91654777  4.14132499  9.45164013
   4.94709634  6.44363689  9.45120048
   7.58989478  1.84953106  9.44526004
   6.28404475  4.14315415  9.45186042
  10.22091865  6.42781544  9.45537949
 


--------------------------------------------------------------------------------------------------------


 k-point  1 :   0.0000 0.0000 0.0000  plane waves:   62167
 k-point  2 :   0.5000 0.0000 0.0000  plane waves:   62242
 k-point  3 :   0.0000 0.5000 0.0000  plane waves:   62242
 k-point  4 :   0.5000 0.5000 0.0000  plane waves:   62242

 maximum and minimum number of plane-waves per node :     15586    15521

 maximum number of plane-waves:     62242
 maximum index in each direction: 
   IXMAX=   20   IYMAX=   20   IZMAX=   42
   IXMIN=  -20   IYMIN=  -20   IZMIN=  -42


 real space projection operators:
  total allocation   :      64275.61 KBytes
  max/ min on nodes  :      16071.75      16061.06


 parallel 3D FFT for wavefunctions:
    minimum data exchange during FFTs selected (reduces bandwidth)
 parallel 3D FFT for charge:
    minimum data exchange during FFTs selected (reduces bandwidth)


 total amount of memory used by VASP MPI-rank0   225254. kBytes
=======================================================================

   base      :      30000. kBytes
   nonlr-proj:      30369. kBytes
   fftplans  :      17962. kBytes
   grid      :      46451. kBytes
   one-center:        622. kBytes
   wavefun   :      99850. kBytes
 
     INWAV:  cpu time    0.0000: real time    0.0000
 Broyden mixing: mesh for mixing (old mesh)
   NGX = 41   NGY = 41   NGZ = 85
  (NGX  =168   NGY  =168   NGZ  =336)
  gives a total of 142885 points

 initial charge density was supplied:
 charge density of overlapping atoms calculated
 number of electron     736.0000000 magnetization      80.0000000
 keeping initial charge density in first step


--------------------------------------------------------------------------------------------------------


 Maximum index for non-local projection operator         1901
 Maximum index for augmentation-charges         1521 (set IRDMAX)


--------------------------------------------------------------------------------------------------------


 First call to EWALD:  gamma=   0.138
 Maximum number of real-space cells 4x 4x 2
 Maximum number of reciprocal cells 2x 2x 4

    FEWALD:  cpu time    0.0038: real time    0.0038


--------------------------------------- Iteration      1(   1)  ---------------------------------------


    POTLOK:  cpu time    0.4172: real time    0.4215
    SETDIJ:  cpu time    0.0315: real time    0.0320
     EDDAV:  cpu time   52.7332: real time   52.8979
       DOS:  cpu time    0.0017: real time    0.0018
    --------------------------------------------
      LOOP:  cpu time   53.1837: real time   53.3532

 eigenvalue-minimisations  :  7840
 total energy-change (2. order) : 0.6264879E+04  (-0.3209137E+05)
 number of electron     736.0000000 magnetization      80.0000000
 augmentation part      736.0000000 magnetization      80.0000000

 Free energy of the ion-electron system (eV)
  ---------------------------------------------------
  alpha Z        PSCENC =      1570.31101805
  Ewald energy   TEWEN  =    172849.31925260
  -Hartree energ DENC   =   -237192.35685869
  -exchange      EXHF   =         0.00000000
  -V(xc)+E(xc)   XCENC  =      1089.57099366
  PAW double counting   =     57274.28381888   -60215.15157441
  entropy T*S    EENTRO =        -0.00342405
  eigenvalues    EBANDS =      7167.73381460
  atomic energy  EATOM  =     63721.17209430
  Solvation  Ediel_sol  =         0.00000000
  ---------------------------------------------------
  free energy    TOTEN  =      6264.87913494 eV

  energy without entropy =     6264.88255899  energy(sigma->0) =     6264.88027629


--------------------------------------------------------------------------------------------------------




--------------------------------------- Iteration      1(   2)  ---------------------------------------


     EDDAV:  cpu time   52.7153: real time   52.8684
       DOS:  cpu time    0.0018: real time    0.0018
    --------------------------------------------
      LOOP:  cpu time   52.7170: real time   52.8701

 eigenvalue-minimisations  :  7840
 total energy-change (2. order) :-0.5996440E+04  (-0.5629134E+04)
 number of electron     736.0000000 magnetization      80.0000000
 augmentation part      736.0000000 magnetization      80.0000000

 Free energy of the ion-electron system (eV)
  ---------------------------------------------------
  alpha Z        PSCENC =      1570.31101805
  Ewald energy   TEWEN  =    172849.31925260
  -Hartree energ DENC   =   -237192.35685869
  -exchange      EXHF   =         0.00000000
  -V(xc)+E(xc)   XCENC  =      1089.57099366
  PAW double counting   =     57274.28381888   -60215.15157441
  entropy T*S    EENTRO =         0.00773814
  eigenvalues    EBANDS =      1171.28263946
  atomic energy  EATOM  =     63721.17209430
  Solvation  Ediel_sol  =         0.00000000
  ---------------------------------------------------
  free energy    TOTEN  =       268.43912199 eV

  energy without entropy =      268.43138385  energy(sigma->0) =      268.43654261


--------------------------------------------------------------------------------------------------------




--------------------------------------- Iteration      1(   3)  ---------------------------------------


     EDDAV:  cpu time   56.4939: real time   56.6435
       DOS:  cpu time    0.0020: real time    0.0020
    --------------------------------------------
      LOOP:  cpu time   56.4959: real time   56.6455

 eigenvalue-minimisations  :  8580
 total energy-change (2. order) :-0.7456023E+03  (-0.5802715E+03)
 number of electron     736.0000000 magnetization      80.0000000
 augmentation part      736.0000000 magnetization      80.0000000

 Free energy of the ion-electron system (eV)
  ---------------------------------------------------
  alpha Z        PSCENC =      1570.31101805
  Ewald energy   TEWEN  =    172849.31925260
  -Hartree energ DENC   =   -237192.35685869
  -exchange      EXHF   =         0.00000000
  -V(xc)+E(xc)   XCENC  =      1089.57099366
  PAW double counting   =     57274.28381888   -60215.15157441
  entropy T*S    EENTRO =         0.01576694
  eigenvalues    EBANDS =       425.67235343
  atomic energy  EATOM  =     63721.17209430
  Solvation  Ediel_sol  =         0.00000000
  ---------------------------------------------------
  free energy    TOTEN  =      -477.16313524 eV

  energy without entropy =     -477.17890219  energy(sigma->0) =     -477.16839089


--------------------------------------------------------------------------------------------------------




--------------------------------------- Iteration      1(   4)  ---------------------------------------


     EDDAV:  cpu time   65.1797: real time   65.3694
       DOS:  cpu time    0.0021: real time    0.0021
    --------------------------------------------
      LOOP:  cpu time   65.1818: real time   65.3715

 eigenvalue-minimisations  : 10340
 total energy-change (2. order) :-0.9530684E+02  (-0.8331889E+02)
 number of electron     736.0000000 magnetization      80.0000000
 augmentation part      736.0000000 magnetization      80.0000000

 Free energy of the ion-electron system (eV)
  ---------------------------------------------------
  alpha Z        PSCENC =      1570.31101805
  Ewald energy   TEWEN  =    172849.31925260
  -Hartree energ DENC   =   -237192.35685869
  -exchange      EXHF   =         0.00000000
  -V(xc)+E(xc)   XCENC  =      1089.57099366
  PAW double counting   =     57274.28381888   -60215.15157441
  entropy T*S    EENTRO =         0.06271728
  eigenvalues    EBANDS =       330.31855854
  atomic energy  EATOM  =     63721.17209430
  Solvation  Ediel_sol  =         0.00000000
  ---------------------------------------------------
  free energy    TOTEN  =      -572.46997978 eV

  energy without entropy =     -572.53269707  energy(sigma->0) =     -572.49088555


--------------------------------------------------------------------------------------------------------




--------------------------------------- Iteration      1(   5)  ---------------------------------------


     EDDAV:  cpu time   65.8562: real time   66.0286
       DOS:  cpu time    0.0022: real time    0.0022
    CHARGE:  cpu time    4.2706: real time    4.2808
    MIXING:  cpu time    0.0114: real time    0.0122
    --------------------------------------------
      LOOP:  cpu time   70.1404: real time   70.3238

 eigenvalue-minimisations  : 10460
 total energy-change (2. order) :-0.3501618E+01  (-0.3356211E+01)
 number of electron     736.0000115 magnetization      81.3824131
 augmentation part      338.5785926 magnetization      57.7242388

 Broyden mixing:
  rms(total) = 0.88101E+01    rms(broyden)= 0.88101E+01
  rms(prec ) = 0.92501E+01
  weight for this iteration     100.00

 Free energy of the ion-electron system (eV)
  ---------------------------------------------------
  alpha Z        PSCENC =      1570.31101805
  Ewald energy   TEWEN  =    172849.31925260
  -Hartree energ DENC   =   -237192.35685869
  -exchange      EXHF   =         0.00000000
  -V(xc)+E(xc)   XCENC  =      1089.57099366
  PAW double counting   =     57274.28381888   -60215.15157441
  entropy T*S    EENTRO =         0.03736302
  eigenvalues    EBANDS =       326.84229476
  atomic energy  EATOM  =     63721.17209430
  Solvation  Ediel_sol  =         0.00000000
  ---------------------------------------------------
  free energy    TOTEN  =      -575.97159784 eV

  energy without entropy =     -576.00896086  energy(sigma->0) =     -575.98405218


--------------------------------------------------------------------------------------------------------




--------------------------------------- Iteration      1(   6)  ---------------------------------------


    POTLOK:  cpu time    0.4132: real time    0.4145
    SETDIJ:  cpu time    0.0310: real time    0.0311
    EDDIAG:  cpu time    9.6075: real time    9.6306
  RMM-DIIS:  cpu time   33.4060: real time   33.4910
    ORTHCH:  cpu time    0.9580: real time    0.9607
       DOS:  cpu time    0.0020: real time    0.0020
    CHARGE:  cpu time    4.2136: real time    4.2260
    MIXING:  cpu time    0.0107: real time    0.0109
    --------------------------------------------
      LOOP:  cpu time   48.6419: real time   48.7666

 eigenvalue-minimisations  :  7862
 total energy-change (2. order) :-0.1268153E+03  (-0.1130978E+03)
 number of electron     736.0000119 magnetization      80.8282381
 augmentation part      400.8384863 magnetization      74.0760720

 Broyden mixing:
  rms(total) = 0.16650E+02    rms(broyden)= 0.16650E+02
  rms(prec ) = 0.19154E+02
  weight for this iteration     100.00

 eigenvalues of (default mixing * dielectric matrix)
  average eigenvalue GAMMA=   0.2821
  0.2821

 Free energy of the ion-electron system (eV)
  ---------------------------------------------------
  alpha Z        PSCENC =      1570.31101805
  Ewald energy   TEWEN  =    172849.31925260
  -Hartree energ DENC   =   -236134.39574340
  -exchange      EXHF   =         0.00000000
  -V(xc)+E(xc)   XCENC  =      1039.27788175
  PAW double counting   =     60062.73796566   -62642.93563307
  entropy T*S    EENTRO =        -0.07193962
  eigenvalues    EBANDS =     -1168.20183184
  atomic energy  EATOM  =     63721.17209430
  Solvation  Ediel_sol  =         0.00000000
  ---------------------------------------------------
  free energy    TOTEN  =      -702.78693558 eV

  energy without entropy =     -702.71499596  energy(sigma->0) =     -702.76295571


--------------------------------------------------------------------------------------------------------




--------------------------------------- Iteration      1(   7)  ---------------------------------------


    POTLOK:  cpu time    0.3959: real time    0.3968
    SETDIJ:  cpu time    0.0311: real time    0.0311
    EDDIAG:  cpu time    9.6216: real time    9.6499
  RMM-DIIS:  cpu time   33.3070: real time   33.4034
    ORTHCH:  cpu time    1.0915: real time    1.0945
       DOS:  cpu time    0.0019: real time    0.0019
    CHARGE:  cpu time    4.1819: real time    4.1939
    MIXING:  cpu time    0.0093: real time    0.0093
    --------------------------------------------
      LOOP:  cpu time   48.6401: real time   48.7809

 eigenvalue-minimisations  :  7877
 total energy-change (2. order) : 0.2175999E+02  (-0.3667990E+02)
 number of electron     736.0000159 magnetization      80.4763658
 augmentation part      390.6638590 magnetization      64.9190469

 Broyden mixing:
  rms(total) = 0.15417E+02    rms(broyden)= 0.15417E+02
  rms(prec ) = 0.19194E+02
  weight for this iteration     100.00

 eigenvalues of (default mixing * dielectric matrix)
  average eigenvalue GAMMA=   0.3518
  0.5783  0.1253

 Free energy of the ion-electron system (eV)
  ---------------------------------------------------
  alpha Z        PSCENC =      1570.31101805
  Ewald energy   TEWEN  =    172849.31925260
  -Hartree energ DENC   =   -235845.59723178
  -exchange      EXHF   =         0.00000000
  -V(xc)+E(xc)   XCENC  =      1042.10312115
  PAW double counting   =     61054.77989105   -63742.81190320
  entropy T*S    EENTRO =         0.03284269
  eigenvalues    EBANDS =     -1330.33602577
  atomic energy  EATOM  =     63721.17209430
  Solvation  Ediel_sol  =         0.00000000
  ---------------------------------------------------
  free energy    TOTEN  =      -681.02694092 eV

  energy without entropy =     -681.05978361  energy(sigma->0) =     -681.03788848


--------------------------------------------------------------------------------------------------------




--------------------------------------- Iteration      1(   8)  ---------------------------------------


    POTLOK:  cpu time    0.3979: real time    0.3993
    SETDIJ:  cpu time    0.0311: real time    0.0312
    EDDIAG:  cpu time    9.5930: real time    9.6210
  RMM-DIIS:  cpu time   33.2193: real time   33.3164
    ORTHCH:  cpu time    0.9628: real time    0.9656
       DOS:  cpu time    0.0020: real time    0.0020
    CHARGE:  cpu time    4.2699: real time    4.2806
    MIXING:  cpu time    0.0099: real time    0.0099
    --------------------------------------------
      LOOP:  cpu time   48.4860: real time   48.6261

 eigenvalue-minimisations  :  7864
 total energy-change (2. order) :-0.9369806E+02  (-0.1268564E+02)
 number of electron     736.0000125 magnetization      80.0600002
 augmentation part      379.1401676 magnetization      72.7375283

 Broyden mixing:
  rms(total) = 0.18781E+02    rms(broyden)= 0.18781E+02
  rms(prec ) = 0.25904E+02
  weight for this iteration     100.00

 eigenvalues of (default mixing * dielectric matrix)
  average eigenvalue GAMMA=   0.2547
  0.5451  0.1301  0.0888

 Free energy of the ion-electron system (eV)
  ---------------------------------------------------
  alpha Z        PSCENC =      1570.31101805
  Ewald energy   TEWEN  =    172849.31925260
  -Hartree energ DENC   =   -236538.76806273
  -exchange      EXHF   =         0.00000000
  -V(xc)+E(xc)   XCENC  =      1048.03622635
  PAW double counting   =     62681.27954066   -65503.03747221
  entropy T*S    EENTRO =        -0.03860602
  eigenvalues    EBANDS =      -602.99899454
  atomic energy  EATOM  =     63721.17209430
  Solvation  Ediel_sol  =         0.00000000
  ---------------------------------------------------
  free energy    TOTEN  =      -774.72500355 eV

  energy without entropy =     -774.68639753  energy(sigma->0) =     -774.71213487


--------------------------------------------------------------------------------------------------------




--------------------------------------- Iteration      1(   9)  ---------------------------------------


    POTLOK:  cpu time    0.3966: real time    0.3976
    SETDIJ:  cpu time    0.0310: real time    0.0311
    EDDIAG:  cpu time    9.6784: real time    9.7016
  RMM-DIIS:  cpu time   33.3461: real time   33.4250
    ORTHCH:  cpu time    0.9700: real time    0.9723
       DOS:  cpu time    0.0019: real time    0.0019
    CHARGE:  cpu time    4.1830: real time    4.1929
    MIXING:  cpu time    0.0099: real time    0.0099
    --------------------------------------------
      LOOP:  cpu time   48.6169: real time   48.7323

 eigenvalue-minimisations  :  7851
 total energy-change (2. order) : 0.1841183E+03  (-0.7392618E+01)
 number of electron     736.0000100 magnetization      79.6701704
 augmentation part      384.3314775 magnetization      73.6789728

 Broyden mixing:
  rms(total) = 0.15742E+02    rms(broyden)= 0.15742E+02
  rms(prec ) = 0.19590E+02
  weight for this iteration     100.00

 eigenvalues of (default mixing * dielectric matrix)
  average eigenvalue GAMMA=   0.2083
  0.5055  0.1797  0.0800  0.0681

 Free energy of the ion-electron system (eV)
  ---------------------------------------------------
  alpha Z        PSCENC =      1570.31101805
  Ewald energy   TEWEN  =    172849.31925260
  -Hartree energ DENC   =   -236433.74530585
  -exchange      EXHF   =         0.00000000
  -V(xc)+E(xc)   XCENC  =      1047.58616969
  PAW double counting   =     62931.18648657   -65771.56549773
  entropy T*S    EENTRO =         0.00032527
  eigenvalues    EBANDS =      -504.87125795
  atomic energy  EATOM  =     63721.17209430
  Solvation  Ediel_sol  =         0.00000000
  ---------------------------------------------------
  free energy    TOTEN  =      -590.60671504 eV

  energy without entropy =     -590.60704031  energy(sigma->0) =     -590.60682346


--------------------------------------------------------------------------------------------------------




--------------------------------------- Iteration      1(  10)  ---------------------------------------


    POTLOK:  cpu time    0.3888: real time    0.3897
    SETDIJ:  cpu time    0.0309: real time    0.0310
    EDDIAG:  cpu time    9.5933: real time    9.6162
  RMM-DIIS:  cpu time   33.3799: real time   33.4621
    ORTHCH:  cpu time    0.9650: real time    0.9673
       DOS:  cpu time    0.0020: real time    0.0020
    CHARGE:  cpu time    4.1613: real time    4.1712
    MIXING:  cpu time    0.0105: real time    0.0105
    --------------------------------------------
      LOOP:  cpu time   48.5317: real time   48.6500

 eigenvalue-minimisations  :  7859
 total energy-change (2. order) : 0.8357455E+02  (-0.5428170E+01)
 number of electron     736.0000127 magnetization      80.6215171
 augmentation part      384.1081078 magnetization      61.9178152

 Broyden mixing:
  rms(total) = 0.60417E+01    rms(broyden)= 0.60417E+01
  rms(prec ) = 0.76580E+01
  weight for this iteration     100.00

 eigenvalues of (default mixing * dielectric matrix)
  average eigenvalue GAMMA=   0.2938
  0.8398  0.3721  0.1062  0.1062  0.0448

 Free energy of the ion-electron system (eV)
  ---------------------------------------------------
  alpha Z        PSCENC =      1570.31101805
  Ewald energy   TEWEN  =    172849.31925260
  -Hartree energ DENC   =   -236370.92431588
  -exchange      EXHF   =         0.00000000
  -V(xc)+E(xc)   XCENC  =      1046.73243760
  PAW double counting   =     63063.38199255   -65905.39277348
  entropy T*S    EENTRO =         0.10115684
  eigenvalues    EBANDS =      -481.73302804
  atomic energy  EATOM  =     63721.17209430
  Solvation  Ediel_sol  =         0.00000000
  ---------------------------------------------------
  free energy    TOTEN  =      -507.03216547 eV

  energy without entropy =     -507.13332231  energy(sigma->0) =     -507.06588442


--------------------------------------------------------------------------------------------------------




--------------------------------------- Iteration      1(  11)  ---------------------------------------


    POTLOK:  cpu time    0.4041: real time    0.4051
    SETDIJ:  cpu time    0.0306: real time    0.0307
    EDDIAG:  cpu time    9.6025: real time    9.6253
  RMM-DIIS:  cpu time   33.3425: real time   33.4215
    ORTHCH:  cpu time    0.9620: real time    0.9643
       DOS:  cpu time    0.0020: real time    0.0020
    CHARGE:  cpu time    4.2237: real time    4.2337
    MIXING:  cpu time    0.0111: real time    0.0111
    --------------------------------------------
      LOOP:  cpu time   48.5786: real time   48.6936

 eigenvalue-minimisations  :  7864
 total energy-change (2. order) :-0.2265882E+02  (-0.2579780E+01)
 number of electron     736.0000147 magnetization      80.4706950
 augmentation part      376.1487932 magnetization      65.0666771

 Broyden mixing:
  rms(total) = 0.93239E+01    rms(broyden)= 0.93239E+01
  rms(prec ) = 0.11640E+02
  weight for this iteration     100.00

 eigenvalues of (default mixing * dielectric matrix)
  average eigenvalue GAMMA=   0.3255
  0.9705  0.3591  0.3591  0.1098  0.1098  0.0447

 Free energy of the ion-electron system (eV)
  ---------------------------------------------------
  alpha Z        PSCENC =      1570.31101805
  Ewald energy   TEWEN  =    172849.31925260
  -Hartree energ DENC   =   -236426.23291470
  -exchange      EXHF   =         0.00000000
  -V(xc)+E(xc)   XCENC  =      1059.54335364
  PAW double counting   =     64302.29454103   -67223.14817117
  entropy T*S    EENTRO =        -0.01301491
  eigenvalues    EBANDS =      -382.93714828
  atomic energy  EATOM  =     63721.17209430
  Solvation  Ediel_sol  =         0.00000000
  ---------------------------------------------------
  free energy    TOTEN  =      -529.69098943 eV

  energy without entropy =     -529.67797453  energy(sigma->0) =     -529.68665113


--------------------------------------------------------------------------------------------------------




--------------------------------------- Iteration      1(  12)  ---------------------------------------


    POTLOK:  cpu time    0.4046: real time    0.4056
    SETDIJ:  cpu time    0.0313: real time    0.0314
    EDDIAG:  cpu time    9.6206: real time    9.6434
  RMM-DIIS:  cpu time   33.4851: real time   33.5644
    ORTHCH:  cpu time    0.9648: real time    0.9671
       DOS:  cpu time    0.0020: real time    0.0020
    CHARGE:  cpu time    4.1883: real time    4.1982
    MIXING:  cpu time    0.0122: real time    0.0122
    --------------------------------------------
      LOOP:  cpu time   48.7090: real time   48.8243

 eigenvalue-minimisations  :  7868
 total energy-change (2. order) :-0.2392613E+02  (-0.4243833E+01)
 number of electron     736.0000144 magnetization      80.1332639
 augmentation part      379.3831494 magnetization      67.8730183

 Broyden mixing:
  rms(total) = 0.11034E+02    rms(broyden)= 0.11034E+02
  rms(prec ) = 0.13159E+02
  weight for this iteration     100.00

 eigenvalues of (default mixing * dielectric matrix)
  average eigenvalue GAMMA=   0.3099
  0.9988  0.4976  0.3175  0.1125  0.1125  0.0447  0.0855

 Free energy of the ion-electron system (eV)
  ---------------------------------------------------
  alpha Z        PSCENC =      1570.31101805
  Ewald energy   TEWEN  =    172849.31925260
  -Hartree energ DENC   =   -236424.05092851
  -exchange      EXHF   =         0.00000000
  -V(xc)+E(xc)   XCENC  =      1057.81375603
  PAW double counting   =     64816.18721968   -67745.24725211
  entropy T*S    EENTRO =         0.01154960
  eigenvalues    EBANDS =      -399.13382700
  atomic energy  EATOM  =     63721.17209430
  Solvation  Ediel_sol  =         0.00000000
  ---------------------------------------------------
  free energy    TOTEN  =      -553.61711737 eV

  energy without entropy =     -553.62866697  energy(sigma->0) =     -553.62096723


--------------------------------------------------------------------------------------------------------




--------------------------------------- Iteration      1(  13)  ---------------------------------------


    POTLOK:  cpu time    0.4048: real time    0.4058
    SETDIJ:  cpu time    0.0306: real time    0.0306
    EDDIAG:  cpu time    9.5941: real time    9.6168
  RMM-DIIS:  cpu time   33.4441: real time   33.5234
    ORTHCH:  cpu time    0.9659: real time    0.9682
       DOS:  cpu time    0.0020: real time    0.0020
    CHARGE:  cpu time    4.2015: real time    4.2115
    MIXING:  cpu time    0.0118: real time    0.0118
    --------------------------------------------
      LOOP:  cpu time   48.6549: real time   48.7702

 eigenvalue-minimisations  :  7875
 total energy-change (2. order) : 0.3735240E+02  (-0.3301049E+01)
 number of electron     736.0000127 magnetization      80.2785016
 augmentation part      379.4341384 magnetization      63.0751382

 Broyden mixing:
  rms(total) = 0.65026E+01    rms(broyden)= 0.65025E+01
  rms(prec ) = 0.73457E+01
  weight for this iteration     100.00

 eigenvalues of (default mixing * dielectric matrix)
  average eigenvalue GAMMA=   0.3024
  1.1114  0.3862  0.3862  0.1978  0.1055  0.1055  0.0447  0.0816

 Free energy of the ion-electron system (eV)
  ---------------------------------------------------
  alpha Z        PSCENC =      1570.31101805
  Ewald energy   TEWEN  =    172849.31925260
  -Hartree energ DENC   =   -236465.82327974
  -exchange      EXHF   =         0.00000000
  -V(xc)+E(xc)   XCENC  =      1054.98659016
  PAW double counting   =     65178.15605062   -68115.64978089
  entropy T*S    EENTRO =         0.01096915
  eigenvalues    EBANDS =      -308.74763109
  atomic energy  EATOM  =     63721.17209430
  Solvation  Ediel_sol  =         0.00000000
  ---------------------------------------------------
  free energy    TOTEN  =      -516.26471686 eV

  energy without entropy =     -516.27568600  energy(sigma->0) =     -516.26837324


--------------------------------------------------------------------------------------------------------




--------------------------------------- Iteration      1(  14)  ---------------------------------------


    POTLOK:  cpu time    0.4073: real time    0.4082
    SETDIJ:  cpu time    0.0313: real time    0.0313
    EDDIAG:  cpu time    9.6973: real time    9.7204
  RMM-DIIS:  cpu time   33.3839: real time   33.4692
    ORTHCH:  cpu time    0.9654: real time    0.9677
       DOS:  cpu time    0.0021: real time    0.0021
    CHARGE:  cpu time    4.2237: real time    4.2337
    MIXING:  cpu time    0.0129: real time    0.0130
    --------------------------------------------
      LOOP:  cpu time   48.7238: real time   48.8456

 eigenvalue-minimisations  :  7872
 total energy-change (2. order) : 0.6804620E+01  (-0.1821589E+01)
 number of electron     736.0000126 magnetization      80.9056610
 augmentation part      378.9971193 magnetization      64.0361838

 Broyden mixing:
  rms(total) = 0.53244E+01    rms(broyden)= 0.53244E+01
  rms(prec ) = 0.61212E+01
  weight for this iteration     100.00

 eigenvalues of (default mixing * dielectric matrix)
  average eigenvalue GAMMA=   0.3440
  1.4473  0.4697  0.4697  0.2668  0.1106  0.1106  0.0447  0.0971  0.0795

 Free energy of the ion-electron system (eV)
  ---------------------------------------------------
  alpha Z        PSCENC =      1570.31101805
  Ewald energy   TEWEN  =    172849.31925260
  -Hartree energ DENC   =   -236481.26982186
  -exchange      EXHF   =         0.00000000
  -V(xc)+E(xc)   XCENC  =      1054.54202455
  PAW double counting   =     65377.62163397   -68322.94365705
  entropy T*S    EENTRO =         0.01881002
  eigenvalues    EBANDS =      -278.23145160
  atomic energy  EATOM  =     63721.17209430
  Solvation  Ediel_sol  =         0.00000000
  ---------------------------------------------------
  free energy    TOTEN  =      -509.46009702 eV

  energy without entropy =     -509.47890704  energy(sigma->0) =     -509.46636702


--------------------------------------------------------------------------------------------------------




--------------------------------------- Iteration      1(  15)  ---------------------------------------


    POTLOK:  cpu time    0.4084: real time    0.4093
    SETDIJ:  cpu time    0.0311: real time    0.0312
    EDDIAG:  cpu time    9.5946: real time    9.6172
  RMM-DIIS:  cpu time   33.3416: real time   33.4204
    ORTHCH:  cpu time    0.9721: real time    0.9744
       DOS:  cpu time    0.0022: real time    0.0022
    CHARGE:  cpu time    4.2129: real time    4.2229
    MIXING:  cpu time    0.0128: real time    0.0128
    --------------------------------------------
      LOOP:  cpu time   48.5756: real time   48.6905

 eigenvalue-minimisations  :  7863
 total energy-change (2. order) :-0.4760356E+00  (-0.7927506E+00)
 number of electron     736.0000128 magnetization      81.1283633
 augmentation part      377.7666782 magnetization      65.2079433

 Broyden mixing:
  rms(total) = 0.59116E+01    rms(broyden)= 0.59116E+01
  rms(prec ) = 0.66144E+01
  weight for this iteration     100.00

 eigenvalues of (default mixing * dielectric matrix)
  average eigenvalue GAMMA=   0.3239
  1.5077  0.4758  0.4758  0.2603  0.1133  0.1133  0.0447  0.0968  0.0757  0.0757

 Free energy of the ion-electron system (eV)
  ---------------------------------------------------
  alpha Z        PSCENC =      1570.31101805
  Ewald energy   TEWEN  =    172849.31925260
  -Hartree energ DENC   =   -236489.45970020
  -exchange      EXHF   =         0.00000000
  -V(xc)+E(xc)   XCENC  =      1056.11990385
  PAW double counting   =     65766.84370359   -68727.01821744
  entropy T*S    EENTRO =         0.03341182
  eigenvalues    EBANDS =      -257.25759913
  atomic energy  EATOM  =     63721.17209430
  Solvation  Ediel_sol  =         0.00000000
  ---------------------------------------------------
  free energy    TOTEN  =      -509.93613258 eV

  energy without entropy =     -509.96954439  energy(sigma->0) =     -509.94726985


--------------------------------------------------------------------------------------------------------




--------------------------------------- Iteration      1(  16)  ---------------------------------------


    POTLOK:  cpu time    0.4117: real time    0.4126
    SETDIJ:  cpu time    0.0314: real time    0.0315
    EDDIAG:  cpu time    9.5926: real time    9.6153
  RMM-DIIS:  cpu time   33.4996: real time   33.5787
    ORTHCH:  cpu time    0.9714: real time    0.9737
       DOS:  cpu time    0.0020: real time    0.0020
    CHARGE:  cpu time    4.2527: real time    4.2628
    MIXING:  cpu time    0.0134: real time    0.0134
    --------------------------------------------
      LOOP:  cpu time   48.7748: real time   48.8900

 eigenvalue-minimisations  :  7877
 total energy-change (2. order) : 0.4993126E+01  (-0.3900206E+00)
 number of electron     736.0000126 magnetization      81.1659830
 augmentation part      378.5043471 magnetization      64.3472926

 Broyden mixing:
  rms(total) = 0.40468E+01    rms(broyden)= 0.40468E+01
  rms(prec ) = 0.45289E+01
  weight for this iteration     100.00

 eigenvalues of (default mixing * dielectric matrix)
  average eigenvalue GAMMA=   0.3003
  1.5275  0.4687  0.4687  0.2386  0.1198  0.1198  0.1093  0.0447  0.0711  0.0677
  0.0677

 Free energy of the ion-electron system (eV)
  ---------------------------------------------------
  alpha Z        PSCENC =      1570.31101805
  Ewald energy   TEWEN  =    172849.31925260
  -Hartree energ DENC   =   -236480.53346297
  -exchange      EXHF   =         0.00000000
  -V(xc)+E(xc)   XCENC  =      1057.09859656
  PAW double counting   =     65863.10144334   -68824.77341330
  entropy T*S    EENTRO =         0.05302564
  eigenvalues    EBANDS =      -260.69156101
  atomic energy  EATOM  =     63721.17209430
  Solvation  Ediel_sol  =         0.00000000
  ---------------------------------------------------
  free energy    TOTEN  =      -504.94300679 eV

  energy without entropy =     -504.99603243  energy(sigma->0) =     -504.96068200


--------------------------------------------------------------------------------------------------------




--------------------------------------- Iteration      1(  17)  ---------------------------------------


    POTLOK:  cpu time    0.4110: real time    0.4120
    SETDIJ:  cpu time    0.0313: real time    0.0314
    EDDIAG:  cpu time    9.5995: real time    9.6222
  RMM-DIIS:  cpu time   33.4489: real time   33.5328
    ORTHCH:  cpu time    0.9658: real time    0.9686
       DOS:  cpu time    0.0021: real time    0.0021
    CHARGE:  cpu time    4.2499: real time    4.2620
    MIXING:  cpu time    0.0139: real time    0.0140
    --------------------------------------------
      LOOP:  cpu time   48.7226: real time   48.8451

 eigenvalue-minimisations  :  7900
 total energy-change (2. order) : 0.6461373E-01  (-0.1343565E-01)
 number of electron     736.0000126 magnetization      81.3811298
 augmentation part      378.5732617 magnetization      64.7393004

 Broyden mixing:
  rms(total) = 0.40168E+01    rms(broyden)= 0.40168E+01
  rms(prec ) = 0.45036E+01
  weight for this iteration     100.00

 eigenvalues of (default mixing * dielectric matrix)
  average eigenvalue GAMMA=   0.2968
  1.5341  0.4478  0.4478  0.2362  0.1925  0.1925  0.1089  0.1089  0.0447  0.0890
  0.0890  0.0702

 Free energy of the ion-electron system (eV)
  ---------------------------------------------------
  alpha Z        PSCENC =      1570.31101805
  Ewald energy   TEWEN  =    172849.31925260
  -Hartree energ DENC   =   -236479.24808728
  -exchange      EXHF   =         0.00000000
  -V(xc)+E(xc)   XCENC  =      1057.20587056
  PAW double counting   =     65870.42996327   -68832.10124343
  entropy T*S    EENTRO =         0.05208864
  eigenvalues    EBANDS =      -262.01934976
  atomic energy  EATOM  =     63721.17209430
  Solvation  Ediel_sol  =         0.00000000
  ---------------------------------------------------
  free energy    TOTEN  =      -504.87839306 eV

  energy without entropy =     -504.93048170  energy(sigma->0) =     -504.89575594


--------------------------------------------------------------------------------------------------------




--------------------------------------- Iteration      1(  18)  ---------------------------------------


    POTLOK:  cpu time    0.4108: real time    0.4118
    SETDIJ:  cpu time    0.0314: real time    0.0315
    EDDIAG:  cpu time    9.6001: real time    9.6264
  RMM-DIIS:  cpu time   33.3178: real time   33.3965
    ORTHCH:  cpu time    0.9671: real time    0.9694
       DOS:  cpu time    0.0020: real time    0.0020
    CHARGE:  cpu time    4.2465: real time    4.2565
    MIXING:  cpu time    0.0151: real time    0.0152
    --------------------------------------------
      LOOP:  cpu time   48.5909: real time   48.7093

 eigenvalue-minimisations  :  7870
 total energy-change (2. order) :-0.7655659E+00  (-0.2063943E-01)
 number of electron     736.0000126 magnetization      82.0480170
 augmentation part      378.3647536 magnetization      65.3433124

 Broyden mixing:
  rms(total) = 0.42180E+01    rms(broyden)= 0.42180E+01
  rms(prec ) = 0.47392E+01
  weight for this iteration     100.00

 eigenvalues of (default mixing * dielectric matrix)
  average eigenvalue GAMMA=   0.3354
  1.5275  0.5350  0.5350  0.4382  0.4382  0.2874  0.1095  0.1095  0.0447  0.0941
  0.0843  0.0843  0.0721

 Free energy of the ion-electron system (eV)
  ---------------------------------------------------
  alpha Z        PSCENC =      1570.31101805
  Ewald energy   TEWEN  =    172849.31925260
  -Hartree energ DENC   =   -236483.69119964
  -exchange      EXHF   =         0.00000000
  -V(xc)+E(xc)   XCENC  =      1058.00972156
  PAW double counting   =     65883.98783207   -68846.38309148
  entropy T*S    EENTRO =         0.06127568
  eigenvalues    EBANDS =      -258.43086211
  atomic energy  EATOM  =     63721.17209430
  Solvation  Ediel_sol  =         0.00000000
  ---------------------------------------------------
  free energy    TOTEN  =      -505.64395897 eV

  energy without entropy =     -505.70523465  energy(sigma->0) =     -505.66438420


--------------------------------------------------------------------------------------------------------




--------------------------------------- Iteration      1(  19)  ---------------------------------------


    POTLOK:  cpu time    0.4132: real time    0.4142
    SETDIJ:  cpu time    0.0315: real time    0.0315
    EDDIAG:  cpu time    9.6052: real time    9.6280
  RMM-DIIS:  cpu time   33.3798: real time   33.4586
    ORTHCH:  cpu time    0.9678: real time    0.9701
       DOS:  cpu time    0.0020: real time    0.0020
    CHARGE:  cpu time    4.2339: real time    4.2439
    MIXING:  cpu time    0.0137: real time    0.0137
    --------------------------------------------
      LOOP:  cpu time   48.6470: real time   48.7620

 eigenvalue-minimisations  :  7861
 total energy-change (2. order) :-0.6213189E+00  (-0.1099424E+00)
 number of electron     736.0000127 magnetization      82.8582908
 augmentation part      378.0866757 magnetization      66.6826434

 Broyden mixing:
  rms(total) = 0.42834E+01    rms(broyden)= 0.42834E+01
  rms(prec ) = 0.48327E+01
  weight for this iteration     100.00

 eigenvalues of (default mixing * dielectric matrix)
  average eigenvalue GAMMA=   0.3498
  1.5622  0.7084  0.7084  0.4601  0.4601  0.2968  0.1100  0.1100  0.0447  0.1076
  0.0890  0.0890  0.0797  0.0712

 Free energy of the ion-electron system (eV)
  ---------------------------------------------------
  alpha Z        PSCENC =      1570.31101805
  Ewald energy   TEWEN  =    172849.31925260
  -Hartree energ DENC   =   -236486.88884479
  -exchange      EXHF   =         0.00000000
  -V(xc)+E(xc)   XCENC  =      1059.55688791
  PAW double counting   =     65921.52586454   -68884.87630132
  entropy T*S    EENTRO =         0.08422854
  eigenvalues    EBANDS =      -256.46947775
  atomic energy  EATOM  =     63721.17209430
  Solvation  Ediel_sol  =         0.00000000
  ---------------------------------------------------
  free energy    TOTEN  =      -506.26527792 eV

  energy without entropy =     -506.34950646  energy(sigma->0) =     -506.29335410


[...]
   0.805E-01 0.144E+00 -.128E+04   -.737E-01 -.151E+00 0.128E+04   -.656E-02 0.696E-02 0.164E+01   0.128E-02 -.888E-03 -.354E-02
   0.158E+00 -.169E+00 0.275E+04   -.163E+00 0.173E+00 -.274E+04   -.121E-03 -.434E-03 -.226E+01   -.411E-03 0.947E-04 0.954E-03
   -.149E+00 0.103E+00 0.275E+04   0.142E+00 -.973E-01 -.274E+04   0.482E-02 -.701E-02 -.226E+01   -.492E-03 -.478E-03 0.662E-03
   -.905E-01 0.805E-02 0.275E+04   0.856E-01 -.340E-02 -.274E+04   0.274E-02 -.366E-02 -.225E+01   0.124E-03 -.505E-03 0.795E-03
   0.109E+00 -.319E+00 0.139E+04   -.114E+00 0.320E+00 -.139E+04   -.403E-03 0.377E-02 -.160E+00   -.814E-03 0.635E-03 -.787E-03
   0.247E+00 0.150E-01 0.139E+04   -.254E+00 -.143E-01 -.139E+04   -.678E-03 0.292E-02 -.161E+00   0.752E-03 0.455E-03 -.543E-03
   0.176E-01 -.418E-01 -.128E+04   -.896E-02 0.376E-01 0.128E+04   -.513E-02 0.607E-02 0.163E+01   0.136E-02 -.314E-03 -.329E-02
   -.867E-01 0.616E-01 0.275E+04   0.799E-01 -.565E-01 -.274E+04   0.450E-02 -.719E-02 -.225E+01   0.603E-03 0.384E-03 0.630E-03
   0.233E-01 -.152E+00 0.139E+04   -.286E-01 0.154E+00 -.139E+04   0.204E-02 0.142E-02 -.163E+00   -.719E-03 0.192E-03 -.153E-03
   -.662E-01 0.116E+00 0.724E+02   0.649E-01 -.117E+00 -.722E+02   0.651E-03 0.210E-03 -.299E+00   0.124E-02 -.167E-03 -.204E-02
   0.132E+00 -.134E+00 -.128E+04   -.126E+00 0.128E+00 0.128E+04   -.405E-02 0.635E-02 0.163E+01   0.227E-03 0.642E-03 -.344E-02
   -.126E+00 0.230E+00 -.128E+04   0.133E+00 -.235E+00 0.128E+04   -.393E-02 0.132E-02 0.163E+01   -.677E-03 0.116E-03 -.272E-02
   0.676E-01 -.216E-01 -.129E+04   -.602E-01 0.175E-01 0.128E+04   -.334E-02 0.491E-02 0.164E+01   -.750E-05 0.552E-03 -.422E-02
   0.251E+00 -.424E-01 0.275E+04   -.259E+00 0.489E-01 -.274E+04   0.195E-03 -.641E-02 -.226E+01   0.118E-02 0.495E-03 0.824E-03
   -.528E-01 -.194E-01 0.275E+04   0.462E-01 0.254E-01 -.275E+04   0.647E-02 -.429E-02 -.227E+01   -.223E-03 -.486E-03 0.614E-03
   -.139E+00 -.667E-01 0.275E+04   0.132E+00 0.735E-01 -.274E+04   0.628E-02 -.781E-02 -.225E+01   0.746E-03 -.190E-03 0.118E-02
   0.236E+00 0.233E-01 0.139E+04   -.240E+00 -.222E-01 -.139E+04   -.203E-02 0.372E-02 -.161E+00   -.762E-04 0.671E-03 -.951E-03
   -.314E+00 -.149E+00 0.730E+02   0.316E+00 0.148E+00 -.728E+02   -.493E-03 0.832E-03 -.298E+00   0.313E-04 0.152E-03 -.243E-02
   0.402E-01 -.189E-01 0.139E+04   -.473E-01 0.213E-01 -.139E+04   0.281E-02 0.615E-03 -.163E+00   0.128E-03 0.472E-04 -.752E-03
   0.199E+00 -.352E-01 0.139E+04   -.204E+00 0.398E-01 -.139E+04   -.793E-03 0.921E-03 -.162E+00   -.896E-03 -.402E-03 -.901E-03
   0.468E+00 -.143E+00 -.128E+04   -.461E+00 0.136E+00 0.128E+04   -.895E-02 0.689E-02 0.163E+01   0.101E-03 -.281E-04 -.268E-02
   -.192E+00 -.147E-01 0.275E+04   0.183E+00 0.214E-01 -.274E+04   0.861E-02 -.561E-02 -.226E+01   0.513E-03 -.447E-03 0.520E-03
   0.215E+00 -.712E-01 0.140E+04   -.221E+00 0.718E-01 -.140E+04   0.347E-02 0.397E-02 -.160E+00   0.993E-04 0.167E-03 -.904E-03
   0.204E+00 0.619E-01 0.724E+02   -.202E+00 -.661E-01 -.722E+02   -.308E-02 0.211E-02 -.300E+00   0.390E-03 0.565E-03 -.132E-02
   -.136E+00 0.136E+00 -.128E+04   0.146E+00 -.141E+00 0.128E+04   -.485E-02 0.278E-02 0.163E+01   -.114E-02 0.687E-03 -.363E-02
   0.134E+00 -.290E+00 0.275E+04   -.139E+00 0.296E+00 -.274E+04   0.240E-02 -.282E-02 -.226E+01   -.876E-03 -.348E-05 0.102E-02
   -.190E+00 0.229E+00 -.128E+04   0.197E+00 -.236E+00 0.128E+04   -.405E-02 0.206E-02 0.163E+01   -.108E-02 0.980E-03 -.351E-02
   0.952E-01 -.173E+00 0.275E+04   -.103E+00 0.179E+00 -.274E+04   0.443E-02 -.642E-02 -.226E+01   -.291E-03 0.726E-03 0.102E-02
   -.192E-01 0.201E+00 0.139E+04   0.114E-01 -.197E+00 -.139E+04   0.510E-02 -.313E-02 -.162E+00   0.686E-04 0.145E-03 -.851E-03
   0.215E+00 -.615E-01 0.139E+04   -.224E+00 0.643E-01 -.139E+04   0.294E-02 0.169E-02 -.160E+00   0.101E-02 -.195E-03 -.359E-03
   0.485E-02 0.426E-01 -.128E+04   0.304E-02 -.482E-01 0.128E+04   -.548E-02 0.445E-02 0.163E+01   0.357E-03 -.158E-03 -.337E-02
   0.680E-02 -.485E-01 0.275E+04   -.132E-01 0.544E-01 -.274E+04   0.181E-02 -.580E-02 -.226E+01   -.944E-04 0.465E-03 0.662E-03
   0.134E+00 0.384E-02 0.139E+04   -.138E+00 -.258E-02 -.139E+04   0.197E-02 -.142E-02 -.161E+00   -.366E-03 0.222E-03 -.121E-03
   -.246E+00 0.184E+00 0.726E+02   0.251E+00 -.186E+00 -.724E+02   -.359E-02 0.163E-03 -.299E+00   -.117E-02 -.659E-03 -.192E-02
   0.191E+00 -.167E+00 0.139E+04   -.197E+00 0.168E+00 -.139E+04   -.270E-03 0.170E-02 -.161E+00   0.604E-03 0.783E-03 -.588E-03
   0.198E+00 -.259E+00 0.139E+04   -.204E+00 0.260E+00 -.139E+04   0.993E-03 0.389E-02 -.160E+00   0.736E-03 0.492E-03 -.259E-03
   0.319E-01 -.223E+00 0.727E+02   -.306E-01 0.224E+00 -.725E+02   -.352E-02 0.187E-02 -.299E+00   0.322E-03 -.555E-03 -.202E-02
   -.597E-01 0.368E+00 -.128E+04   0.676E-01 -.375E+00 0.128E+04   -.737E-02 0.223E-02 0.163E+01   0.182E-03 0.431E-04 -.279E-02
   0.456E-01 -.185E+00 -.129E+04   -.360E-01 0.180E+00 0.128E+04   -.490E-02 0.733E-02 0.163E+01   -.719E-03 -.939E-03 -.333E-02
   0.225E+00 -.256E-01 0.275E+04   -.228E+00 0.298E-01 -.274E+04   -.740E-03 -.244E-02 -.226E+01   0.127E-03 0.837E-04 0.709E-03
   -.484E-01 0.288E-01 0.275E+04   0.427E-01 -.220E-01 -.274E+04   0.379E-02 -.506E-02 -.226E+01   0.503E-05 -.129E-02 0.819E-03
   0.633E-01 -.744E-01 0.139E+04   -.675E-01 0.769E-01 -.139E+04   0.174E-02 0.549E-04 -.163E+00   -.129E-03 -.943E-03 -.738E-03
   0.684E-01 -.502E-01 0.139E+04   -.734E-01 0.533E-01 -.139E+04   -.847E-04 0.131E-02 -.160E+00   -.449E-03 -.722E-03 -.547E-03
   0.180E+00 0.519E-02 0.722E+02   -.179E+00 -.958E-02 -.720E+02   -.260E-02 0.295E-02 -.299E+00   0.139E-02 0.384E-03 -.143E-02
   -.327E+00 0.257E-01 -.128E+04   0.335E+00 -.302E-01 0.128E+04   -.418E-02 0.421E-02 0.163E+01   -.102E-03 -.220E-03 -.306E-02
   0.280E+00 -.157E+00 0.275E+04   -.283E+00 0.161E+00 -.274E+04   -.178E-02 -.205E-02 -.226E+01   -.521E-03 0.261E-03 0.792E-03
   -.961E-02 -.724E-02 0.728E+02   0.123E-01 0.505E-02 -.726E+02   -.231E-02 0.574E-03 -.298E+00   -.150E-03 0.248E-03 -.198E-02
   -.149E+00 -.927E-01 0.730E+02   0.154E+00 0.896E-01 -.728E+02   -.537E-02 0.188E-02 -.296E+00   0.633E-04 0.710E-04 -.182E-02
   -.208E+00 0.303E+00 0.725E+02   0.210E+00 -.304E+00 -.723E+02   -.119E-02 -.192E-02 -.298E+00   -.329E-03 -.115E-03 -.221E-02
   0.646E-01 -.298E+00 0.724E+02   -.617E-01 0.298E+00 -.721E+02   -.376E-02 0.159E-02 -.299E+00   -.428E-03 -.800E-03 -.135E-02
   -.260E+00 0.311E+00 0.726E+02   0.265E+00 -.318E+00 -.724E+02   -.190E-02 0.175E-02 -.297E+00   -.266E-03 0.948E-03 -.215E-02
   0.150E+00 -.130E+00 0.139E+04   -.155E+00 0.134E+00 -.139E+04   0.538E-03 0.357E-03 -.161E+00   -.314E-03 -.106E-02 -.399E-03
   -.215E+00 0.195E+00 0.726E+02   0.219E+00 -.199E+00 -.724E+02   -.235E-02 0.149E-02 -.298E+00   0.565E-04 0.505E-03 -.288E-02
   -.708E-01 0.195E+00 -.128E+04   0.759E-01 -.200E+00 0.128E+04   -.470E-02 0.193E-02 0.163E+01   0.563E-03 0.133E-03 -.359E-02
   -.125E+00 -.131E+00 -.128E+04   0.130E+00 0.126E+00 0.128E+04   -.575E-02 0.587E-02 0.163E+01   -.642E-03 0.189E-03 -.296E-02
   0.382E-01 -.180E+00 0.275E+04   -.450E-01 0.185E+00 -.274E+04   0.326E-02 -.441E-02 -.226E+01   -.879E-03 0.487E-03 0.107E-02
   0.298E+00 0.535E-01 0.275E+04   -.304E+00 -.468E-01 -.274E+04   0.689E-03 -.618E-02 -.227E+01   0.352E-03 0.323E-03 0.713E-03
   0.100E+00 0.166E-01 0.724E+02   -.987E-01 -.178E-01 -.722E+02   -.429E-02 0.866E-03 -.298E+00   0.254E-03 -.114E-02 -.120E-02
   0.674E-01 0.152E+00 0.726E+02   -.664E-01 -.154E+00 -.724E+02   -.296E-03 0.838E-03 -.299E+00   0.152E-03 -.445E-03 -.192E-02
   -.779E-01 0.212E-01 0.139E+04   0.724E-01 -.191E-01 -.139E+04   0.445E-02 0.101E-02 -.162E+00   -.462E-03 0.288E-03 -.265E-03
   -.270E+00 0.258E+00 0.730E+02   0.274E+00 -.261E+00 -.728E+02   -.224E-02 0.708E-03 -.298E+00   -.489E-03 -.117E-03 -.255E-02
   -.313E+00 0.220E+00 0.723E+02   0.319E+00 -.226E+00 -.721E+02   -.227E-02 0.175E-03 -.299E+00   -.997E-03 0.962E-03 -.234E-02
   -.553E-01 -.192E+00 -.293E+04   0.562E-01 0.192E+00 0.293E+04   -.875E-03 0.410E-02 0.214E+01   0.115E-03 -.254E-03 -.190E-02
   0.407E+00 0.106E+00 -.293E+04   -.404E+00 -.103E+00 0.293E+04   -.144E-01 -.101E-01 0.213E+01   0.149E-03 0.612E-04 -.278E-02
   -.496E+00 0.170E+00 -.293E+04   0.493E+00 -.174E+00 0.293E+04   0.286E-01 -.668E-02 0.214E+01   0.379E-03 -.434E-03 -.229E-02
   -.659E+00 -.764E-01 -.293E+04   0.663E+00 0.757E-01 0.293E+04   0.154E-01 0.696E-02 0.214E+01   0.163E-03 0.173E-03 -.174E-02
   0.350E+00 -.309E+00 -.293E+04   -.355E+00 0.313E+00 0.293E+04   -.119E-02 -.612E-03 0.214E+01   -.117E-03 -.305E-03 -.221E-02
   -.198E+00 0.133E+00 -.293E+04   0.198E+00 -.131E+00 0.293E+04   0.352E-02 -.884E-02 0.214E+01   0.204E-03 0.309E-03 -.206E-02
   -.277E+00 -.256E+00 -.293E+04   0.279E+00 0.257E+00 0.293E+04   0.114E-01 0.231E-02 0.214E+01   0.308E-03 0.594E-04 -.243E-02
   -.230E+00 -.391E+00 -.293E+04   0.232E+00 0.393E+00 0.293E+04   0.225E-02 0.100E-01 0.214E+01   -.370E-03 -.316E-04 -.176E-02
   -.419E+00 0.882E+00 -.293E+04   0.412E+00 -.885E+00 0.293E+04   0.202E-01 -.274E-01 0.214E+01   -.122E-03 -.413E-03 -.188E-02
   0.258E+00 -.299E+00 -.293E+04   -.261E+00 0.295E+00 0.293E+04   -.461E-02 0.996E-02 0.214E+01   -.148E-03 0.168E-03 -.257E-02
   0.780E+00 0.135E+00 -.293E+04   -.775E+00 -.133E+00 0.293E+04   -.271E-01 -.109E-01 0.214E+01   0.194E-03 -.913E-04 -.221E-02
   -.650E-01 -.104E+00 -.293E+04   0.615E-01 0.104E+00 0.293E+04   0.359E-02 0.696E-02 0.214E+01   -.311E-03 0.539E-03 -.189E-02
   -.380E+00 0.427E+00 -.293E+04   0.383E+00 -.431E+00 0.293E+04   0.134E-01 -.140E-01 0.214E+01   0.411E-03 -.442E-03 -.264E-02
   -.379E-01 0.218E+00 -.293E+04   0.352E-01 -.217E+00 0.293E+04   0.164E-02 -.813E-02 0.214E+01   -.427E-03 0.426E-03 -.192E-02
   0.200E+00 -.313E+00 -.293E+04   -.202E+00 0.316E+00 0.293E+04   -.183E-02 0.364E-02 0.214E+01   -.110E-03 0.283E-03 -.278E-02
   -.200E+00 0.516E+00 -.293E+04   0.200E+00 -.518E+00 0.293E+04   0.589E-02 -.136E-01 0.214E+01   -.492E-03 0.326E-04 -.176E-02
 -----------------------------------------------------------------------------------------------
   -.366E-01 -.577E-02 -.167E+02   0.271E-12 -.285E-13 -.909E-11   0.161E-02 -.155E-01 0.168E+02   -.815E-03 0.389E-03 -.115E+00
 
 
 POSITION                                       TOTAL-FORCE (eV/Angst)
 -----------------------------------------------------------------------------------
     12.87707      7.94924      6.84854        -0.000777      0.001592      0.009579
      4.95694      7.94914      6.84836         0.002755      0.000437      0.017418
      3.63627      5.66302      6.84832         0.002069     -0.001267      0.030454
     12.89069      7.93773      1.12741        -0.005368      0.003920     -0.007394
      4.96971      7.93912      1.12853        -0.001722     -0.001366     -0.012228
      3.64996      5.65178      1.12919        -0.001590      0.000691     -0.012793
      7.60878      1.84336      2.99165        -0.005992      0.005883     -0.016567
      8.92835      8.70314      2.99118        -0.005810      0.004448     -0.016285
      2.31531      3.37690      6.84833         0.005362      0.001867      0.032991
      2.33014      3.36655      1.12948        -0.001179     -0.001424     -0.012891
     10.24821      1.84422      2.99131        -0.003582      0.004081     -0.016956
     12.87917      4.89904      4.97228         0.000974     -0.000781      0.003909
      3.63606      1.09062      6.84867         0.003025      0.000947      0.027207
      8.91584      5.66412      6.84912         0.002586     -0.003160      0.018653
      4.95485      3.37711      6.84883         0.004478      0.001591      0.031738
      3.65135      1.08064      1.12857        -0.005337      0.000924     -0.010727
      8.92822      5.65256      1.12711         0.000023      0.001465     -0.007769
      4.96947      3.36626      1.12979        -0.000087     -0.000926     -0.017023
     11.56837      8.70268      2.99081        -0.005526      0.005810     -0.014087
     11.55874      7.18503      4.97123         0.001703     -0.000236      0.012106
     12.88773      6.41669      2.99144        -0.003844      0.003480     -0.016579
      8.92877      4.13087      2.99094        -0.005553      0.005361     -0.016961
      7.59763      7.94961      6.84884        -0.001314      0.000174      0.023022
      7.60872      7.93941      1.12826         0.000838      0.000885     -0.013332
     10.24764      6.41689      2.99007        -0.002353      0.004997     -0.011947
      2.31968      0.32616      4.97232         0.000107     -0.001419      0.003346
      7.59506      3.37785      6.84877         0.003753     -0.001450      0.021143
      7.61014      3.36516      1.12844        -0.003484      0.003000     -0.010367
      6.27584      1.09153      6.84876         0.002152     -0.003593      0.019180
      6.29074      1.07989      1.12823        -0.003756      0.001173     -0.012004
     11.56758      4.13145      2.99207        -0.002338      0.001396     -0.018637
      3.64852      4.13027      2.99330        -0.004476      0.004576     -0.019831
      0.99596      1.09078      6.84835         0.003269     -0.001109      0.020759
      1.01138      1.08038      1.12855        -0.004209      0.000877     -0.012033
      6.28784      8.70360      2.99199        -0.002220      0.000423     -0.017286
      7.59993      4.89961      4.97222         0.000943     -0.002754      0.003145
      4.96921      1.84376      2.99252        -0.005857      0.003695     -0.018007
      2.32865      1.84375      2.99248        -0.003582      0.005471     -0.018038
     14.19982      7.18468      4.97183        -0.001426      0.002192      0.006634
     11.55650      5.66384      6.84868         0.001337     -0.004307      0.022682
      6.27591      5.66296      6.84857         0.004444      0.002127      0.032521
     11.56997      5.65227      1.12748        -0.002952      0.002119     -0.009753
      6.28879      5.65201      1.12872        -0.001576      0.000644     -0.013172
      7.60795      6.41722      2.99124        -0.002228      0.001928     -0.017409
      6.28923      4.13040      2.99242        -0.005198      0.004027     -0.018180
      3.63953      2.61239      4.97270        -0.000087     -0.000919      0.002215
     10.23477      3.37745      6.84826         0.004659     -0.000317      0.019887
     10.25111      3.36601      1.12793        -0.004801      0.002343     -0.009731
     10.23908      0.32606      4.97124         0.000793     -0.001196      0.012915
      8.91997      7.18528      4.97159        -0.000121     -0.001048      0.009983
     10.23903      4.89990      4.97202         0.000694     -0.002715      0.006903
      6.28051      7.18490      4.97243        -0.000698      0.000959      0.003424
      4.95918      0.32647      4.97180         0.004119     -0.003965      0.010385
      4.96835      6.41701      2.99223        -0.003953      0.003636     -0.017467
      7.59874      0.32617      4.97135         0.002021     -0.002098      0.013155
      8.91593      1.09137      6.84810         0.001428     -0.002827      0.014737
     10.23690      7.94980      6.84945        -0.000714      0.000520      0.007066
      8.93102      1.07962      1.12774        -0.004001      0.002002     -0.009558
     10.25010      7.93928      1.12746        -0.004536      0.001226     -0.013132
      4.96019      4.89898      4.97250        -0.001777     -0.001293      0.003767
     11.55900      2.61291      4.97192         0.001335     -0.001924      0.006374
     14.20725      8.70303      2.99122        -0.001195      0.003712     -0.015237
      8.91867      2.61332      4.97117         0.002008     -0.002431      0.011045
      6.27907      2.61314      4.97249         0.002674     -0.004063      0.003265
     14.19182      8.71450      8.99312         0.000423      0.004242      0.006847
      3.63244      4.14229      8.99599        -0.010480     -0.006428     -0.010166
      6.27049      8.71489      8.99445         0.025232     -0.010205     -0.001044
     11.55103      4.14157      8.99459         0.019895      0.006634     -0.003175
      8.91201      8.71462      8.99504        -0.005918      0.003385      0.000952
     10.23157      1.85582      8.99359         0.003923     -0.005597      0.005247
      2.31135      1.85531      8.99519         0.013487      0.003612     -0.004946
     11.55197      8.71408      8.99382         0.004452      0.012363      0.005737
     12.87092      6.42944      8.99448         0.013203     -0.029636      0.001241
      4.95234      1.85495      8.99531        -0.006720      0.006097     -0.002495
      7.59303      6.42877      8.99524        -0.020618     -0.008848     -0.002947
      8.91179      4.14151      8.99468         0.000343      0.007694      0.000135
      4.95120      6.42895      8.99524         0.016911     -0.017134     -0.004449
      7.59210      1.85566      8.99402        -0.001024     -0.007044      0.002345
      6.27218      4.14173      8.99564        -0.003199      0.007686     -0.004984
     10.23170      6.42868      8.99463         0.005763     -0.014833      0.003473
 -----------------------------------------------------------------------------------
    total drift:                               -0.035755     -0.020836     -0.014086


--------------------------------------------------------------------------------------------------------



  FREE ENERGIE OF THE ION-ELECTRON SYSTEM (eV)
  ---------------------------------------------------
  free  energy   TOTEN  =      -550.24130991 eV

  energy  without entropy=     -550.19998967  energy(sigma->0) =     -550.22753650
 
 d Force = 0.2674239E-02[ 0.167E-02, 0.368E-02]  d Energy = 0.2634967E-02 0.393E-04
 d Force = 0.3132630E+03[ 0.313E+03, 0.313E+03]  d Ewald  = 0.3132630E+03 0.207E-04


--------------------------------------------------------------------------------------------------------


    POTLOK:  cpu time    0.4354: real time    0.4365


--------------------------------------------------------------------------------------------------------


 Conjugate gradient step on ions:
 trial-energy change:   -0.002635  1 .order   -0.002674   -0.003679   -0.001670
  (g-gl).g = 0.282E-02      g.g   = 0.264E-02  gl.gl    = 0.661E-02
 g(Force)  = 0.264E-02   g(Stress)= 0.000E+00 ortho     = 0.253E-03
 gamma     =   0.42612
 trial     =   1.33792
 opt step  =   2.44975  (harmonic =   2.44975) maximal distance =0.00631336
 next E    =  -550.242043   (d E  =  -0.00337)


--------------------------------------------------------------------------------------------------------


  
 reached required accuracy - stopping structural energy minimisation
     LOOP+:  cpu time 1085.0259: real time 1087.8461
    4ORBIT:  cpu time    0.0000: real time    0.0000

 total amount of memory used by VASP MPI-rank0   225254. kBytes
=======================================================================

   base      :      30000. kBytes
   nonlr-proj:      30369. kBytes
   fftplans  :      17962. kBytes
   grid      :      46451. kBytes
   one-center:        622. kBytes
   wavefun   :      99850. kBytes
 
  
  
 General timing and accounting informations for this job:
 ========================================================
  
                  Total CPU time used (sec):    27155.734
                            User time (sec):    27135.378
                          System time (sec):       20.356
                         Elapsed time (sec):    27227.961
  
                   Maximum memory used (kb):     1197452.
                   Average memory used (kb):           0.
  
                          Minor page faults:      5784331
                          Major page faults:            0
                 Voluntary context switches:         4697
