 vasp.5.4.4.18Apr17-6-g9f103f2a35 (build Nov 30 2020 22:55:02) complex          
  
 executed on             LinuxIFC date 2023.09.11  22:58:05
 running on   40 total cores
 distrk:  each k-point on   40 cores,    1 groups
 distr:  one band on NCORES_PER_BAND=   4 cores,   10 groups


--------------------------------------------------------------------------------------------------------


 INCAR:
 POTCAR:    PAW_PBE Pt 04Feb2005                  
 POTCAR:    PAW_PBE Pt 04Feb2005                  
   VRHFIN =Pt: s1d9                                                             
   LEXCH  = PE                                                                  
   EATOM  =   729.1176 eV,   53.5886 Ry                                         
                                                                                
   TITEL  = PAW_PBE Pt 04Feb2005                                                
   LULTRA =        F    use ultrasoft PP ?                                      
   IUNSCR =        1    unscreen: 0-lin 1-nonlin 2-no                           
   RPACOR =    2.330    partial core radius                                     
   POMASS =  195.080; ZVAL   =   10.000    mass and valenz                      
   RCORE  =    2.600    outmost cutoff radius                                   
   RWIGS  =    2.750; RWIGS  =    1.455    wigner-seitz radius (au A)           
   ENMAX  =  230.283; ENMIN  =  172.712 eV                                      
   ICORE  =        3    local potential                                         
   LCOR   =        T    correct aug charges                                     
   LPAW   =        T    paw PP                                                  
   EAUG   =  358.966                                                            
   DEXC   =    0.000                                                            
   RMAX   =    2.658    core radius for proj-oper                               
   RAUG   =    1.300    factor for augmentation sphere                          
   RDEP   =    2.761    radius for radial grids                                 
   RDEPT  =    2.203    core radius for aug-charge                              
                                                                                
   Atomic configuration                                                         
   16 entries                                                                   
     n  l   j            E        occ.                                          
     1  0  0.50    -78401.1885   2.0000                                         
     2  0  0.50    -13770.7750   2.0000                                         
     2  1  1.50    -11931.0468   6.0000                                         
     3  0  0.50     -3234.7234   2.0000                                         
     3  1  1.50     -2699.2216   6.0000                                         
     3  2  2.50     -2119.5714  10.0000                                         
     4  0  0.50      -695.1528   2.0000                                         
     4  1  1.50      -519.6034   6.0000                                         
     4  2  2.50      -306.6786  10.0000                                         
     4  3  3.50       -70.1041  14.0000                                         
     5  0  0.50      -101.7747   2.0000                                         
     5  1  1.50       -55.9873   6.0000                                         
     5  2  2.50        -6.1423   9.0000                                         
     6  0  0.50        -5.6573   1.0000                                         
     6  1  1.50        -6.8029   0.0000                                         
     5  3  2.50        -1.3606   0.0000                                         
   Description                                                                  
     l       E           TYP  RCUT    TYP  RCUT                                 
     2     -6.1423404     23  2.500                                             
     2     -7.5029230     23  2.500                                             
     0     -5.6573207     23  2.500                                             
     0      0.7416693     23  2.500                                             
     1     -2.7211652     23  2.600                                             
     1     20.4087390     23  2.600                                             
     3     -1.3605826     23  2.500                                             
  local pseudopotential read in
  partial core-charges read in
  partial kinetic energy density read in
  atomic valenz-charges read in
  non local Contribution for L=           2  read in
    real space projection operators read in
  non local Contribution for L=           2  read in
    real space projection operators read in
  non local Contribution for L=           0  read in
    real space projection operators read in
  non local Contribution for L=           0  read in
    real space projection operators read in
  non local Contribution for L=           1  read in
    real space projection operators read in
  non local Contribution for L=           1  read in
    real space projection operators read in
    PAW grid and wavefunctions read in
 
   number of l-projection  operators is LMAX  =           6
   number of lm-projection operators is LMMAX =          18
 
 Optimization of the real space projectors (new method)

 maximal supplied QI-value         = 14.36
 optimisation between [QCUT,QGAM] = [ 11.92, 23.98] = [ 39.79,161.09] Ry 
 Optimized for a Real-space Cutoff    1.49 Angstroem

   l    n(q)    QCUT    max X(q) W(low)/X(q) W(high)/X(q)  e(spline) 
   2     10    11.920    66.195    0.79E-04    0.18E-03    0.24E-06
   2     10    11.920    64.643    0.81E-04    0.19E-03    0.24E-06
   0     11    11.920    95.520    0.28E-04    0.54E-04    0.18E-06
   0     11    11.920    63.403    0.27E-04    0.52E-04    0.17E-06
   1     10    11.920    19.961    0.18E-04    0.11E-03    0.23E-06
   1     10    11.920    13.289    0.25E-04    0.87E-04    0.19E-06
  PAW_PBE Pt 04Feb2005                  :
 energy of atom  1       EATOM= -729.1176
 kinetic energy error for atom=    0.0021 (will be added to EATOM!!)
 
 
 POSCAR: Pt111                                   
  positions in cartesian coordinates
  No initial velocities read in
 exchange correlation table for  LEXCH =        8
   RHO(1)=    0.500       N(1)  =     2000
   RHO(2)=  100.500       N(2)  =     4000
 


--------------------------------------------------------------------------------------------------------


 ion  position               nearest neighbor table
   1  0.781  0.873  0.336-  73 2.64   2 2.64  43 2.64   3 2.64  72 2.64  56 2.64  71 2.84  20 2.85
                            35 2.86  27 2.86  55 2.86  34 2.87
   2  0.031  0.873  0.335-  47 2.64   3 2.64   1 2.64  23 2.64  72 2.64  57 2.65  55 2.82  68 2.82
                            65 2.85  29 2.89  39 2.89  27 2.90
   3  0.031  0.623  0.335-   9 2.64  15 2.64   2 2.64   1 2.64  56 2.64  57 2.65  55 2.82  76 2.82
                            12 2.86  28 2.89  39 2.89  35 2.89
   4  0.788  0.868  0.007-  44 2.64  74 2.64   5 2.64  75 2.64  58 2.64   6 2.64  78 2.88  21 2.88
                            19 2.89
   5  0.038  0.867  0.007-   4 2.64   6 2.64  48 2.64  24 2.64  74 2.64  59 2.64  49 2.88  70 2.88
                            78 2.88
   6  0.038  0.617  0.007-  58 2.64   5 2.64  59 2.64  10 2.64  18 2.64   4 2.64  46 2.88  70 2.88
                            21 2.88
   7  0.620  0.202  0.118-  61 2.64  19 2.64  53 2.64  11 2.64  78 2.64  22 2.64  71 2.83  79 2.85
                            42 2.87  44 2.87  80 2.88  74 2.89
   8  0.370  0.951  0.118-  60 2.64  25 2.64  19 2.64  53 2.64  49 2.64  54 2.64  69 2.81  26 2.84
                            66 2.85  16 2.87  24 2.88  75 2.89
   9  0.031  0.373  0.335-   3 2.64  56 2.64  13 2.65  47 2.65  15 2.65  63 2.65  12 2.83  77 2.83
                            62 2.84  33 2.84  30 2.90  28 2.91
  10  0.038  0.367  0.007-  64 2.64  58 2.64  18 2.64  16 2.64   6 2.64  48 2.64  54 2.87  46 2.88
                            45 2.88
  11  0.870  0.201  0.118-  54 2.64  78 2.64  49 2.64  22 2.64   7 2.64  45 2.64  65 2.80  77 2.83
                            79 2.87  64 2.87  74 2.88  48 2.88
  12  0.951  0.537  0.225-  62 2.64  77 2.64  55 2.64  20 2.64  76 2.65  67 2.65  21 2.81  45 2.81
                            46 2.82   9 2.83   3 2.86  56 2.86
  13  0.282  0.123  0.334-  43 2.64  73 2.64   9 2.65  47 2.65  15 2.65  23 2.65  62 2.80  26 2.82
                            69 2.86  33 2.87  31 2.88  36 2.89
  14  0.531  0.622  0.342-  63 2.63  23 2.63  41 2.63  57 2.64  56 2.64  73 2.65  52 2.76  51 2.81
                            37 2.92  38 2.92  66 2.92  67 2.95
  15  0.282  0.374  0.337-  57 2.63  41 2.63   3 2.64  43 2.64   9 2.65  13 2.65  36 2.83  76 2.83
                            80 2.86  28 2.87  62 2.88  50 3.01
  16  0.288  0.117  0.007-  24 2.64  75 2.64  10 2.64  48 2.64  18 2.64  44 2.64   8 2.87  53 2.88
                            54 2.88
  17  0.538  0.617  0.007-  75 2.64  64 2.64  58 2.64  42 2.64  24 2.64  59 2.64  22 2.87  25 2.88
                            60 2.89
  18  0.288  0.367  0.007-  44 2.64  10 2.64  42 2.64  59 2.64  16 2.64   6 2.64  53 2.87  61 2.87
                            46 2.88
  19  0.620  0.952  0.118-  53 2.64  25 2.64   7 2.64   8 2.64  78 2.64  21 2.64  69 2.82  20 2.83
                            71 2.84  44 2.87  75 2.88   4 2.89
  20  0.701  0.787  0.227-  12 2.64  55 2.64  69 2.64  71 2.64  67 2.64  66 2.65  56 2.81  19 2.83
                            73 2.84  25 2.84   1 2.85  21 2.85
  21  0.870  0.702  0.118-  78 2.64  70 2.64  25 2.64  46 2.64  19 2.64  45 2.64  12 2.81  55 2.84
                            20 2.85  58 2.88   4 2.88   6 2.88
  22  0.620  0.452  0.118-  60 2.64  61 2.64  45 2.64  11 2.64  25 2.64   7 2.64  79 2.84  67 2.85
                            17 2.87  42 2.88  64 2.88  51 3.00
  23  0.282  0.871  0.337-  57 2.63  14 2.63   2 2.64  73 2.64  47 2.65  13 2.65  68 2.84  31 2.84
                            66 2.86  26 2.86  29 2.87  37 2.98
  24  0.288  0.867  0.007-  16 2.64  59 2.64   5 2.64  48 2.64  75 2.64  17 2.64  60 2.88   8 2.88
                            49 2.89
  25  0.620  0.702  0.118-  19 2.64  60 2.64  21 2.64   8 2.64  45 2.64  22 2.64  20 2.84  67 2.84
                            66 2.87  75 2.87  17 2.88  58 2.88
  26  0.201  0.036  0.226-  69 2.64  65 2.64  66 2.64  68 2.64  77 2.65  62 2.65  13 2.82  54 2.82
                            49 2.83  47 2.84   8 2.84  23 2.86
  27  0.863  0.958  0.446-  29 2.64  34 2.64  32 2.64  35 2.64  39 2.64  40 2.64   1 2.86  72 2.89
                             2 2.90
  28  0.113  0.458  0.447-  35 2.64  33 2.64  39 2.64  36 2.64  30 2.64  50 2.64  15 2.87   3 2.89
                             9 2.91
  29  0.112  0.958  0.446-  27 2.64  32 2.64  33 2.64  39 2.64  37 2.64  31 2.64  23 2.87   2 2.89
                            47 2.89
  30  0.863  0.458  0.446-  35 2.64  32 2.64  52 2.64  33 2.64  28 2.64  38 2.64  63 2.86  56 2.88
                             9 2.90
  31  0.363  0.958  0.446-  34 2.64  36 2.64  33 2.64  52 2.64  29 2.64  37 2.64  23 2.84  13 2.88
                            73 2.89
  32  0.862  0.208  0.445-  40 2.64  29 2.64  30 2.64  27 2.64  33 2.64  38 2.64  63 2.84  72 2.88
                            47 2.89
  33  0.113  0.208  0.444-  28 2.64  30 2.64  31 2.64  29 2.64  36 2.64  32 2.64   9 2.84  47 2.86
                            13 2.87
  34  0.613  0.958  0.446-  31 2.64  27 2.64  36 2.64  35 2.64  52 2.64  40 2.65   1 2.87  43 2.89
                            73 2.89
  35  0.863  0.707  0.447-  28 2.64  30 2.64  34 2.64  27 2.64  52 2.64  39 2.64   1 2.86  56 2.89
                             3 2.89
  36  0.363  0.208  0.446-  40 2.64  31 2.64  34 2.64  28 2.64  33 2.64  50 2.64  15 2.83  13 2.89
                            43 2.89
  37  0.362  0.708  0.454-  52 2.64  39 2.64  29 2.64  31 2.64  50 2.65  38 2.65  57 2.90  14 2.92
                            23 2.98
  38  0.613  0.458  0.456-  52 2.64  40 2.64  30 2.64  32 2.64  50 2.65  37 2.65  14 2.92  41 2.93
                            63 3.04
  39  0.113  0.707  0.447-  28 2.64  37 2.64  29 2.64  27 2.64  35 2.64  50 2.64  57 2.77   3 2.89
                             2 2.89
  40  0.612  0.208  0.447-  32 2.64  36 2.64  38 2.64  50 2.64  27 2.64  34 2.65  41 2.76  43 2.91
                            72 2.92
  41  0.531  0.373  0.342-  63 2.63  15 2.63  14 2.63  57 2.63  72 2.65  43 2.65  40 2.76  51 2.80
                            38 2.93  80 2.94  50 2.94  79 2.96
  42  0.538  0.367  0.007-  74 2.64  59 2.64  64 2.64  17 2.64  18 2.64  44 2.64   7 2.87  22 2.88
                            61 2.89
  43  0.531  0.123  0.335-  72 2.64  13 2.64   1 2.64  15 2.64  73 2.64  41 2.65  80 2.79  71 2.84
                            69 2.85  34 2.89  36 2.89  40 2.91
  44  0.538  0.117  0.007-   4 2.64  18 2.64  75 2.64  74 2.64  42 2.64  16 2.64  19 2.87   7 2.87
                            53 2.89
  45  0.870  0.452  0.118-  54 2.64  46 2.64  22 2.64  25 2.64  11 2.64  21 2.64  12 2.81  77 2.82
                            67 2.87  58 2.88  64 2.88  10 2.88
  46  0.120  0.452  0.118-  45 2.64  21 2.64  70 2.64  53 2.64  54 2.64  61 2.64  62 2.82  12 2.82
                            76 2.87   6 2.88  10 2.88  18 2.88
  47  0.031  0.123  0.334-   2 2.64  72 2.64  13 2.65   9 2.65  23 2.65  63 2.65  77 2.81  26 2.84
                            65 2.84  33 2.86  29 2.89  32 2.89
  48  0.037  0.117  0.007-  74 2.64  64 2.64   5 2.64  24 2.64  16 2.64  10 2.64  49 2.87  54 2.88
                            11 2.88
  49  0.120  0.952  0.118-  70 2.64  78 2.64  11 2.64  54 2.64   8 2.64  60 2.64  65 2.82  26 2.83
                            68 2.86  48 2.87   5 2.88  24 2.89
  50  0.362  0.458  0.456-  40 2.64  39 2.64  36 2.64  28 2.64  38 2.65  37 2.65  57 2.92  41 2.94
                            15 3.01
  51  0.451  0.537  0.235-  68 2.63  76 2.63  66 2.63  80 2.63  79 2.63  67 2.63  41 2.80  14 2.81
                            57 2.83  60 2.98  61 2.98  22 3.00
  52  0.612  0.707  0.447-  30 2.64  37 2.64  31 2.64  38 2.64  35 2.64  34 2.64  14 2.76  73 2.90
                            56 2.91
  53  0.370  0.201  0.118-  19 2.64   7 2.64   8 2.64  46 2.64  61 2.64  54 2.64  69 2.79  62 2.85
                            80 2.86  18 2.87  16 2.88  44 2.89
  54  0.119  0.202  0.118-  45 2.64  11 2.64  49 2.64  46 2.64   8 2.64  53 2.64  26 2.82  62 2.84
                            77 2.84  10 2.87  48 2.88  16 2.88
  55  0.951  0.787  0.227-  12 2.64  20 2.64  65 2.64  76 2.64  68 2.64  71 2.64   3 2.82   2 2.82
                            78 2.84  21 2.84  70 2.85   1 2.86
  56  0.781  0.623  0.335-   9 2.64  73 2.64  63 2.64   1 2.64   3 2.64  14 2.64  20 2.81  67 2.82
                            12 2.86  30 2.88  35 2.89  52 2.91
  57  0.282  0.622  0.342-  15 2.63  23 2.63  41 2.63  14 2.64   3 2.65   2 2.65  39 2.77  51 2.83
                            37 2.90  50 2.92  68 2.93  76 2.93
  58  0.788  0.617  0.007-   6 2.64  10 2.64  17 2.64   4 2.64  75 2.64  64 2.64  21 2.88  45 2.88
                            25 2.88
  59  0.288  0.617  0.007-  24 2.64  42 2.64   6 2.64   5 2.64  18 2.64  17 2.64  60 2.87  61 2.87
                            70 2.88
  60  0.370  0.702  0.118-   8 2.64  25 2.64  22 2.64  61 2.64  49 2.64  70 2.64  66 2.85  68 2.87
                            59 2.87  24 2.88  17 2.89  51 2.98
  61  0.370  0.452  0.118-   7 2.64  22 2.64  60 2.64  53 2.64  46 2.64  70 2.64  80 2.84  76 2.87
                            59 2.87  18 2.87  42 2.89  51 2.98
  62  0.201  0.287  0.227-  12 2.64  69 2.64  80 2.64  76 2.64  77 2.65  26 2.65  13 2.80  46 2.82
                             9 2.84  54 2.84  53 2.85  15 2.88
  63  0.780  0.374  0.336-  14 2.63  41 2.63  56 2.64  72 2.64   9 2.65  47 2.65  67 2.83  79 2.84
                            32 2.84  30 2.86  77 2.88  38 3.04
  64  0.788  0.367  0.007-  48 2.64  74 2.64  10 2.64  17 2.64  42 2.64  58 2.64  11 2.87  45 2.88
                            22 2.88
  65  0.951  0.037  0.225-  77 2.64  26 2.64  71 2.64  55 2.64  68 2.65  79 2.65  11 2.80  78 2.81
                            49 2.82  47 2.84   2 2.85  72 2.87
  66  0.451  0.786  0.228-  67 2.62  51 2.63  68 2.63  26 2.64  20 2.65  69 2.65  73 2.81  60 2.85
                             8 2.85  23 2.86  25 2.87  14 2.92
  67  0.699  0.537  0.227-  66 2.62  79 2.63  51 2.63  20 2.64  77 2.64  12 2.65  56 2.82  63 2.83
                            25 2.84  22 2.85  45 2.87  14 2.95
  68  0.202  0.786  0.228-  76 2.62  51 2.63  66 2.63  55 2.64  26 2.64  65 2.65   2 2.82  23 2.84
                            70 2.86  49 2.86  60 2.87  57 2.93
  69  0.450  0.037  0.225-  26 2.64  62 2.64  71 2.64  20 2.64  66 2.65  80 2.65  53 2.79   8 2.81
                            19 2.82  73 2.84  43 2.85  13 2.86
  70  0.120  0.702  0.118-  49 2.64  21 2.64  78 2.64  46 2.64  60 2.64  61 2.64  55 2.85  68 2.86
                            76 2.86   6 2.88   5 2.88  59 2.88
  71  0.701  0.037  0.227-  69 2.64  65 2.64  20 2.64  55 2.64  79 2.64  80 2.65  72 2.82   7 2.83
                            43 2.84  19 2.84   1 2.84  78 2.85
  72  0.781  0.123  0.335-  43 2.64  47 2.64  63 2.64   1 2.64   2 2.64  41 2.65  79 2.80  71 2.82
                            65 2.87  32 2.88  27 2.89  40 2.92
  73  0.531  0.873  0.335-  56 2.64  13 2.64   1 2.64  23 2.64  43 2.64  14 2.65  66 2.81  20 2.84
                            69 2.84  31 2.89  34 2.89  52 2.90
  74  0.788  0.117  0.006-  48 2.64   4 2.64  64 2.64  42 2.64  44 2.64   5 2.64  78 2.88  11 2.88
                             7 2.89
  75  0.538  0.867  0.007-  16 2.64  17 2.64  44 2.64   4 2.64  24 2.64  58 2.64  25 2.87  19 2.88
                             8 2.89
  76  0.202  0.537  0.228-  68 2.62  80 2.63  51 2.63  62 2.64  55 2.64  12 2.65   3 2.82  15 2.83
                            70 2.86  46 2.87  61 2.87  57 2.93
  77  0.950  0.287  0.226-  65 2.64  12 2.64  67 2.64  79 2.64  26 2.65  62 2.65  47 2.81  45 2.82
                            11 2.83   9 2.83  54 2.84  63 2.88
  78  0.870  0.952  0.118-  21 2.64  49 2.64  11 2.64  70 2.64  19 2.64   7 2.64  65 2.81  55 2.84
                            71 2.85  74 2.88   4 2.88   5 2.88
  79  0.699  0.288  0.227-  80 2.62  67 2.63  51 2.63  71 2.64  77 2.64  65 2.65  72 2.80  22 2.84
                            63 2.84   7 2.85  11 2.87  41 2.96
  80  0.451  0.288  0.228-  79 2.62  76 2.63  51 2.63  62 2.64  71 2.65  69 2.65  43 2.79  61 2.84
                            53 2.86  15 2.86   7 2.88  41 2.94
 
  LATTYP: Found a hexagonal cell.
 ALAT       =    10.5600002128
 C/A-ratio  =     2.0833332913
  
  Lattice vectors:
  
 A1 = (   5.2799997962,  -9.1452286274,   0.0000000000)
 A2 = ( -10.5600000060,   0.0000000000,   0.0000000000)
 A3 = (   0.0000000000,   0.0000000000, -22.0000000000)


Analysis of symmetry for initial positions (statically):
=====================================================================
 Subroutine PRICEL returns:
 Original cell was already a primitive cell.
 

 Routine SETGRP: Setting up the symmetry group for a 
 hexagonal supercell.


 Subroutine GETGRP returns: Found  1 space group operations
 (whereof  1 operations were pure point group operations)
 out of a pool of 24 trial point group operations.


The static configuration has the point symmetry C_1 .


Analysis of symmetry for dynamics (positions and initial velocities):
=====================================================================
 Subroutine PRICEL returns:
 Original cell was already a primitive cell.
 

 Routine SETGRP: Setting up the symmetry group for a 
 hexagonal supercell.


 Subroutine GETGRP returns: Found  1 space group operations
 (whereof  1 operations were pure point group operations)
 out of a pool of 24 trial point group operations.


The dynamic configuration has the point symmetry C_1 .


Analysis of constrained symmetry for selective dynamics:
=====================================================================
 Subroutine PRICEL returns:
 Original cell was already a primitive cell.
 

 Routine SETGRP: Setting up the symmetry group for a 
 hexagonal supercell.


 Subroutine GETGRP returns: Found  1 space group operations
 (whereof  1 operations were pure point group operations)
 out of a pool of 24 trial point group operations.


The constrained configuration has the point symmetry C_1 .


Analysis of structural, dynamic, and magnetic symmetry:
=====================================================================
 Subroutine PRICEL returns:
 Original cell was already a primitive cell.
 

 Routine SETGRP: Setting up the symmetry group for a 
 hexagonal supercell.


 Subroutine GETGRP returns: Found  1 space group operations
 (whereof  1 operations were pure point group operations)
 out of a pool of 24 trial point group operations.


The magnetic configuration has the point symmetry C_1 .


 Subroutine INISYM returns: Found  1 space group operations
 (whereof  1 operations are pure point group operations),
 and found     1 'primitive' translations

 
 
 KPOINTS: mesh auto                               

Automatic generation of k-mesh.
Space group operators:
 irot       det(A)        alpha          n_x          n_y          n_z        tau_x        tau_y        tau_z
    1     1.000000     0.000001     1.000000     0.000000     0.000000     0.000000     0.000000     0.000000
 
 Subroutine IBZKPT returns following result:
 ===========================================
 
 Found      4 irreducible k-points:
 
 Following reciprocal coordinates:
            Coordinates               Weight
  0.000000  0.000000  0.000000      1.000000
  0.500000  0.000000  0.000000      1.000000
  0.000000  0.500000  0.000000      1.000000
  0.500000  0.500000  0.000000      1.000000
 
 Following cartesian coordinates:
            Coordinates               Weight
  0.000000  0.000000  0.000000      1.000000
  0.047348 -0.027337  0.000000      1.000000
  0.000000  0.054673  0.000000      1.000000
  0.047348  0.027337  0.000000      1.000000
 


--------------------------------------------------------------------------------------------------------




 Dimension of arrays:
   k-points           NKPTS =      4   k-points in BZ     NKDIM =      4   number of bands    NBANDS=    520
   number of dos      NEDOS =    301   number of ions     NIONS =     80
   non local maximal  LDIM  =      6   non local SUM 2l+1 LMDIM =     18
   total plane-waves  NPLWV = ******
   max r-space proj   IRMAX =   7802   max aug-charges    IRDMAX=  33988
   dimension x,y,z NGX =    84 NGY =   84 NGZ =  168
   dimension x,y,z NGXF=   168 NGYF=  168 NGZF=  336
   support grid    NGXF=   168 NGYF=  168 NGZF=  336
   ions per type =              80
   NGX,Y,Z   is equivalent  to a cutoff of  13.22, 13.22, 12.70 a.u.
   NGXF,Y,Z  is equivalent  to a cutoff of  26.45, 26.45, 25.39 a.u.

 SYSTEM =  Pt111                                   
 POSCAR =  Pt111                                   

 Startparameter for this run:
   NWRITE =      2    write-flag & timer
   PREC   = accura    normal or accurate (medium, high low for compatibility)
   ISTART =      0    job   : 0-new  1-cont  2-samecut
   ICHARG =      2    charge: 1-file 2-atom 10-const
   ISPIN  =      2    spin polarized calculation?
   LNONCOLLINEAR =      F non collinear calculations
   LSORBIT =      F    spin-orbit coupling
   INIWAV =      1    electr: 0-lowe 1-rand  2-diag
   LASPH  =      F    aspherical Exc in radial PAW
   METAGGA=      F    non-selfconsistent MetaGGA calc.

 Electronic Relaxation 1
   ENCUT  =  550.0 eV  40.42 Ry    6.36 a.u.  20.19 20.19 42.07*2*pi/ulx,y,z
   ENINI  =  550.0     initial cutoff
   ENAUG  =  359.0 eV  augmentation charge cutoff
   NELM   =    200;   NELMIN=  2; NELMDL= -5     # of ELM steps 
   EDIFF  = 0.1E-04   stopping-criterion for ELM
   LREAL  =      T    real-space projection
   NLSPLINE    = F    spline interpolate recip. space projectors
   LCOMPAT=      F    compatible to vasp.4.4
   GGA_COMPAT  = T    GGA compatible to vasp.4.4-vasp.4.6
   LMAXPAW     = -100 max onsite density
   LMAXMIX     =    2 max onsite mixed and CHGCAR
   VOSKOWN=      0    Vosko Wilk Nusair interpolation
   ROPT   =   -0.00025
 Ionic relaxation
   EDIFFG = -.5E-01   stopping-criterion for IOM
   NSW    =    300    number of steps for IOM
   NBLOCK =      1;   KBLOCK =    300    inner block; outer block 
   IBRION =      2    ionic relax: 0-MD 1-quasi-New 2-CG
   NFREE  =      1    steps in history (QN), initial steepest desc. (CG)
   ISIF   =      2    stress and relaxation
   IWAVPR =     11    prediction:  0-non 1-charg 2-wave 3-comb
   ISYM   =      2    0-nonsym 1-usesym 2-fastsym
   LCORR  =      T    Harris-Foulkes like correction to forces

   POTIM  = 0.5000    time-step for ionic-motion
   TEIN   =    0.0    initial temperature
   TEBEG  =    0.0;   TEEND  =   0.0 temperature during run
   SMASS  =  -3.00    Nose mass-parameter (am)
   estimated Nose-frequenzy (Omega)   =  0.10E-29 period in steps =****** mass=  -0.255E-26a.u.
   SCALEE = 1.0000    scale energy and forces
   NPACO  =    256;   APACO  = 16.0  distance and # of slots for P.C.
   PSTRESS=    0.0 pullay stress

  Mass of Ions in am
   POMASS = 195.08
  Ionic Valenz
   ZVAL   =  10.00
  Atomic Wigner-Seitz radii
   RWIGS  =  -1.00
  virtual crystal weights 
   VCA    =   1.00
   NELECT =     800.0000    total number of electrons
   NUPDOWN=      -1.0000    fix difference up-down

 DOS related values:
   EMIN   =  10.00;   EMAX   =-10.00  energy-range for DOS
   EFERMI =   0.00
   ISMEAR =     1;   SIGMA  =   0.10  broadening in eV -4-tet -1-fermi 0-gaus

 Electronic relaxation 2 (details)
   IALGO  =     68    algorithm
   LDIAG  =      T    sub-space diagonalisation (order eigenvalues)
   LSUBROT=      F    optimize rotation matrix (better conditioning)
   TURBO    =      0    0=normal 1=particle mesh
   IRESTART =      0    0=no restart 2=restart with 2 vectors
   NREBOOT  =      0    no. of reboots
   NMIN     =      0    reboot dimension
   EREF     =   0.00    reference energy to select bands
   IMIX   =      4    mixing-type and parameters
     AMIX     =   0.40;   BMIX     =  1.00
     AMIX_MAG =   1.60;   BMIX_MAG =  1.00
     AMIN     =   0.10
     WC   =   100.;   INIMIX=   1;  MIXPRE=   1;  MAXMIX= -45

 Intra band minimization:
   WEIMIN = 0.0010     energy-eigenvalue tresh-hold
   EBREAK =  0.48E-08  absolut break condition
   DEPER  =   0.30     relativ break condition  

   TIME   =   0.40     timestep for ELM

  volume/ion in A,a.u.               =      26.56       179.22
  Fermi-wavevector in a.u.,A,eV,Ry     =   1.182164  2.233966 19.014305  1.397512
  Thomas-Fermi vector in A             =   2.318424
 
 Write flags
   LWAVE        =      F    write WAVECAR
   LDOWNSAMPLE  =      F    k-point downsampling of WAVECAR
   LCHARG       =      F    write CHGCAR
   LVTOT        =      F    write LOCPOT, total local potential
   LVHAR        =      F    write LOCPOT, Hartree potential only
   LELF         =      F    write electronic localiz. function (ELF)
   LORBIT       =      0    0 simple, 1 ext, 2 COOP (PROOUT), +10 PAW based schemes


 Dipole corrections
   LMONO  =      F    monopole corrections only (constant potential shift)
   LDIPOL =      F    correct potential (dipole corrections)
   IDIPOL =      0    1-x, 2-y, 3-z, 4-all directions 
   EPSILON=  1.0000000 bulk dielectric constant

 Exchange correlation treatment:
   GGA     =    --    GGA type
   LEXCH   =     8    internal setting for exchange type
   VOSKOWN=      0    Vosko Wilk Nusair interpolation
   LHFCALC =     F    Hartree Fock is set to
   LHFONE  =     F    Hartree Fock one center treatment
   AEXX    =    0.0000 exact exchange contribution

 Linear response parameters
   LEPSILON=     F    determine dielectric tensor
   LRPA    =     F    only Hartree local field effects (RPA)
   LNABLA  =     F    use nabla operator in PAW spheres
   LVEL    =     F    velocity operator in full k-point grid
   LINTERFAST=   F  fast interpolation
   KINTER  =     0    interpolate to denser k-point grid
   CSHIFT  =0.1000    complex shift for real part using Kramers Kronig
   OMEGAMAX=  -1.0    maximum frequency
   DEG_THRESHOLD= 0.2000000E-02 threshold for treating states as degnerate
   RTIME   =   -0.100 relaxation time in fs
  (WPLASMAI=    0.000 imaginary part of plasma frequency in eV, 0.658/RTIME)
   DFIELD  = 0.0000000 0.0000000 0.0000000 field for delta impulse in time
 
 Orbital magnetization related:
   ORBITALMAG=     F  switch on orbital magnetization
   LCHIMAG   =     F  perturbation theory with respect to B field
   DQ        =  0.001000  dq finite difference perturbation B field
   LLRAUG    =     F  two centre corrections for induced B field



--------------------------------------------------------------------------------------------------------


 conjugate gradient relaxation of ions
   using selective dynamics as specified on POSCAR
   WARNING: If single coordinates had been selected the selection of coordinates
            is made according to the corresponding   d i r e c t   coordinates!
            Don't support selection of single cartesian coordinates -- sorry ...
  !
 charge density and potential will be updated during run
 spin polarized calculation
 RMM-DIIS sequential band-by-band and
  variant of blocked Davidson during initial phase
 perform sub-space diagonalisation
    before iterative eigenvector-optimisation
 modified Broyden-mixing scheme, WC =      100.0
 initial mixing is a Kerker type mixing with AMIX =  0.4000 and BMIX =      1.0000
 Hartree-type preconditioning will be used
 using additional bands          120
 real space projection scheme for non local part
 use partial core corrections
 calculate Harris-corrections to forces 
   (improved forces if not selfconsistent)
 use gradient corrections 
 use of overlap-Matrix (Vanderbilt PP)
 Methfessel and Paxton  Order N= 1 SIGMA  =   0.10


--------------------------------------------------------------------------------------------------------


  energy-cutoff  :      550.00
  volume of cell :     2124.62
      direct lattice vectors                 reciprocal lattice vectors
    10.560000006  0.000000000  0.000000000     0.094696970 -0.054673321  0.000000000
     5.280000210  9.145228627  0.000000000     0.000000000  0.109346638  0.000000000
     0.000000000  0.000000000 22.000000000     0.000000000  0.000000000  0.045454545

  length of vectors
    10.560000006 10.560000420 22.000000000     0.109346642  0.109346638  0.045454545


 
 k-points in units of 2pi/SCALE and weight: mesh auto                               
   0.00000000  0.00000000  0.00000000       0.250
   0.04734848 -0.02733666  0.00000000       0.250
   0.00000000  0.05467332  0.00000000       0.250
   0.04734848  0.02733666  0.00000000       0.250
 
 k-points in reciprocal lattice and weights: mesh auto                               
   0.00000000  0.00000000  0.00000000       0.250
   0.50000000  0.00000000  0.00000000       0.250
   0.00000000  0.50000000  0.00000000       0.250
   0.50000000  0.50000000  0.00000000       0.250
 
 position of ions in fractional coordinates (direct lattice) 
   0.78110701  0.87276402  0.33620872
   0.03114748  0.87264708  0.33489348
   0.03121150  0.62270400  0.33535609
   0.78752787  0.86760443  0.00652544
   0.03755334  0.86738732  0.00672673
   0.03760575  0.61743499  0.00695896
   0.61962120  0.20155295  0.11752746
   0.36970429  0.95148074  0.11772946
   0.03096087  0.37321358  0.33456896
   0.03765938  0.36737149  0.00693778
   0.86967212  0.20147513  0.11763988
   0.95080437  0.53674962  0.22546608
   0.28156248  0.12261135  0.33415697
   0.53110785  0.62239472  0.34195109
   0.28173379  0.37367363  0.33742156
   0.28757938  0.11729256  0.00693499
   0.53778144  0.61738218  0.00665825
   0.28767400  0.36732180  0.00711654
   0.61963192  0.95162163  0.11757270
   0.70066290  0.78685112  0.22661921
   0.86975086  0.70168747  0.11768379
   0.61981037  0.45158088  0.11767949
   0.28181444  0.87124761  0.33683969
   0.28759204  0.86737755  0.00669645
   0.61982754  0.70160896  0.11761810
   0.20105802  0.03621292  0.22634132
   0.86257274  0.95761387  0.44643261
   0.11257989  0.45764805  0.44721671
   0.11221144  0.95803680  0.44640138
   0.86251227  0.45762316  0.44612079
   0.36262556  0.95790949  0.44567370
   0.86230241  0.20784096  0.44548132
   0.11258185  0.20779432  0.44398847
   0.61261258  0.95758157  0.44648985
   0.86265355  0.70738946  0.44654822
   0.36280068  0.20779010  0.44582702
   0.36215777  0.70843719  0.45438532
   0.61296394  0.45751823  0.45581434
   0.11297073  0.70743830  0.44705540
   0.61240672  0.20816058  0.44715372
   0.53096681  0.37316064  0.34224354
   0.53763939  0.36745872  0.00671531
   0.53121427  0.12294205  0.33465253
   0.53759656  0.11743104  0.00659585
   0.86980199  0.45152194  0.11782677
   0.11965372  0.45163271  0.11804215
   0.03099114  0.12251763  0.33421229
   0.03749562  0.11734930  0.00677099
   0.11957289  0.95153243  0.11775804
   0.36242909  0.45753212  0.45596730
   0.45050454  0.53708390  0.23457913
   0.61236050  0.70734238  0.44690346
   0.36971476  0.20147859  0.11794211
   0.11948647  0.20156983  0.11789106
   0.95081177  0.78684518  0.22682250
   0.78096717  0.62274159  0.33486250
   0.28150121  0.62245151  0.34230021
   0.78774504  0.61742861  0.00667106
   0.28763603  0.61740049  0.00700940
   0.36992036  0.70156853  0.11780609
   0.36988605  0.45154319  0.11796807
   0.20104091  0.28737962  0.22664690
   0.77966305  0.37350013  0.33627068
   0.78769686  0.36732893  0.00668235
   0.95073535  0.03706080  0.22506595
   0.45081081  0.78562316  0.22766322
   0.69921561  0.53733380  0.22736774
   0.20169400  0.78558631  0.22791634
   0.45049013  0.03706056  0.22495683
   0.11966668  0.70171382  0.11794259
   0.70055305  0.03712685  0.22652968
   0.78081389  0.12297486  0.33453860
   0.53128884  0.87258579  0.33456684
   0.78757893  0.11748274  0.00648215
   0.53760003  0.86744597  0.00661329
   0.20167199  0.53724296  0.22829220
   0.94999031  0.28727153  0.22618789
   0.86966068  0.95156485  0.11758945
   0.69911240  0.28816433  0.22717970
   0.45074800  0.28824561  0.22783099
 
 position of ions in cartesian coordinates  (Angst):
  12.85668426  7.98162651  7.39659194
   4.93649414  7.98055704  7.36765664
   3.61747071  5.69477043  7.37783405
  12.89724585  7.93444089  0.14355968
   4.97636851  7.93245534  0.14798806
   3.65717364  5.64658412  0.15309704
   7.60739952  1.84324777  2.58560418
   8.92789578  8.70150889  2.59004811
   2.29751454  3.41312356  7.36051705
   2.33740456  3.35969627  0.15263108
  10.24752636  1.84253612  2.58807746
  12.87453222  4.90869797  4.96025375
   3.62068778  1.12130883  7.35145339
   8.89474312  5.69194204  7.52292407
   4.94810566  3.41733079  7.42327432
   3.65614304  1.07266729  0.15256977
   8.93875008  5.64610116  0.14648151
   4.97729658  3.35924184  0.15656384
  11.56787550  8.70279735  2.58659947
  11.55357434  7.19593337  4.98562269
  12.88947904  6.41709233  2.58904344
   8.92954466  4.12981040  2.58894883
   7.57614808  7.96775856  7.41047323
   7.61672558  7.93236598  0.14732190
  10.24987430  6.41637436  2.58759815
   2.31437691  0.33117542  4.97950899
  14.16496952  8.75759774  9.82151740
   3.60522541  4.18529606  9.83876761
   6.24338729  8.76146554  9.82083040
  11.52438001  4.18506845  9.81465746
   8.88708816  8.76030125  9.80482130
  10.20331371  1.90075308  9.80058902
   2.28601842  1.90032652  9.76774628
  11.52521975  8.75730243  9.82277667
  12.84463803  6.46923835  9.82406083
   4.92830696  1.90028793  9.80819444
   7.56493455  6.47882004  9.99647710
   8.88859554  4.18410883 10.02791551
   4.92824528  6.46968496  9.83521885
   7.56610291  1.90367613  9.83738190
   7.57729772  3.41263936  7.52935798
   7.61765408  3.36049399  0.14773674
   6.25875675  1.12433314  7.36235569
   6.29705563  1.07393372  0.14510867
  11.56914501  4.12927141  2.59218894
   3.64816412  4.13028443  2.59692734
   0.97415954  1.12045173  7.35267027
   1.01555808  1.07318621  0.14896182
   6.28678113  8.70198160  2.59067694
   6.24302086  4.18423582 10.03128064
   7.59313100  4.91175502  5.16074085
  10.20129479  6.46880782  9.83187617
   4.96799489  1.84256775  2.59472652
   2.32606594  1.84340221  2.59360339
  14.19511502  7.19587909  4.99009499
  11.53508904  5.69511421  7.36697490
   6.25919692  5.69246139  7.53060454
  11.57861087  5.64652582  0.14676326
   6.29731119  5.64626865  0.15420676
   7.61064093  6.41600457  2.59173394
   6.29014482  4.12946571  2.59529750
   3.64035648  2.62815234  4.98623180
  10.20532253  3.41574408  7.39795495
  10.25757568  3.35930705  0.14701167
  10.23544639  0.33892951  4.95145090
   8.90865259  7.18470345  5.00859073
  10.22083941  4.91404045  5.00209039
   6.27778452  7.18436641  5.01415948
   4.95285558  0.33892730  4.94905032
   4.96872932  6.41733334  2.59473689
   7.59387000  0.33953357  4.98365294
   8.89470194  1.12463322  7.35984921
  10.21766329  7.97999651  7.36047042
   8.93714239  1.07440654  0.14260727
  10.25717118  7.93299171  0.14549228
   4.96629919  4.91320971  5.02242842
  11.54869135  2.62716379  4.97613368
  14.20787943  8.70227815  2.58696792
   8.90413474  2.63532871  4.99795347
   6.28183573  2.63607199  5.01228174
 


--------------------------------------------------------------------------------------------------------


 k-point  1 :   0.0000 0.0000 0.0000  plane waves:   62167
 k-point  2 :   0.5000 0.0000 0.0000  plane waves:   62242
 k-point  3 :   0.0000 0.5000 0.0000  plane waves:   62242
 k-point  4 :   0.5000 0.5000 0.0000  plane waves:   62242

 maximum and minimum number of plane-waves per node :     15586    15521

 maximum number of plane-waves:     62242
 maximum index in each direction: 
   IXMAX=   20   IYMAX=   20   IZMAX=   42
   IXMIN=  -20   IYMIN=  -20   IZMIN=  -42


 real space projection operators:
  total allocation   :      84708.56 KBytes
  max/ min on nodes  :      21183.33      21171.80


 parallel 3D FFT for wavefunctions:
    minimum data exchange during FFTs selected (reduces bandwidth)
 parallel 3D FFT for charge:
    minimum data exchange during FFTs selected (reduces bandwidth)


 total amount of memory used by VASP MPI-rank0   235395. kBytes
=======================================================================

   base      :      30000. kBytes
   nonlr-proj:      36669. kBytes
   fftplans  :      17962. kBytes
   grid      :      44179. kBytes
   one-center:        622. kBytes
   wavefun   :     105963. kBytes
 
     INWAV:  cpu time    0.0001: real time    0.0001
 Broyden mixing: mesh for mixing (old mesh)
   NGX = 41   NGY = 41   NGZ = 85
  (NGX  =168   NGY  =168   NGZ  =336)
  gives a total of 142885 points

 initial charge density was supplied:
 charge density of overlapping atoms calculated
 number of electron     800.0000000 magnetization      80.0000000
 keeping initial charge density in first step


--------------------------------------------------------------------------------------------------------


 Maximum index for non-local projection operator         1906
 Maximum index for augmentation-charges         2072 (set IRDMAX)


--------------------------------------------------------------------------------------------------------


 First call to EWALD:  gamma=   0.138
 Maximum number of real-space cells 4x 4x 2
 Maximum number of reciprocal cells 2x 2x 4

    FEWALD:  cpu time    0.0037: real time    0.0037


--------------------------------------- Iteration      1(   1)  ---------------------------------------


    POTLOK:  cpu time    0.4128: real time    0.4192
    SETDIJ:  cpu time    0.0352: real time    0.0354
     EDDAV:  cpu time   59.4432: real time   59.5931
       DOS:  cpu time    0.0023: real time    0.0023
    --------------------------------------------
      LOOP:  cpu time   59.8935: real time   60.0499

 eigenvalue-minimisations  :  8320
 total energy-change (2. order) : 0.5673124E+04  (-0.3980562E+05)
 number of electron     800.0000000 magnetization      80.0000000
 augmentation part      800.0000000 magnetization      80.0000000

 Free energy of the ion-electron system (eV)
  ---------------------------------------------------
  alpha Z        PSCENC =      2863.44403899
  Ewald energy   TEWEN  =    164991.72285411
  -Hartree energ DENC   =   -230052.03854198
  -exchange      EXHF   =         0.00000000
  -V(xc)+E(xc)   XCENC  =       306.44458309
  PAW double counting   =     55683.70208444   -53421.37691584
  entropy T*S    EENTRO =         0.00279316
  eigenvalues    EBANDS =      6971.97882226
  atomic energy  EATOM  =     58329.24398462
  Solvation  Ediel_sol  =         0.00000000
  ---------------------------------------------------
  free energy    TOTEN  =      5673.12370285 eV

  energy without entropy =     5673.12090969  energy(sigma->0) =     5673.12277180


--------------------------------------------------------------------------------------------------------




--------------------------------------- Iteration      1(   2)  ---------------------------------------


     EDDAV:  cpu time   64.3275: real time   64.4797
       DOS:  cpu time    0.0022: real time    0.0022
    --------------------------------------------
      LOOP:  cpu time   64.3296: real time   64.4818

 eigenvalue-minimisations  :  9220
 total energy-change (2. order) :-0.5853245E+04  (-0.5397479E+04)
 number of electron     800.0000000 magnetization      80.0000000
 augmentation part      800.0000000 magnetization      80.0000000

 Free energy of the ion-electron system (eV)
  ---------------------------------------------------
  alpha Z        PSCENC =      2863.44403899
  Ewald energy   TEWEN  =    164991.72285411
  -Hartree energ DENC   =   -230052.03854198
  -exchange      EXHF   =         0.00000000
  -V(xc)+E(xc)   XCENC  =       306.44458309
  PAW double counting   =     55683.70208444   -53421.37691584
  entropy T*S    EENTRO =         0.00644053
  eigenvalues    EBANDS =      1118.73038921
  atomic energy  EATOM  =     58329.24398462
  Solvation  Ediel_sol  =         0.00000000
  ---------------------------------------------------
  free energy    TOTEN  =      -180.12108283 eV

  energy without entropy =     -180.12752336  energy(sigma->0) =     -180.12322968


--------------------------------------------------------------------------------------------------------




--------------------------------------- Iteration      1(   3)  ---------------------------------------


     EDDAV:  cpu time   65.2718: real time   65.4262
       DOS:  cpu time    0.0022: real time    0.0022
    --------------------------------------------
      LOOP:  cpu time   65.2740: real time   65.4284

 eigenvalue-minimisations  :  9400
 total energy-change (2. order) :-0.2977277E+03  (-0.2751569E+03)
 number of electron     800.0000000 magnetization      80.0000000
 augmentation part      800.0000000 magnetization      80.0000000

 Free energy of the ion-electron system (eV)
  ---------------------------------------------------
  alpha Z        PSCENC =      2863.44403899
  Ewald energy   TEWEN  =    164991.72285411
  -Hartree energ DENC   =   -230052.03854198
  -exchange      EXHF   =         0.00000000
  -V(xc)+E(xc)   XCENC  =       306.44458309
  PAW double counting   =     55683.70208444   -53421.37691584
  entropy T*S    EENTRO =        -0.09147979
  eigenvalues    EBANDS =       821.10064673
  atomic energy  EATOM  =     58329.24398462
  Solvation  Ediel_sol  =         0.00000000
  ---------------------------------------------------
  free energy    TOTEN  =      -477.84874563 eV

  energy without entropy =     -477.75726585  energy(sigma->0) =     -477.81825237


--------------------------------------------------------------------------------------------------------




--------------------------------------- Iteration      1(   4)  ---------------------------------------


     EDDAV:  cpu time   67.4122: real time   67.5745
       DOS:  cpu time    0.0022: real time    0.0022
    --------------------------------------------
      LOOP:  cpu time   67.4144: real time   67.5766

 eigenvalue-minimisations  :  9770
 total energy-change (2. order) :-0.7982945E+01  (-0.7905898E+01)
 number of electron     800.0000000 magnetization      80.0000000
 augmentation part      800.0000000 magnetization      80.0000000

 Free energy of the ion-electron system (eV)
  ---------------------------------------------------
  alpha Z        PSCENC =      2863.44403899
  Ewald energy   TEWEN  =    164991.72285411
  -Hartree energ DENC   =   -230052.03854198
  -exchange      EXHF   =         0.00000000
  -V(xc)+E(xc)   XCENC  =       306.44458309
  PAW double counting   =     55683.70208444   -53421.37691584
  entropy T*S    EENTRO =        -0.09702382
  eigenvalues    EBANDS =       813.12324612
  atomic energy  EATOM  =     58329.24398462
  Solvation  Ediel_sol  =         0.00000000
  ---------------------------------------------------
  free energy    TOTEN  =      -485.83169027 eV

  energy without entropy =     -485.73466645  energy(sigma->0) =     -485.79934900


--------------------------------------------------------------------------------------------------------




--------------------------------------- Iteration      1(   5)  ---------------------------------------


     EDDAV:  cpu time   66.9087: real time   67.0680
       DOS:  cpu time    0.0021: real time    0.0021
    CHARGE:  cpu time    4.1874: real time    4.1976
    MIXING:  cpu time    0.0100: real time    0.0104
    --------------------------------------------
      LOOP:  cpu time   71.1083: real time   71.2781

 eigenvalue-minimisations  :  9690
 total energy-change (2. order) :-0.2755546E+00  (-0.2749359E+00)
 number of electron     800.0000037 magnetization      73.8872190
 augmentation part      232.0032901 magnetization      57.8385677

 Broyden mixing:
  rms(total) = 0.12016E+02    rms(broyden)= 0.12016E+02
  rms(prec ) = 0.12117E+02
  weight for this iteration     100.00

 Free energy of the ion-electron system (eV)
  ---------------------------------------------------
  alpha Z        PSCENC =      2863.44403899
  Ewald energy   TEWEN  =    164991.72285411
  -Hartree energ DENC   =   -230052.03854198
  -exchange      EXHF   =         0.00000000
  -V(xc)+E(xc)   XCENC  =       306.44458309
  PAW double counting   =     55683.70208444   -53421.37691584
  entropy T*S    EENTRO =        -0.09683056
  eigenvalues    EBANDS =       812.84749823
  atomic energy  EATOM  =     58329.24398462
  Solvation  Ediel_sol  =         0.00000000
  ---------------------------------------------------
  free energy    TOTEN  =      -486.10724490 eV

  energy without entropy =     -486.01041434  energy(sigma->0) =     -486.07496805


--------------------------------------------------------------------------------------------------------




--------------------------------------- Iteration      1(   6)  ---------------------------------------


    POTLOK:  cpu time    0.3973: real time    0.3983
    SETDIJ:  cpu time    0.0348: real time    0.0349
    EDDIAG:  cpu time   10.2328: real time   10.2573
  RMM-DIIS:  cpu time   36.5231: real time   36.6096
    ORTHCH:  cpu time    1.1821: real time    1.1849
       DOS:  cpu time    0.0027: real time    0.0028
    CHARGE:  cpu time    4.1614: real time    4.1764
    MIXING:  cpu time    0.0112: real time    0.0113
    --------------------------------------------
      LOOP:  cpu time   52.5454: real time   52.6755

 eigenvalue-minimisations  :  8360
 total energy-change (2. order) : 0.2712112E+02  (-0.7259901E+01)
 number of electron     800.0000040 magnetization      67.6469787
 augmentation part      244.1162799 magnetization      50.3726760

 Broyden mixing:
  rms(total) = 0.82547E+01    rms(broyden)= 0.82547E+01
  rms(prec ) = 0.88801E+01
  weight for this iteration     100.00

 eigenvalues of (default mixing * dielectric matrix)
  average eigenvalue GAMMA=   1.1275
  1.1275

 Free energy of the ion-electron system (eV)
  ---------------------------------------------------
  alpha Z        PSCENC =      2863.44403899
  Ewald energy   TEWEN  =    164991.72285411
  -Hartree energ DENC   =   -229121.42178461
  -exchange      EXHF   =         0.00000000
  -V(xc)+E(xc)   XCENC  =       291.73145047
  PAW double counting   =     63752.51486939   -61626.13978555
  entropy T*S    EENTRO =         0.01246071
  eigenvalues    EBANDS =        59.90578584
  atomic energy  EATOM  =     58329.24398462
  Solvation  Ediel_sol  =         0.00000000
  ---------------------------------------------------
  free energy    TOTEN  =      -458.98612603 eV

  energy without entropy =     -458.99858674  energy(sigma->0) =     -458.99027960


--------------------------------------------------------------------------------------------------------




--------------------------------------- Iteration      1(   7)  ---------------------------------------


    POTLOK:  cpu time    0.3962: real time    0.3975
    SETDIJ:  cpu time    0.0350: real time    0.0351
    EDDIAG:  cpu time   10.2266: real time   10.2569
  RMM-DIIS:  cpu time   35.8002: real time   35.9047
    ORTHCH:  cpu time    1.0509: real time    1.0540
       DOS:  cpu time    0.0019: real time    0.0019
    CHARGE:  cpu time    4.2848: real time    4.2955
    MIXING:  cpu time    0.0094: real time    0.0094
    --------------------------------------------
      LOOP:  cpu time   51.8051: real time   51.9549

 eigenvalue-minimisations  :  8322
 total energy-change (2. order) :-0.2402489E+03  (-0.2185357E+02)
 number of electron     800.0000040 magnetization      60.7014955
 augmentation part      237.1551086 magnetization      51.2908039

 Broyden mixing:
  rms(total) = 0.13686E+02    rms(broyden)= 0.13686E+02
  rms(prec ) = 0.17656E+02
  weight for this iteration     100.00

 eigenvalues of (default mixing * dielectric matrix)
  average eigenvalue GAMMA=   0.9151
  1.5789  0.2513

 Free energy of the ion-electron system (eV)
  ---------------------------------------------------
  alpha Z        PSCENC =      2863.44403899
  Ewald energy   TEWEN  =    164991.72285411
  -Hartree energ DENC   =   -230336.20994630
  -exchange      EXHF   =         0.00000000
  -V(xc)+E(xc)   XCENC  =       283.40353172
  PAW double counting   =     69560.47865216   -67496.68136338
  entropy T*S    EENTRO =        -0.00228861
  eigenvalues    EBANDS =      1105.36547746
  atomic energy  EATOM  =     58329.24398462
  Solvation  Ediel_sol  =         0.00000000
  ---------------------------------------------------
  free energy    TOTEN  =      -699.23505922 eV

  energy without entropy =     -699.23277061  energy(sigma->0) =     -699.23429635


--------------------------------------------------------------------------------------------------------




--------------------------------------- Iteration      1(   8)  ---------------------------------------


    POTLOK:  cpu time    0.3955: real time    0.3965
    SETDIJ:  cpu time    0.0347: real time    0.0348
    EDDIAG:  cpu time   10.3436: real time   10.3684
  RMM-DIIS:  cpu time   35.9973: real time   36.0825
    ORTHCH:  cpu time    1.0582: real time    1.0607
       DOS:  cpu time    0.0021: real time    0.0021
    CHARGE:  cpu time    4.2413: real time    4.2514
    MIXING:  cpu time    0.0106: real time    0.0106
    --------------------------------------------
      LOOP:  cpu time   52.0833: real time   52.2069

 eigenvalue-minimisations  :  8340
 total energy-change (2. order) : 0.1899695E+03  (-0.7675389E+01)
 number of electron     800.0000043 magnetization      58.5262579
 augmentation part      246.4931778 magnetization      45.1839215

 Broyden mixing:
  rms(total) = 0.76196E+01    rms(broyden)= 0.76196E+01
  rms(prec ) = 0.99765E+01
  weight for this iteration     100.00

 eigenvalues of (default mixing * dielectric matrix)
  average eigenvalue GAMMA=   0.8806
  1.9479  0.4098  0.2840

 Free energy of the ion-electron system (eV)
  ---------------------------------------------------
  alpha Z        PSCENC =      2863.44403899
  Ewald energy   TEWEN  =    164991.72285411
  -Hartree energ DENC   =   -229413.11019916
  -exchange      EXHF   =         0.00000000
  -V(xc)+E(xc)   XCENC  =       282.68140234
  PAW double counting   =     74965.72991067   -72968.65434765
  entropy T*S    EENTRO =        -0.02022145
  eigenvalues    EBANDS =       439.69699934
  atomic energy  EATOM  =     58329.24398462
  Solvation  Ediel_sol  =         0.00000000
  ---------------------------------------------------
  free energy    TOTEN  =      -509.26557818 eV

  energy without entropy =     -509.24535673  energy(sigma->0) =     -509.25883770


--------------------------------------------------------------------------------------------------------




--------------------------------------- Iteration      1(   9)  ---------------------------------------


    POTLOK:  cpu time    0.3964: real time    0.3974
    SETDIJ:  cpu time    0.0348: real time    0.0349
    EDDIAG:  cpu time   10.2157: real time   10.2402
  RMM-DIIS:  cpu time   35.9100: real time   35.9951
    ORTHCH:  cpu time    1.0551: real time    1.0576
       DOS:  cpu time    0.0020: real time    0.0020
    CHARGE:  cpu time    4.1779: real time    4.1878
    MIXING:  cpu time    0.0100: real time    0.0100
    --------------------------------------------
      LOOP:  cpu time   51.8019: real time   51.9250

 eigenvalue-minimisations  :  8347
 total energy-change (2. order) :-0.2542681E+02  (-0.6983614E+01)
 number of electron     800.0000042 magnetization      56.4733515
 augmentation part      245.2592085 magnetization      43.1475352

 Broyden mixing:
  rms(total) = 0.74335E+01    rms(broyden)= 0.74335E+01
  rms(prec ) = 0.12071E+02
  weight for this iteration     100.00

 eigenvalues of (default mixing * dielectric matrix)
  average eigenvalue GAMMA=   0.7804
  2.1478  0.5577  0.2802  0.1360

 Free energy of the ion-electron system (eV)
  ---------------------------------------------------
  alpha Z        PSCENC =      2863.44403899
  Ewald energy   TEWEN  =    164991.72285411
  -Hartree energ DENC   =   -229212.07432712
  -exchange      EXHF   =         0.00000000
  -V(xc)+E(xc)   XCENC  =       283.24388888
  PAW double counting   =     75889.77065197   -73900.81490489
  entropy T*S    EENTRO =         0.02662413
  eigenvalues    EBANDS =       220.74479827
  atomic energy  EATOM  =     58329.24398462
  Solvation  Ediel_sol  =         0.00000000
  ---------------------------------------------------
  free energy    TOTEN  =      -534.69239105 eV

  energy without entropy =     -534.71901518  energy(sigma->0) =     -534.70126576


--------------------------------------------------------------------------------------------------------




--------------------------------------- Iteration      1(  10)  ---------------------------------------


    POTLOK:  cpu time    0.3972: real time    0.3982
    SETDIJ:  cpu time    0.0350: real time    0.0351
    EDDIAG:  cpu time   10.2035: real time   10.2279
  RMM-DIIS:  cpu time   36.2309: real time   36.3201
    ORTHCH:  cpu time    1.0538: real time    1.0564
       DOS:  cpu time    0.0019: real time    0.0020
    CHARGE:  cpu time    4.1585: real time    4.1684
    MIXING:  cpu time    0.0101: real time    0.0102
    --------------------------------------------
      LOOP:  cpu time   52.0911: real time   52.2182

 eigenvalue-minimisations  :  8364
 total energy-change (2. order) : 0.5430089E+02  (-0.3093019E+01)
 number of electron     800.0000040 magnetization      53.4658100
 augmentation part      247.1606992 magnetization      41.8636982

 Broyden mixing:
  rms(total) = 0.60129E+01    rms(broyden)= 0.60129E+01
  rms(prec ) = 0.74960E+01
  weight for this iteration     100.00

 eigenvalues of (default mixing * dielectric matrix)
  average eigenvalue GAMMA=   0.7077
  2.2724  0.6066  0.3517  0.1844  0.1231

 Free energy of the ion-electron system (eV)
  ---------------------------------------------------
  alpha Z        PSCENC =      2863.44403899
  Ewald energy   TEWEN  =    164991.72285411
  -Hartree energ DENC   =   -229253.68836992
  -exchange      EXHF   =         0.00000000
  -V(xc)+E(xc)   XCENC  =       283.04903226
  PAW double counting   =     76430.43800109   -74445.85913877
  entropy T*S    EENTRO =         0.04246290
  eigenvalues    EBANDS =       321.21563616
  atomic energy  EATOM  =     58329.24398462
  Solvation  Ediel_sol  =         0.00000000
  ---------------------------------------------------
  free energy    TOTEN  =      -480.39149856 eV

  energy without entropy =     -480.43396146  energy(sigma->0) =     -480.40565286


--------------------------------------------------------------------------------------------------------




--------------------------------------- Iteration      1(  11)  ---------------------------------------


    POTLOK:  cpu time    0.3966: real time    0.3976
    SETDIJ:  cpu time    0.0352: real time    0.0353
    EDDIAG:  cpu time   10.2148: real time   10.2392
  RMM-DIIS:  cpu time   36.2480: real time   36.3338
    ORTHCH:  cpu time    1.0578: real time    1.0603
       DOS:  cpu time    0.0019: real time    0.0019
    CHARGE:  cpu time    4.1474: real time    4.1573
    MIXING:  cpu time    0.0116: real time    0.0117
    --------------------------------------------
      LOOP:  cpu time   52.1134: real time   52.2371

 eigenvalue-minimisations  :  8371
 total energy-change (2. order) : 0.3101664E+02  (-0.1372223E+01)
 number of electron     800.0000039 magnetization      51.9977884
 augmentation part      247.4248294 magnetization      38.4922444

 Broyden mixing:
  rms(total) = 0.29439E+01    rms(broyden)= 0.29439E+01
  rms(prec ) = 0.36426E+01
  weight for this iteration     100.00

 eigenvalues of (default mixing * dielectric matrix)
  average eigenvalue GAMMA=   0.6691
  2.1683  0.5809  0.5809  0.3435  0.2293  0.1118

 Free energy of the ion-electron system (eV)
  ---------------------------------------------------
  alpha Z        PSCENC =      2863.44403899
  Ewald energy   TEWEN  =    164991.72285411
  -Hartree energ DENC   =   -229182.07505443
  -exchange      EXHF   =         0.00000000
  -V(xc)+E(xc)   XCENC  =       283.47637742
  PAW double counting   =     76902.38479498   -74919.49514940
  entropy T*S    EENTRO =         0.12022773
  eigenvalues    EBANDS =       281.80307107
  atomic energy  EATOM  =     58329.24398462
  Solvation  Ediel_sol  =         0.00000000
  ---------------------------------------------------
  free energy    TOTEN  =      -449.37485489 eV

  energy without entropy =     -449.49508263  energy(sigma->0) =     -449.41493080


--------------------------------------------------------------------------------------------------------




--------------------------------------- Iteration      1(  12)  ---------------------------------------


    POTLOK:  cpu time    0.4013: real time    0.4023
    SETDIJ:  cpu time    0.0352: real time    0.0353
    EDDIAG:  cpu time   10.2561: real time   10.2807
  RMM-DIIS:  cpu time   36.1542: real time   36.2398
    ORTHCH:  cpu time    1.0532: real time    1.0557
       DOS:  cpu time    0.0020: real time    0.0020
    CHARGE:  cpu time    4.1559: real time    4.1658
    MIXING:  cpu time    0.0119: real time    0.0119
    --------------------------------------------
      LOOP:  cpu time   52.0697: real time   52.1934

 eigenvalue-minimisations  :  8378
 total energy-change (2. order) : 0.1397137E+01  (-0.3992576E+00)
 number of electron     800.0000039 magnetization      50.1829283
 augmentation part      247.1307341 magnetization      36.8517524

 Broyden mixing:
  rms(total) = 0.20271E+01    rms(broyden)= 0.20271E+01
  rms(prec ) = 0.23939E+01
  weight for this iteration     100.00

 eigenvalues of (default mixing * dielectric matrix)
  average eigenvalue GAMMA=   0.6604
  2.0898  0.7371  0.7371  0.4355  0.2822  0.2279  0.1131

 Free energy of the ion-electron system (eV)
  ---------------------------------------------------
  alpha Z        PSCENC =      2863.44403899
  Ewald energy   TEWEN  =    164991.72285411
  -Hartree energ DENC   =   -229191.19209286
  -exchange      EXHF   =         0.00000000
  -V(xc)+E(xc)   XCENC  =       283.54206198
  PAW double counting   =     76462.91031552   -74473.66206650
  entropy T*S    EENTRO =         0.00773147
  eigenvalues    EBANDS =       286.00545517
  atomic energy  EATOM  =     58329.24398462
  Solvation  Ediel_sol  =         0.00000000
  ---------------------------------------------------
  free energy    TOTEN  =      -447.97771749 eV

  energy without entropy =     -447.98544896  energy(sigma->0) =     -447.98029465


--------------------------------------------------------------------------------------------------------




--------------------------------------- Iteration      1(  13)  ---------------------------------------


    POTLOK:  cpu time    0.3996: real time    0.4005
    SETDIJ:  cpu time    0.0354: real time    0.0355
    EDDIAG:  cpu time   10.2138: real time   10.2383
  RMM-DIIS:  cpu time   36.1106: real time   36.1960
    ORTHCH:  cpu time    1.0533: real time    1.0558
       DOS:  cpu time    0.0019: real time    0.0019
    CHARGE:  cpu time    4.1489: real time    4.1587
    MIXING:  cpu time    0.0123: real time    0.0124
    --------------------------------------------
      LOOP:  cpu time   51.9758: real time   52.0991

 eigenvalue-minimisations  :  8384
 total energy-change (2. order) : 0.1507343E+01  (-0.2807064E+00)
 number of electron     800.0000040 magnetization      48.0883285
 augmentation part      246.9961467 magnetization      34.6099858

 Broyden mixing:
  rms(total) = 0.14479E+01    rms(broyden)= 0.14479E+01
  rms(prec ) = 0.15721E+01
  weight for this iteration     100.00

 eigenvalues of (default mixing * dielectric matrix)
  average eigenvalue GAMMA=   0.6452
  2.0989  0.8163  0.8163  0.5165  0.1130  0.3178  0.2197  0.2628

 Free energy of the ion-electron system (eV)
  ---------------------------------------------------
  alpha Z        PSCENC =      2863.44403899
  Ewald energy   TEWEN  =    164991.72285411
  -Hartree energ DENC   =   -229211.30464273
  -exchange      EXHF   =         0.00000000
  -V(xc)+E(xc)   XCENC  =       283.37464658
  PAW double counting   =     76274.71904746   -74282.73332877
  entropy T*S    EENTRO =         0.05780307
  eigenvalues    EBANDS =       305.00522250
  atomic energy  EATOM  =     58329.24398462
  Solvation  Ediel_sol  =         0.00000000
  ---------------------------------------------------
  free energy    TOTEN  =      -446.47037417 eV

  energy without entropy =     -446.52817723  energy(sigma->0) =     -446.48964185


--------------------------------------------------------------------------------------------------------




--------------------------------------- Iteration      1(  14)  ---------------------------------------


    POTLOK:  cpu time    0.4074: real time    0.4083
    SETDIJ:  cpu time    0.0353: real time    0.0354
    EDDIAG:  cpu time   10.2492: real time   10.2737
  RMM-DIIS:  cpu time   36.1951: real time   36.2809
    ORTHCH:  cpu time    1.0555: real time    1.0579
       DOS:  cpu time    0.0021: real time    0.0021
    CHARGE:  cpu time    4.1744: real time    4.1843
    MIXING:  cpu time    0.0141: real time    0.0141
    --------------------------------------------
      LOOP:  cpu time   52.1329: real time   52.2567

 eigenvalue-minimisations  :  8375
 total energy-change (2. order) :-0.9611926E+00  (-0.1151484E+00)
 number of electron     800.0000040 magnetization      46.4002671
 augmentation part      246.8974420 magnetization      33.6344983

 Broyden mixing:
  rms(total) = 0.15133E+01    rms(broyden)= 0.15133E+01
  rms(prec ) = 0.17293E+01
  weight for this iteration     100.00

 eigenvalues of (default mixing * dielectric matrix)
  average eigenvalue GAMMA=   0.6422
  2.1445  0.8645  0.8645  0.6338  0.3507  0.3507  0.1129  0.2293  0.2293

 Free energy of the ion-electron system (eV)
  ---------------------------------------------------
  alpha Z        PSCENC =      2863.44403899
  Ewald energy   TEWEN  =    164991.72285411
  -Hartree energ DENC   =   -229236.27116854
  -exchange      EXHF   =         0.00000000
  -V(xc)+E(xc)   XCENC  =       282.88039333
  PAW double counting   =     76280.77075983   -74288.56981657
  entropy T*S    EENTRO =         0.02381320
  eigenvalues    EBANDS =       329.32357426
  atomic energy  EATOM  =     58329.24398462
  Solvation  Ediel_sol  =         0.00000000
  ---------------------------------------------------
  free energy    TOTEN  =      -447.43156677 eV

  energy without entropy =     -447.45537997  energy(sigma->0) =     -447.43950450


--------------------------------------------------------------------------------------------------------




--------------------------------------- Iteration      1(  15)  ---------------------------------------


    POTLOK:  cpu time    0.4141: real time    0.4151
    SETDIJ:  cpu time    0.0451: real time    0.0452
    EDDIAG:  cpu time   10.2354: real time   10.2602
  RMM-DIIS:  cpu time   36.3794: real time   36.4658
    ORTHCH:  cpu time    1.0584: real time    1.0609
       DOS:  cpu time    0.0021: real time    0.0021
    CHARGE:  cpu time    4.1795: real time    4.1894
    MIXING:  cpu time    0.0133: real time    0.0133
    --------------------------------------------
      LOOP:  cpu time   52.3273: real time   52.4522

 eigenvalue-minimisations  :  8382
 total energy-change (2. order) :-0.7129329E+00  (-0.4609765E-01)
 number of electron     800.0000040 magnetization      42.4266005
 augmentation part      246.8975319 magnetization      29.1423024

 Broyden mixing:
  rms(total) = 0.12718E+01    rms(broyden)= 0.12718E+01
  rms(prec ) = 0.15322E+01
  weight for this iteration     100.00

 eigenvalues of (default mixing * dielectric matrix)
  average eigenvalue GAMMA=   0.6790
  2.1603  1.0984  1.0984  0.5943  0.5943  0.3960  0.1129  0.2857  0.2247  0.2247

 Free energy of the ion-electron system (eV)
  ---------------------------------------------------
  alpha Z        PSCENC =      2863.44403899
  Ewald energy   TEWEN  =    164991.72285411
  -Hartree energ DENC   =   -229237.00427740
  -exchange      EXHF   =         0.00000000
  -V(xc)+E(xc)   XCENC  =       282.28355007
  PAW double counting   =     76358.86388916   -74367.66921686
  entropy T*S    EENTRO =         0.04021420
  eigenvalues    EBANDS =       330.93046343
  atomic energy  EATOM  =     58329.24398462
  Solvation  Ediel_sol  =         0.00000000
  ---------------------------------------------------
  free energy    TOTEN  =      -448.14449967 eV

  energy without entropy =     -448.18471387  energy(sigma->0) =     -448.15790440


--------------------------------------------------------------------------------------------------------




--------------------------------------- Iteration      1(  16)  ---------------------------------------


    POTLOK:  cpu time    0.4016: real time    0.4026
    SETDIJ:  cpu time    0.0353: real time    0.0353
    EDDIAG:  cpu time   10.3415: real time   10.3784
  RMM-DIIS:  cpu time   36.3418: real time   36.4278
    ORTHCH:  cpu time    1.0467: real time    1.0491
       DOS:  cpu time    0.0019: real time    0.0020
    CHARGE:  cpu time    4.1625: real time    4.1723
    MIXING:  cpu time    0.0140: real time    0.0141
    --------------------------------------------
      LOOP:  cpu time   52.3452: real time   52.4816

 eigenvalue-minimisations  :  8362
 total energy-change (2. order) :-0.3207471E+01  (-0.1445522E+00)
 number of electron     800.0000040 magnetization      37.1289996
 augmentation part      246.7013953 magnetization      24.7675731

 Broyden mixing:
  rms(total) = 0.11686E+01    rms(broyden)= 0.11686E+01
  rms(prec ) = 0.13135E+01
  weight for this iteration     100.00

 eigenvalues of (default mixing * dielectric matrix)
  average eigenvalue GAMMA=   0.7039
  1.8705  1.3960  1.3960  0.7445  0.7445  0.3930  0.3930  0.1129  0.2358  0.2358
  0.2206

 Free energy of the ion-electron system (eV)
  ---------------------------------------------------
  alpha Z        PSCENC =      2863.44403899
  Ewald energy   TEWEN  =    164991.72285411
  -Hartree energ DENC   =   -229263.42800768
  -exchange      EXHF   =         0.00000000
  -V(xc)+E(xc)   XCENC  =       280.57237514
  PAW double counting   =     76358.75084665   -74367.77941019
  entropy T*S    EENTRO =         0.06485099
  eigenvalues    EBANDS =       356.05649692
  atomic energy  EATOM  =     58329.24398462
  Solvation  Ediel_sol  =         0.00000000
  ---------------------------------------------------
  free energy    TOTEN  =      -451.35197043 eV

  energy without entropy =     -451.41682142  energy(sigma->0) =     -451.37358742


--------------------------------------------------------------------------------------------------------




--------------------------------------- Iteration      1(  17)  ---------------------------------------


    POTLOK:  cpu time    0.4017: real time    0.4026
    SETDIJ:  cpu time    0.0353: real time    0.0354
    EDDIAG:  cpu time   10.2021: real time   10.2265
  RMM-DIIS:  cpu time   36.3824: real time   36.4685
    ORTHCH:  cpu time    1.0519: real time    1.0544
       DOS:  cpu time    0.0020: real time    0.0020
    CHARGE:  cpu time    4.1435: real time    4.1533
    MIXING:  cpu time    0.0137: real time    0.0137
    --------------------------------------------
      LOOP:  cpu time   52.2326: real time   52.3564

 eigenvalue-minimisations  :  8371
 total energy-change (2. order) :-0.2942730E+01  (-0.1777136E+00)
 number of electron     800.0000040 magnetization      33.4150235
 augmentation part      246.4835100 magnetization      21.7145044

 Broyden mixing:
  rms(total) = 0.92108E+00    rms(broyden)= 0.92107E+00
  rms(prec ) = 0.10761E+01
  weight for this iteration     100.00

 eigenvalues of (default mixing * dielectric matrix)
  average eigenvalue GAMMA=   0.7505
  2.2905  2.2905  0.7644  0.7644  0.7106  0.7106  0.1129  0.3284  0.3284  0.2592
  0.2298  0.2163

 Free energy of the ion-electron system (eV)
  ---------------------------------------------------
  alpha Z        PSCENC =      2863.44403899
  Ewald energy   TEWEN  =    164991.72285411
  -Hartree energ DENC   =   -229282.45134524
  -exchange      EXHF   =         0.00000000
  -V(xc)+E(xc)   XCENC  =       279.01088086
  PAW double counting   =     76148.96617933   -74155.32371503
  entropy T*S    EENTRO =         0.03225816
  eigenvalues    EBANDS =       371.06016377
  atomic energy  EATOM  =     58329.24398462
  Solvation  Ediel_sol  =         0.00000000
  ---------------------------------------------------
  free energy    TOTEN  =      -454.29470042 eV

  energy without entropy =     -454.32695857  energy(sigma->0) =     -454.30545313


--------------------------------------------------------------------------------------------------------




--------------------------------------- Iteration      1(  18)  ---------------------------------------


    POTLOK:  cpu time    0.4009: real time    0.4018
    SETDIJ:  cpu time    0.0354: real time    0.0355
    EDDIAG:  cpu time   10.2019: real time   10.2260
  RMM-DIIS:  cpu time   36.2892: real time   36.3751
    ORTHCH:  cpu time    1.0540: real time    1.0566
       DOS:  cpu time    0.0020: real time    0.0020
    CHARGE:  cpu time    4.1485: real time    4.1584
    MIXING:  cpu time    0.0150: real time    0.0150
    --------------------------------------------
      LOOP:  cpu time   52.1470: real time   52.2705

 eigenvalue-minimisations  :  8363
 total energy-change (2. order) :-0.1744952E+01  (-0.8348878E-01)
 number of electron     800.0000040 magnetization      32.0966971
 augmentation part      246.3804721 magnetization      21.5397236

 Broyden mixing:
  rms(total) = 0.69337E+00    rms(broyden)= 0.69337E+00
  rms(prec ) = 0.72545E+00
  weight for this iteration     100.00

 eigenvalues of (default mixing * dielectric matrix)
  average eigenvalue GAMMA=   0.7294
  2.3245  2.3245  0.8364  0.8364  0.6853  0.6853  0.3664  0.3664  0.1129  0.2718
  0.2293  0.2293  0.2138

 Free energy of the ion-electron system (eV)
  ---------------------------------------------------
  alpha Z        PSCENC =      2863.44403899
  Ewald energy   TEWEN  =    164991.72285411
  -Hartree energ DENC   =   -229271.46414054
  -exchange      EXHF   =         0.00000000
  -V(xc)+E(xc)   XCENC  =       278.03434480
  PAW double counting   =     76047.29865483   -74051.94509529
  entropy T*S    EENTRO =         0.02737901
  eigenvalues    EBANDS =       357.59832703
  atomic energy  EATOM  =     58329.24398462
  Solvation  Ediel_sol  =         0.00000000
  ---------------------------------------------------
  free energy    TOTEN  =      -456.03965243 eV

  energy without entropy =     -456.06703145  energy(sigma->0) =     -456.04877877


--------------------------------------------------------------------------------------------------------




--------------------------------------- Iteration      1(  19)  ---------------------------------------


    POTLOK:  cpu time    0.4035: real time    0.4045
    SETDIJ:  cpu time    0.0350: real time    0.0351
    EDDIAG:  cpu time   10.2034: real time   10.2278
  RMM-DIIS:  cpu time   36.4443: real time   36.5306
    ORTHCH:  cpu time    1.0550: real time    1.0575
       DOS:  cpu time    0.0020: real time    0.0020
    CHARGE:  cpu time    4.1414: real time    4.1513
    MIXING:  cpu time    0.0149: real time    0.0149
    --------------------------------------------
      LOOP:  cpu time   52.2995: real time   52.4237

 eigenvalue-minimisations  :  8374
 total energy-change (2. order) :-0.4323041E+00  (-0.1423232E-01)
 number of electron     800.0000040 magnetization      30.7029325
 augmentation part      246.3673633 magnetization      20.5495370

 Broyden mixing:
  rms(total) = 0.61298E+00    rms(broyden)= 0.61298E+00
  rms(prec ) = 0.63087E+00
  weight for this iteration     100.00

 eigenvalues of (default mixing * dielectric matrix)
  average eigenvalue GAMMA=   0.7167
  2.3255  2.3255  0.8905  0.8905  0.6941  0.6941  0.4269  0.4269  0.1129  0.3067
  0.2487  0.2487  0.2210  0.2217

 Free energy of the ion-electron system (eV)
  ---------------------------------------------------
  alpha Z        PSCENC =      2863.44403899
  Ewald energy   TEWEN  =    164991.72285411
  -Hartree energ DENC   =   -229270.37549421
  -exchange      EXHF   =         0.00000000
  -V(xc)+E(xc)   XCENC  =       277.60702424
  PAW double counting   =     76102.19034915   -74107.34686409
  entropy T*S    EENTRO =         0.02848053
  eigenvalues    EBANDS =       357.01367017
  atomic energy  EATOM  =     58329.24398462
  Solvation  Ediel_sol  =         0.00000000
  ---------------------------------------------------
  free energy    TOTEN  =      -456.47195649 eV

  energy without entropy =     -456.50043702  energy(sigma->0) =     -456.48145000


--------------------------------------------------------------------------------------------------------




--------------------------------------- Iteration      1(  20)  ---------------------------------------


    POTLOK:  cpu time    0.4000: real time    0.4009
    SETDIJ:  cpu time    0.0348: real time    0.0349
    EDDIAG:  cpu time   10.2235: real time   10.2512
  RMM-DIIS:  cpu time   36.3059: real time   36.4116
    ORTHCH:  cpu time    1.0512: real time    1.0542
       DOS:  cpu time    0.0020: real time    0.0020
    CHARGE:  cpu time    4.1340: real time    4.1460
    MIXING:  cpu time    0.0147: real time    0.0148
    --------------------------------------------
      LOOP:  cpu time   52.1662: real time   52.3157

 eigenvalue-minimisations  :  8373
 total energy-change (2. order) :-0.4417771E+00  (-0.7547660E-02)
 number of electron     800.0000040 magnetization      26.6140881
 augmentation part      246.3858011 magnetization      16.8571601

 Broyden mixing:
  rms(total) = 0.57081E+00    rms(broyden)= 0.57081E+00
  rms(prec ) = 0.59525E+00
  weight for this iteration     100.00

 eigenvalues of (default mixing * dielectric matrix)
  average eigenvalue GAMMA=   0.7509
  2.7117  2.2175  0.9483  0.9483  0.8618  0.8618  0.4951  0.4951  0.4112  0.1129
  0.2791  0.2557  0.2346  0.2190  0.2115

 Free energy of the ion-electron system (eV)
  ---------------------------------------------------
  alpha Z        PSCENC =      2863.44403899
  Ewald energy   TEWEN  =    164991.72285411
  -Hartree energ DENC   =   -229267.44462759
  -exchange      EXHF   =         0.00000000
  -V(xc)+E(xc)   XCENC  =       277.16146388
  PAW double counting   =     76159.64103043   -74165.41537279
  entropy T*S    EENTRO =         0.02730534
  eigenvalues    EBANDS =       354.70558943
  atomic energy  EATOM  =     58329.24398462
  Solvation  Ediel_sol  =         0.00000000
  ---------------------------------------------------
  free energy    TOTEN  =      -456.91373357 eV

  energy without entropy =     -456.94103891  energy(sigma->0) =     -456.92283535


--------------------------------------------------------------------------------------------------------




--------------------------------------- Iteration      1(  21)  ---------------------------------------


    POTLOK:  cpu time    0.4003: real time    0.4014
    SETDIJ:  cpu time    0.0355: real time    0.0356
    EDDIAG:  cpu time   10.2103: real time   10.2404
  RMM-DIIS:  cpu time   36.3407: real time   36.4465
    ORTHCH:  cpu time    1.0916: real time    1.0947
       DOS:  cpu time    0.0020: real time    0.0020
    CHARGE:  cpu time    4.1032: real time    4.1151
    MIXING:  cpu time    0.0159: real time    0.0159
    --------------------------------------------
      LOOP:  cpu time   52.1996: real time   52.3517

 eigenvalue-minimisations  :  8358
 total energy-change (2. order) :-0.1270625E+01  (-0.3585079E-01)
 number of electron     800.0000040 magnetization      19.5298432
 augmentation part      246.3797846 magnetization      10.7344447

 Broyden mixing:
  rms(total) = 0.53029E+00    rms(broyden)= 0.53029E+00
  rms(prec ) = 0.60424E+00
  weight for this iteration     100.00

 eigenvalues of (default mixing * dielectric matrix)
  average eigenvalue GAMMA=   0.8698
  4.2047  2.2202  1.3113  1.3113  0.7893  0.7893  0.6085  0.6085  0.3915  0.3915
  0.1129  0.2692  0.2523  0.2319  0.2165  0.2081

 Free energy of the ion-electron system (eV)
  ---------------------------------------------------
  alpha Z        PSCENC =      2863.44403899
  Ewald energy   TEWEN  =    164991.72285411
  -Hartree energ DENC   =   -229261.66718606
  -exchange      EXHF   =         0.00000000
  -V(xc)+E(xc)   XCENC  =       276.10862798
  PAW double counting   =     76199.14024269   -74205.27060825
  entropy T*S    EENTRO =         0.02510303
  eigenvalues    EBANDS =       349.06858394
  atomic energy  EATOM  =     58329.24398462
  Solvation  Ediel_sol  =         0.00000000
  ---------------------------------------------------
  free energy    TOTEN  =      -458.18435894 eV

  energy without entropy =     -458.20946197  energy(sigma->0) =     -458.19272661


--------------------------------------------------------------------------------------------------------




--------------------------------------- Iteration      1(  22)  ---------------------------------------


    POTLOK:  cpu time    0.4005: real time    0.4018
    SETDIJ:  cpu time    0.0354: real time    0.0355
    EDDIAG:  cpu time   10.2427: real time   10.2725
[...]
   0.329E+01 0.102E+01 -.135E+04   -.332E+01 -.107E+01 0.135E+04   0.362E-01 0.491E-01 0.475E+00   -.544E-03 0.176E-01 0.243E-01
   -.246E+00 0.187E+01 0.269E+04   0.272E+00 -.187E+01 -.269E+04   -.170E-01 -.299E-01 -.931E-01   -.316E-02 0.136E-02 -.304E-01
   -.129E+01 0.800E+01 0.269E+04   0.137E+01 -.805E+01 -.269E+04   -.712E-01 -.229E-01 -.989E-01   0.309E-02 0.600E-02 -.279E-01
   -.646E+01 -.100E+01 0.268E+04   0.654E+01 0.934E+00 -.268E+04   -.256E-01 0.743E-01 -.618E-01   -.402E-02 -.534E-02 -.268E-01
   0.159E+01 -.767E+01 0.136E+04   -.158E+01 0.781E+01 -.136E+04   -.109E-01 -.155E+00 -.377E+00   -.385E-02 0.280E-02 -.310E-01
   0.445E+00 0.826E+01 0.137E+04   -.475E+00 -.842E+01 -.137E+04   0.316E-01 0.167E+00 -.319E+00   -.201E-02 0.718E-02 -.178E-01
   0.471E+00 0.109E+01 -.133E+04   -.492E+00 -.112E+01 0.133E+04   0.184E-01 0.370E-01 0.418E+00   0.121E-02 0.136E-01 0.346E-01
   -.237E+01 -.445E+01 0.269E+04   0.238E+01 0.442E+01 -.269E+04   0.466E-02 0.503E-01 -.201E+00   -.143E-02 -.680E-02 -.224E-01
   0.706E+01 -.373E+01 0.138E+04   -.718E+01 0.380E+01 -.138E+04   0.116E+00 -.857E-01 -.308E+00   0.155E-01 -.726E-03 -.164E-01
   -.383E+00 -.111E+01 0.240E+02   0.384E+00 0.977E+00 -.241E+02   -.601E-02 0.148E+00 0.120E+00   0.338E-03 -.108E-02 0.189E-01
   0.799E+00 0.479E+00 -.132E+04   -.836E+00 -.438E+00 0.132E+04   0.385E-01 -.351E-01 0.451E+00   0.116E-01 -.988E-02 0.353E-01
   -.405E+01 -.371E+00 -.142E+04   0.411E+01 0.384E+00 0.142E+04   -.664E-01 -.976E-02 0.270E+00   0.230E-02 0.161E-02 0.375E-02
   0.265E+01 0.143E+01 -.137E+04   -.265E+01 -.140E+01 0.137E+04   0.199E-01 -.910E-02 0.322E+00   0.135E-01 0.911E-02 0.111E-01
   -.342E+01 0.400E+00 0.269E+04   0.341E+01 -.411E+00 -.269E+04   0.423E-01 0.307E-02 -.170E+00   -.362E-02 0.168E-02 -.233E-01
   0.935E+01 0.328E+01 0.267E+04   -.943E+01 -.338E+01 -.267E+04   -.250E-01 0.450E-01 0.109E+00   0.395E-02 0.141E-02 -.223E-01
   -.111E+02 -.851E+01 0.268E+04   0.111E+02 0.850E+01 -.268E+04   0.267E-01 0.506E-01 -.688E-01   -.647E-02 -.745E-02 -.242E-01
   -.257E+01 0.165E+01 0.137E+04   0.260E+01 -.167E+01 -.137E+04   -.143E-01 0.705E-02 -.504E+00   -.669E-02 0.146E-02 -.200E-01
   0.132E+01 0.758E+00 0.570E+01   -.134E+01 -.773E+00 -.569E+01   0.231E-01 0.304E-01 -.502E-01   0.336E-02 -.323E-02 0.215E-01
   -.415E+00 -.258E+01 0.136E+04   0.443E+00 0.256E+01 -.136E+04   -.227E-01 0.458E-01 -.523E+00   -.413E-02 -.397E-02 -.176E-01
   0.121E+02 -.729E+01 0.133E+04   -.123E+02 0.737E+01 -.133E+04   0.190E+00 -.775E-01 -.615E+00   -.539E-02 0.399E-02 -.182E-01
   -.204E-01 -.383E+01 -.136E+04   -.806E-02 0.385E+01 0.136E+04   0.244E-01 -.295E-01 0.360E+00   0.826E-03 -.182E-01 0.139E-01
   0.564E+00 0.143E+02 0.268E+04   -.553E+00 -.143E+02 -.268E+04   -.408E-03 -.530E-01 -.806E-01   0.336E-02 0.946E-02 -.244E-01
   0.644E+01 0.265E+01 0.136E+04   -.656E+01 -.276E+01 -.136E+04   0.132E+00 0.116E+00 -.397E+00   -.308E-02 0.432E-02 -.242E-01
   0.115E+00 0.292E+01 0.240E+02   -.117E+00 -.292E+01 -.241E+02   0.221E-02 0.176E-01 0.121E+00   0.236E-02 -.113E-01 0.158E-01
   -.274E+00 -.855E+00 -.268E+04   0.240E+00 0.897E+00 0.268E+04   0.305E-01 -.309E-01 0.100E+00   -.515E-02 -.106E-01 0.112E-01
   0.144E+02 0.544E+01 -.268E+04   -.144E+02 -.541E+01 0.268E+04   -.406E-01 -.351E-01 0.669E-01   0.873E-02 0.164E-01 0.165E-01
   0.195E+01 -.145E+02 -.267E+04   -.195E+01 0.145E+02 0.267E+04   0.429E-02 0.192E-01 0.636E-01   -.983E-02 -.188E-01 0.172E-01
   -.112E+02 0.577E+01 -.267E+04   0.111E+02 -.574E+01 0.267E+04   0.588E-01 -.355E-01 -.877E-02   -.491E-02 0.144E-01 0.219E-01
   -.260E+01 -.131E+02 -.267E+04   0.254E+01 0.132E+02 0.267E+04   0.508E-01 0.116E-01 0.233E-01   0.104E-01 -.197E-01 0.200E-01
   -.110E+02 0.894E+01 -.266E+04   0.110E+02 -.886E+01 0.266E+04   0.408E-01 -.698E-01 -.496E-01   -.146E-01 -.451E-02 0.259E-01
   0.961E+00 0.194E+01 -.266E+04   -.993E+00 -.188E+01 0.266E+04   0.305E-01 -.484E-01 -.168E-01   -.811E-04 -.262E-02 0.191E-01
   0.452E+00 0.713E+00 -.268E+04   -.477E+00 -.657E+00 0.268E+04   0.163E-01 -.489E-01 0.138E+00   0.108E-01 -.849E-02 0.954E-02
   0.144E+01 -.120E+01 -.268E+04   -.146E+01 0.124E+01 0.268E+04   0.114E-01 -.474E-01 0.823E-01   0.418E-02 0.772E-02 0.105E-01
   0.109E+02 0.119E+02 -.267E+04   -.109E+02 -.118E+02 0.267E+04   -.339E-02 -.107E+00 -.128E-01   0.187E-01 -.206E-02 0.212E-01
   -.137E+01 -.201E+02 -.272E+04   0.135E+01 0.200E+02 0.272E+04   0.209E-01 0.922E-01 0.180E+00   0.818E-03 -.904E-02 0.261E-01
   -.184E+02 0.938E+01 -.273E+04   0.183E+02 -.933E+01 0.273E+04   0.109E+00 -.527E-01 0.305E+00   -.399E-02 0.300E-02 0.260E-01
   0.186E+02 -.132E+02 -.268E+04   -.184E+02 0.131E+02 0.268E+04   -.245E+00 0.142E+00 0.315E-01   -.358E-03 -.177E-02 0.196E-02
   -.109E+01 0.246E+02 -.268E+04   0.108E+01 -.243E+02 0.268E+04   0.519E-03 -.382E+00 0.110E+00   0.185E-02 -.436E-02 -.789E-03
   -.151E+01 0.355E+01 -.143E+04   0.152E+01 -.361E+01 0.143E+04   -.188E-01 0.693E-01 0.256E+00   -.482E-03 -.127E-02 0.122E-02
   0.302E+01 -.101E+02 0.267E+04   -.300E+01 0.102E+02 -.267E+04   -.400E-01 -.303E-02 0.107E+00   0.972E-03 -.399E-02 -.222E-01
   0.176E+01 0.332E+01 -.134E+04   -.181E+01 -.325E+01 0.134E+04   0.439E-01 -.535E-01 0.533E+00   0.142E-01 -.136E-01 0.267E-01
   -.339E+01 -.488E+01 0.269E+04   0.342E+01 0.493E+01 -.269E+04   0.262E-01 -.366E-01 -.817E-01   -.528E-02 0.466E-03 -.257E-01
   0.563E+01 -.503E+01 0.137E+04   -.574E+01 0.508E+01 -.137E+04   0.126E+00 -.429E-01 -.337E+00   0.923E-02 -.103E-01 -.151E-01
   -.736E+01 -.479E+01 0.137E+04   0.754E+01 0.481E+01 -.137E+04   -.192E+00 -.182E-01 -.366E+00   -.129E-01 -.981E-02 -.162E-01
   -.598E+00 0.682E-01 -.132E+04   0.607E+00 -.152E-01 0.132E+04   -.157E-01 -.465E-01 0.434E+00   -.851E-02 -.101E-01 0.384E-01
   0.134E+01 0.223E+01 0.269E+04   -.133E+01 -.225E+01 -.269E+04   -.254E-02 -.126E-01 -.197E+00   0.546E-02 0.436E-02 -.234E-01
   -.163E+00 0.885E+01 0.137E+04   0.225E+00 -.902E+01 -.137E+04   -.592E-01 0.181E+00 -.333E+00   0.448E-02 0.147E-01 -.166E-01
   0.151E+02 0.896E+01 -.273E+04   -.150E+02 -.891E+01 0.273E+04   -.743E-01 -.488E-01 0.264E+00   0.559E-02 0.287E-02 0.276E-01
   -.308E+00 0.729E+00 -.975E+02   0.334E+00 -.762E+00 0.982E+02   -.184E-01 0.255E-01 -.738E+00   -.843E-03 0.265E-02 -.829E-02
   -.191E+02 -.122E+02 -.268E+04   0.189E+02 0.121E+02 0.268E+04   0.296E+00 0.165E+00 0.712E-01   0.169E-02 -.274E-02 0.276E-02
   -.691E+01 -.552E+01 0.137E+04   0.704E+01 0.562E+01 -.137E+04   -.139E+00 -.999E-01 -.312E+00   -.965E-02 -.288E-02 -.191E-01
   -.102E+01 -.305E+00 0.137E+04   0.106E+01 0.287E+00 -.137E+04   -.274E-01 0.912E-02 -.254E+00   -.466E-02 0.356E-02 -.869E-02
   -.160E+01 0.945E+00 0.375E+01   0.163E+01 -.956E+00 -.378E+01   -.407E-01 0.270E-01 -.261E-01   -.254E-02 -.359E-02 0.264E-01
   -.214E+01 0.144E+01 -.134E+04   0.211E+01 -.149E+01 0.134E+04   0.893E-02 0.540E-01 0.482E+00   0.676E-02 0.151E-01 0.251E-01
   0.244E+01 -.118E+01 -.142E+04   -.251E+01 0.122E+01 0.142E+04   0.626E-01 -.351E-01 0.210E+00   -.274E-02 0.112E-02 0.260E-02
   0.405E+01 -.263E+01 0.269E+04   -.406E+01 0.255E+01 -.269E+04   -.528E-02 0.944E-01 -.656E-01   -.457E-03 -.417E-02 -.262E-01
   -.654E+01 0.525E+01 0.267E+04   0.666E+01 -.534E+01 -.267E+04   -.229E-01 0.144E-01 0.154E+00   0.624E-03 -.154E-03 -.240E-01
   0.775E+00 0.131E+02 0.132E+04   -.770E+00 -.132E+02 -.132E+04   -.136E-02 0.191E+00 -.624E+00   0.638E-02 -.239E-02 -.161E-01
   -.101E+02 -.695E+01 0.132E+04   0.103E+02 0.702E+01 -.132E+04   -.157E+00 -.636E-01 -.650E+00   0.563E-02 -.270E-02 -.186E-01
   -.228E+01 -.190E+01 0.193E+02   0.230E+01 0.189E+01 -.195E+02   -.395E-01 0.232E-02 0.105E+00   0.855E-02 0.630E-02 0.138E-01
   -.193E+01 0.943E+00 -.135E+04   0.189E+01 -.920E+00 0.135E+04   0.867E-02 -.290E-02 0.366E+00   -.591E-02 0.737E-02 0.190E-01
   0.106E+02 -.766E+01 0.269E+04   -.107E+02 0.764E+01 -.269E+04   -.458E-01 0.597E-01 -.126E+00   0.698E-02 -.385E-02 -.249E-01
   0.915E+00 0.790E+00 0.325E+02   -.830E+00 -.728E+00 -.328E+02   -.106E+00 -.687E-01 0.191E+00   0.362E-02 0.302E-03 0.217E-01
   0.215E+01 0.531E+01 -.143E+02   -.218E+01 -.535E+01 0.143E+02   0.562E-01 0.450E-01 -.115E-01   -.674E-02 -.373E-02 0.234E-02
   0.602E+01 -.986E+00 -.641E+01   -.608E+01 0.970E+00 0.645E+01   0.677E-01 0.346E-01 -.589E-01   -.249E-02 -.325E-02 0.115E-01
   -.185E+01 0.542E+01 -.156E+02   0.188E+01 -.543E+01 0.157E+02   -.507E-01 0.236E-01 -.643E-01   0.860E-02 -.727E-02 0.978E-02
   -.783E+00 0.364E+00 0.345E+02   0.710E+00 -.304E+00 -.347E+02   0.899E-01 -.715E-01 0.234E+00   -.537E-02 0.802E-03 0.182E-01
   -.643E+01 0.462E+01 0.135E+04   0.659E+01 -.473E+01 -.135E+04   -.157E+00 0.118E+00 -.399E+00   -.461E-02 0.143E-02 -.200E-01
   0.732E-01 -.166E+01 0.745E+01   -.609E-01 0.169E+01 -.744E+01   -.171E-01 -.343E-01 -.374E-01   0.953E-03 -.748E-02 0.192E-01
   -.228E+01 0.200E+01 -.134E+04   0.231E+01 -.192E+01 0.134E+04   -.410E-01 -.494E-01 0.501E+00   -.893E-02 -.167E-01 0.284E-01
   -.104E+01 -.347E+01 -.134E+04   0.958E+00 0.351E+01 0.134E+04   0.599E-01 -.421E-01 0.533E+00   0.174E-01 -.107E-01 0.286E-01
   0.548E+01 -.302E+01 0.269E+04   -.545E+01 0.306E+01 -.269E+04   -.749E-01 -.483E-01 -.723E-01   0.347E-02 0.272E-02 -.275E-01
   0.112E+01 0.585E+01 0.269E+04   -.116E+01 -.591E+01 -.269E+04   0.610E-01 -.166E-01 -.104E+00   -.327E-02 0.416E-02 -.252E-01
   -.558E+01 -.916E+00 -.217E+02   0.560E+01 0.888E+00 0.218E+02   -.448E-01 0.453E-01 -.133E+00   0.693E-02 -.353E-02 0.812E-02
   0.187E+01 -.130E+01 0.282E+02   -.189E+01 0.130E+01 -.284E+02   0.351E-01 -.174E-01 0.197E+00   -.646E-02 0.899E-02 0.169E-01
   0.293E+01 0.209E+01 0.137E+04   -.291E+01 -.212E+01 -.137E+04   -.319E-01 0.195E-01 -.500E+00   0.954E-03 0.323E-02 -.171E-01
   0.406E+01 -.492E+01 -.771E+01   -.411E+01 0.496E+01 0.775E+01   0.310E-01 -.596E-01 -.422E-01   0.411E-02 0.925E-02 0.586E-02
   -.370E+01 -.479E+01 -.206E+02   0.373E+01 0.482E+01 0.207E+02   -.162E-01 -.534E-01 -.500E-01   -.459E-02 0.975E-02 -.322E-02
 -----------------------------------------------------------------------------------------------
   -.537E-01 0.110E+00 0.102E+00   -.640E-12 0.663E-12 -.371E-11   0.394E-01 -.972E-01 -.243E+00   0.487E-01 -.700E-01 0.115E+00
 
 
 POSITION                                       TOTAL-FORCE (eV/Angst)
 -----------------------------------------------------------------------------------
     12.85243      7.98654      7.39638        -0.002303      0.004570     -0.002445
      4.93212      7.99100      7.37098         0.006944     -0.015998     -0.009751
      3.60872      5.69762      7.38354         0.015744      0.001426     -0.004645
     12.89725      7.93444      0.14356         0.005110     -0.034082     -0.006083
      4.97637      7.93246      0.14799         0.015833     -0.063063     -0.043376
      3.65717      5.64658      0.15310         0.050196     -0.003238     -0.013848
      7.61072      1.85070      2.60369        -0.003907      0.003030      0.032238
      8.92939      8.68761      2.56533        -0.004711      0.016471     -0.001320
      2.29264      3.41159      7.34746        -0.003063      0.014673     -0.033446
      2.33740      3.35970      0.15263         0.018554      0.017067     -0.146351
     10.24276      1.84817      2.55852         0.012362     -0.011745     -0.010004
     12.87144      4.90548      4.94713        -0.002690      0.010389      0.008344
      3.61200      1.12760      7.33557         0.003334      0.001783     -0.035503
      8.89579      5.69953      7.52942        -0.016348     -0.003304      0.018767
      4.93594      3.41762      7.42633         0.007562      0.013880      0.011347
      3.65614      1.07267      0.15257         0.022384     -0.004605     -0.147357
      8.93875      5.64610      0.14648        -0.108255     -0.054053      0.193431
      4.97730      3.35924      0.15656         0.070508      0.034055      0.014429
     11.57236      8.69950      2.58112         0.006625     -0.007475      0.002923
     11.55348      7.19854      4.99237        -0.001726      0.006271     -0.013049
     12.89212      6.41295      2.59212         0.001873      0.008877     -0.000491
      8.91864      4.13395      2.65309        -0.002565      0.003767     -0.004194
      7.57107      7.98192      7.40998        -0.003993     -0.010276      0.012137
      7.61673      7.93237      0.14732         0.011983     -0.088095      0.004920
     10.24299      6.40910      2.60259        -0.001388      0.003012      0.024041
      2.31321      0.33386      4.94426         0.000971      0.015916     -0.017121
     14.16268      8.76664      9.82246        -0.006192      0.002599     -0.002836
      3.59974      4.19302      9.83940        -0.008687      0.004528      0.001308
      6.24066      8.76643      9.82233        -0.005466      0.014144     -0.005203
     11.52142      4.19307      9.81035         0.002181      0.003337     -0.011461
      8.88180      8.76635      9.80571        -0.001593      0.014240     -0.009623
     10.20190      1.90668      9.79454        -0.002014     -0.000915     -0.015422
      2.28080      1.90675      9.78653        -0.004009      0.009253     -0.033508
     11.51990      8.76702      9.82591        -0.000442      0.002026      0.002359
     12.84122      6.47873      9.82209        -0.002223      0.003608      0.003176
      4.92070      1.90652      9.80556        -0.005265     -0.003161     -0.002354
      7.56193      6.48186      9.97012        -0.003256      0.018303      0.032815
      8.88665      4.18973     10.00417         0.007297      0.000974      0.031441
      4.92527      6.47640      9.84356        -0.017187      0.014986      0.034974
      7.56245      1.91113      9.85113        -0.007045     -0.006058      0.047703
      7.57397      3.41223      7.54455        -0.006591      0.021988      0.023381
      7.61765      3.36049      0.14774        -0.011963      0.100575      0.198508
      6.25105      1.12587      7.36896         0.002913      0.023510      0.003438
      6.29706      1.07393      0.14511         0.051074      0.019758     -0.031648
     11.56220      4.13187      2.56406         0.016596     -0.012531     -0.007886
      3.66371      4.13141      2.58075        -0.019130     -0.011610      0.001347
      0.97380      1.12807      7.33450        -0.009817      0.000638     -0.037529
      1.01556      1.07319      0.14896         0.015611     -0.026808     -0.162499
      6.29394      8.68770      2.56698         0.008048      0.022549     -0.002402
      6.23799      4.18988     10.00381        -0.013400      0.004290      0.029287
      7.59135      4.91327      5.21424         0.000581     -0.001111      0.008328
     10.19773      6.47607      9.84040         0.006789      0.016813      0.036776
      4.98199      1.84906      2.57003        -0.016791     -0.002012     -0.000106
      2.33336      1.84125      2.55591        -0.000094     -0.002064     -0.008034
     14.19081      7.19868      4.99541        -0.002510      0.006427     -0.015016
     11.53369      5.69832      7.37045        -0.020191      0.001440     -0.004301
      6.25005      5.70106      7.53608         0.007494     -0.003821      0.017987
     11.57861      5.64653      0.14676        -0.027257      0.014889     -0.021752
      6.29731      5.64627      0.15421         0.101194     -0.071061      0.228266
      7.61010      6.40222      2.67152         0.005143     -0.006965     -0.015934
      6.30047      4.13375      2.68007         0.007421      0.001528     -0.014755
      3.63918      2.62753      4.95404        -0.019534     -0.005647     -0.014335
     10.20837      3.41620      7.39104        -0.018558      0.013569      0.001614
     10.25758      3.35931      0.14701        -0.053298      0.042976     -0.040733
     10.23610      0.34298      4.92849        -0.010479     -0.003054      0.010990
      8.91075      7.19216      5.03127         0.005025      0.006008     -0.002473
     10.22494      4.91563      5.01477         0.004331      0.003398     -0.012134
      6.27194      7.19297      5.03423        -0.005313      0.009347     -0.005656
      4.95070      0.34107      4.92539         0.005918     -0.007128      0.022192
      4.97913      6.40851      2.61328         0.009372     -0.003720      0.020432
      7.59270      0.33797      4.98857        -0.003073      0.001685     -0.003477
      8.89379      1.12711      7.36312        -0.013512      0.022364      0.001236
     10.21303      7.98955      7.36412        -0.015062     -0.011768     -0.005459
      8.93714      1.07441      0.14261        -0.038742     -0.001559     -0.035213
     10.25717      7.93299      0.14549         0.014853     -0.071906     -0.044617
      4.95650      4.91530      5.04723        -0.010457      0.003266     -0.004954
     11.54781      2.62848      4.93355         0.016529     -0.017317     -0.011513
     14.21196      8.69878      2.58217        -0.007750     -0.004006     -0.001399
      8.90462      2.63126      5.01695        -0.001732     -0.006152     -0.008908
      6.27730      2.63091      5.04414         0.001227     -0.003893      0.001992
 -----------------------------------------------------------------------------------
    total drift:                                0.034419     -0.057148     -0.026033


--------------------------------------------------------------------------------------------------------



  FREE ENERGIE OF THE ION-ELECTRON SYSTEM (eV)
  ---------------------------------------------------
  free  energy   TOTEN  =      -512.64911113 eV

  energy  without entropy=     -512.59423704  energy(sigma->0) =     -512.63081977
 
 d Force = 0.1624943E-02[ 0.126E-02, 0.199E-02]  d Energy = 0.1657839E-02-0.329E-04
 d Force = 0.4670729E+01[ 0.470E+01, 0.464E+01]  d Ewald  = 0.4670726E+01 0.275E-05


--------------------------------------------------------------------------------------------------------


    POTLOK:  cpu time    0.4349: real time    0.4362


--------------------------------------------------------------------------------------------------------


 Conjugate gradient step on ions:
 trial-energy change:   -0.001658  1 .order   -0.001625   -0.001987   -0.001262
  (g-gl).g = 0.274E-02      g.g   = 0.276E-02  gl.gl    = 0.507E-02
 g(Force)  = 0.276E-02   g(Stress)= 0.000E+00 ortho     =-0.303E-03
 gamma     =   0.54098
 trial     =   0.76415
 opt step  =   2.09497  (harmonic =   2.09497) maximal distance =0.01137661
 next E    =  -512.650178   (d E  =  -0.00272)


--------------------------------------------------------------------------------------------------------


  
 reached required accuracy - stopping structural energy minimisation
     LOOP+:  cpu time  526.2808: real time  527.7316
    4ORBIT:  cpu time    0.0000: real time    0.0000

 total amount of memory used by VASP MPI-rank0   235395. kBytes
=======================================================================

   base      :      30000. kBytes
   nonlr-proj:      36669. kBytes
   fftplans  :      17962. kBytes
   grid      :      44179. kBytes
   one-center:        622. kBytes
   wavefun   :     105963. kBytes
 
  
  
 General timing and accounting informations for this job:
 ========================================================
  
                  Total CPU time used (sec):     9427.149
                            User time (sec):     9419.065
                          System time (sec):        8.084
                         Elapsed time (sec):     9452.772
  
                   Maximum memory used (kb):      788196.
                   Average memory used (kb):           0.
  
                          Minor page faults:      2481531
                          Major page faults:            0
                 Voluntary context switches:         4113
