 vasp.5.4.4.18Apr17-6-g9f103f2a35 (build Nov 30 2020 22:55:02) complex          
  
 executed on             LinuxIFC date 2023.08.07  21:51:23
 running on   40 total cores
 distrk:  each k-point on   40 cores,    1 groups
 distr:  one band on NCORES_PER_BAND=   4 cores,   10 groups


--------------------------------------------------------------------------------------------------------


 INCAR:
 POTCAR:    PAW_PBE Pt 04Feb2005                  
 POTCAR:    PAW_PBE H 15Jun2001                   
 POTCAR:    PAW_PBE Pt 04Feb2005                  
   VRHFIN =Pt: s1d9                                                             
   LEXCH  = PE                                                                  
   EATOM  =   729.1176 eV,   53.5886 Ry                                         
                                                                                
   TITEL  = PAW_PBE Pt 04Feb2005                                                
   LULTRA =        F    use ultrasoft PP ?                                      
   IUNSCR =        1    unscreen: 0-lin 1-nonlin 2-no                           
   RPACOR =    2.330    partial core radius                                     
   POMASS =  195.080; ZVAL   =   10.000    mass and valenz                      
   RCORE  =    2.600    outmost cutoff radius                                   
   RWIGS  =    2.750; RWIGS  =    1.455    wigner-seitz radius (au A)           
   ENMAX  =  230.283; ENMIN  =  172.712 eV                                      
   ICORE  =        3    local potential                                         
   LCOR   =        T    correct aug charges                                     
   LPAW   =        T    paw PP                                                  
   EAUG   =  358.966                                                            
   DEXC   =    0.000                                                            
   RMAX   =    2.658    core radius for proj-oper                               
   RAUG   =    1.300    factor for augmentation sphere                          
   RDEP   =    2.761    radius for radial grids                                 
   RDEPT  =    2.203    core radius for aug-charge                              
                                                                                
   Atomic configuration                                                         
   16 entries                                                                   
     n  l   j            E        occ.                                          
     1  0  0.50    -78401.1885   2.0000                                         
     2  0  0.50    -13770.7750   2.0000                                         
     2  1  1.50    -11931.0468   6.0000                                         
     3  0  0.50     -3234.7234   2.0000                                         
     3  1  1.50     -2699.2216   6.0000                                         
     3  2  2.50     -2119.5714  10.0000                                         
     4  0  0.50      -695.1528   2.0000                                         
     4  1  1.50      -519.6034   6.0000                                         
     4  2  2.50      -306.6786  10.0000                                         
     4  3  3.50       -70.1041  14.0000                                         
     5  0  0.50      -101.7747   2.0000                                         
     5  1  1.50       -55.9873   6.0000                                         
     5  2  2.50        -6.1423   9.0000                                         
     6  0  0.50        -5.6573   1.0000                                         
     6  1  1.50        -6.8029   0.0000                                         
     5  3  2.50        -1.3606   0.0000                                         
   Description                                                                  
     l       E           TYP  RCUT    TYP  RCUT                                 
     2     -6.1423404     23  2.500                                             
     2     -7.5029230     23  2.500                                             
     0     -5.6573207     23  2.500                                             
     0      0.7416693     23  2.500                                             
     1     -2.7211652     23  2.600                                             
     1     20.4087390     23  2.600                                             
     3     -1.3605826     23  2.500                                             
  local pseudopotential read in
  partial core-charges read in
  partial kinetic energy density read in
  atomic valenz-charges read in
  non local Contribution for L=           2  read in
    real space projection operators read in
  non local Contribution for L=           2  read in
    real space projection operators read in
  non local Contribution for L=           0  read in
    real space projection operators read in
  non local Contribution for L=           0  read in
    real space projection operators read in
  non local Contribution for L=           1  read in
    real space projection operators read in
  non local Contribution for L=           1  read in
    real space projection operators read in
    PAW grid and wavefunctions read in
 
   number of l-projection  operators is LMAX  =           6
   number of lm-projection operators is LMMAX =          18
 
 POTCAR:    PAW_PBE H 15Jun2001                   
   VRHFIN =H: ultrasoft test                                                    
   LEXCH  = PE                                                                  
   EATOM  =    12.4884 eV,    0.9179 Ry                                         
                                                                                
   TITEL  = PAW_PBE H 15Jun2001                                                 
   LULTRA =        F    use ultrasoft PP ?                                      
   IUNSCR =        0    unscreen: 0-lin 1-nonlin 2-no                           
   RPACOR =    0.000    partial core radius                                     
   POMASS =    1.000; ZVAL   =    1.000    mass and valenz                      
   RCORE  =    1.100    outmost cutoff radius                                   
   RWIGS  =    0.700; RWIGS  =    0.370    wigner-seitz radius (au A)           
   ENMAX  =  250.000; ENMIN  =  200.000 eV                                      
   RCLOC  =    0.701    cutoff for local pot                                    
   LCOR   =        T    correct aug charges                                     
   LPAW   =        T    paw PP                                                  
   EAUG   =  400.000                                                            
   RMAX   =    1.123    core radius for proj-oper                               
   RAUG   =    1.200    factor for augmentation sphere                          
   RDEP   =    1.112    radius for radial grids                                 
   RDEPT  =    0.926    core radius for aug-charge                              
                                                                                
   Atomic configuration                                                         
    2 entries                                                                   
     n  l   j            E        occ.                                          
     1  0  0.50        -6.4927   1.0000                                         
     2  1  0.50        -3.4015   0.0000                                         
   Description                                                                  
     l       E           TYP  RCUT    TYP  RCUT                                 
     0     -6.4927494     23  1.100                                             
     0      6.8029130     23  1.100                                             
     1     -4.0817478     23  1.100                                             
  local pseudopotential read in
  atomic valenz-charges read in
  non local Contribution for L=           0  read in
    real space projection operators read in
  non local Contribution for L=           0  read in
    real space projection operators read in
  non local Contribution for L=           1  read in
    real space projection operators read in
    PAW grid and wavefunctions read in
 
   number of l-projection  operators is LMAX  =           3
   number of lm-projection operators is LMMAX =           5
 
 Optimization of the real space projectors (new method)

 maximal supplied QI-value         = 14.36
 optimisation between [QCUT,QGAM] = [ 11.92, 23.98] = [ 39.79,161.09] Ry 
 Optimized for a Real-space Cutoff    1.49 Angstroem

   l    n(q)    QCUT    max X(q) W(low)/X(q) W(high)/X(q)  e(spline) 
   2     10    11.920    66.195    0.79E-04    0.18E-03    0.24E-06
   2     10    11.920    64.643    0.81E-04    0.19E-03    0.24E-06
   0     11    11.920    95.520    0.28E-04    0.54E-04    0.18E-06
   0     11    11.920    63.403    0.27E-04    0.52E-04    0.17E-06
   1     10    11.920    19.961    0.18E-04    0.11E-03    0.23E-06
   1     10    11.920    13.289    0.25E-04    0.87E-04    0.19E-06
 Optimization of the real space projectors (new method)

 maximal supplied QI-value         = 34.20
 optimisation between [QCUT,QGAM] = [ 11.97, 23.94] = [ 40.13,160.53] Ry 
 Optimized for a Real-space Cutoff    1.18 Angstroem

   l    n(q)    QCUT    max X(q) W(low)/X(q) W(high)/X(q)  e(spline) 
   0      8    11.971    19.460    0.15E-03    0.31E-03    0.25E-06
   0      8    11.971    12.209    0.13E-03    0.29E-03    0.25E-06
   1      8    11.971     4.655    0.22E-03    0.24E-03    0.21E-06
  PAW_PBE Pt 04Feb2005                  :
 energy of atom  1       EATOM= -729.1176
 kinetic energy error for atom=    0.0021 (will be added to EATOM!!)
  PAW_PBE H 15Jun2001                   :
 energy of atom  2       EATOM=  -12.4884
 kinetic energy error for atom=    0.0008 (will be added to EATOM!!)
 
 
 POSCAR: Pt111\(1\1\1)\(2)                       
  positions in direct lattice
  velocities in cartesian coordinates
  No initial velocities read in
 exchange correlation table for  LEXCH =        8
   RHO(1)=    0.500       N(1)  =     2000
   RHO(2)=  100.500       N(2)  =     4000
 


--------------------------------------------------------------------------------------------------------


 ion  position               nearest neighbor table
   1  1.000  0.000  0.056-   5 2.64   9 2.64  13 2.64  29 2.64  57 2.64  37 2.64  42 2.82  54 2.83
                            14 2.91
   2  0.333  0.169  0.179-  14 2.62  26 2.62   6 2.63  42 2.64  30 2.64  38 2.67  11 2.79   7 2.82
                             9 2.89  21 2.90  13 2.92  15 3.02
   3  0.168  0.334  0.310-  43 2.62  15 2.62  39 2.62   7 2.62  31 2.66  27 2.66   8 2.71   6 2.79
                            48 2.99  12 2.99  14 3.02  10 3.03
   4  0.001  0.001  0.415-   8 2.64  16 2.64  32 2.64  12 2.64  40 2.65  60 2.65   7 2.80  27 2.83
                            63 2.90
   5  1.000  0.250  0.056-   1 2.64  45 2.64  33 2.64   9 2.64  29 2.64  25 2.64  18 2.85  10 2.90
                            14 2.90
   6  0.333  0.417  0.193-  26 2.63  62 2.63  34 2.63  10 2.63  14 2.63   2 2.63  43 2.79   3 2.79
                            15 2.79  49 3.14   9 3.14  45 3.14
   7  0.169  0.087  0.298-  15 2.62   3 2.62  11 2.64  27 2.64  35 2.67  63 2.67  16 2.80   4 2.80
                             2 2.82  14 2.82  42 2.92  12 3.16
   8  1.000  0.250  0.422-   4 2.64  36 2.64  32 2.64  28 2.64  48 2.66  12 2.66   3 2.71  27 2.94
                            31 2.94
   9  0.250  0.250  0.056-  21 2.64  13 2.64   1 2.64  49 2.64  45 2.64   5 2.64  14 2.89   2 2.89
                             6 3.14
  10  0.086  0.417  0.179-  34 2.62  14 2.62   6 2.63  46 2.64  18 2.65  22 2.67  31 2.79  39 2.82
                            45 2.89   5 2.90  33 2.91   3 3.03
  11  0.417  0.085  0.296-  19 2.62   7 2.64  35 2.64  23 2.64  15 2.66  47 2.66   2 2.79  30 2.82
                            16 2.83  38 2.86  20 2.87  24 2.94
  12  0.248  0.246  0.439-  66 1.83  65 1.86   4 2.64  16 2.64   8 2.66  24 2.66  48 2.70  52 2.70
                            15 2.99   3 2.99   7 3.16
  13  0.250  0.000  0.056-  21 2.64   9 2.64  17 2.64   1 2.64  37 2.64  41 2.64  42 2.82  38 2.83
                             2 2.92
  14  0.086  0.169  0.179-   2 2.62  10 2.62   6 2.63  42 2.64  18 2.64  54 2.67  27 2.79   7 2.82
                             9 2.89   5 2.90   1 2.91   3 3.02
  15  0.416  0.334  0.310-  43 2.62   3 2.62  55 2.62   7 2.62  19 2.66  11 2.66  24 2.71   6 2.79
                            52 2.99  12 2.99   2 3.02  26 3.03
  16  0.250  0.001  0.415-  24 2.64   4 2.64  20 2.64  12 2.64  40 2.65  44 2.65   7 2.80  11 2.83
                            35 2.90
  17  0.500  0.000  0.056-  29 2.64  25 2.64  13 2.64  21 2.64  41 2.64  53 2.64  38 2.83  30 2.86
                            58 2.86
  18  0.834  0.167  0.177-  54 2.64  22 2.64  14 2.64  10 2.65  58 2.66  30 2.66  31 2.82  27 2.82
                            23 2.84   5 2.85  29 2.86  25 2.86
  19  0.665  0.333  0.296-  11 2.62  55 2.64  59 2.64  23 2.64  15 2.66  31 2.66  26 2.79  30 2.82
                            64 2.83  22 2.86  28 2.87  24 2.94
  20  0.500  1.000  0.417-  24 2.64  56 2.64  32 2.64  28 2.64  16 2.64  44 2.64  23 2.86  47 2.87
                            11 2.87
  21  0.500  0.250  0.056-  25 2.64  61 2.64   9 2.64  13 2.64  49 2.64  17 2.64  30 2.85  26 2.90
                             2 2.90
  22  0.833  0.416  0.175-  18 2.64  30 2.64  50 2.64  46 2.64  26 2.67  10 2.67  59 2.79  25 2.83
                            61 2.83  33 2.83  19 2.86  31 2.86
  23  0.667  0.083  0.296-  47 2.64  11 2.64  51 2.64  27 2.64  19 2.64  31 2.64  58 2.84  18 2.84
                            30 2.84  20 2.86  28 2.86  32 2.86
  24  0.500  0.250  0.422-  66 2.05  16 2.64  64 2.64  20 2.64  28 2.64  52 2.66  12 2.66  15 2.71
                            11 2.94  19 2.94
  25  0.750  0.250  0.056-  17 2.64  21 2.64  29 2.64  61 2.64  33 2.64   5 2.64  22 2.83  18 2.86
                            30 2.86
  26  0.581  0.417  0.179-  62 2.62   2 2.62   6 2.63  50 2.64  30 2.65  22 2.67  19 2.79  55 2.82
                            49 2.89  21 2.90  61 2.91  15 3.03
  27  0.918  0.085  0.296-  31 2.62   7 2.64  63 2.64  23 2.64   3 2.66  51 2.66  14 2.79  18 2.82
                             4 2.83  54 2.86  32 2.87   8 2.94
  28  0.750  0.250  0.417-  24 2.64   8 2.64  32 2.64  20 2.64  64 2.64  36 2.64  23 2.86  31 2.87
                            19 2.87
  29  0.750  0.000  0.056-  17 2.64  25 2.64   5 2.64  53 2.64   1 2.64  57 2.64  54 2.83  18 2.86
                            58 2.86
  30  0.583  0.167  0.177-  38 2.64  22 2.64   2 2.64  26 2.65  58 2.66  18 2.66  19 2.82  11 2.82
                            23 2.84  21 2.85  17 2.86  25 2.86
  31  0.918  0.333  0.296-  27 2.62  39 2.64  59 2.64  23 2.64   3 2.66  19 2.66  10 2.79  18 2.82
                            36 2.83  22 2.86  28 2.87   8 2.94
  32  0.750  1.000  0.417-  56 2.64   8 2.64  20 2.64  28 2.64  60 2.64   4 2.64  23 2.86  51 2.87
                            27 2.87
  33  1.000  0.500  0.056-  37 2.64  41 2.64   5 2.64  45 2.64  25 2.64  61 2.64  46 2.82  22 2.83
                            10 2.91
  34  0.333  0.664  0.179-  10 2.62  62 2.62   6 2.63  46 2.64  58 2.64  38 2.67  47 2.79  39 2.82
                            45 2.89  53 2.90  41 2.91  43 3.03
  35  0.168  0.834  0.292-  11 2.64  47 2.64  59 2.66  63 2.66  39 2.67   7 2.67  38 2.79  46 2.81
                            42 2.81  40 2.82  16 2.90  44 2.90
  36  0.001  0.500  0.415-   8 2.64  44 2.64  28 2.64  48 2.64  40 2.65  64 2.65  39 2.80  31 2.83
                            59 2.90
  37  1.000  0.750  0.056-  33 2.64  41 2.64  61 2.64  57 2.64  13 2.64   1 2.64  46 2.83  42 2.83
                            50 2.83
  38  0.334  0.917  0.175-  30 2.64  58 2.64  42 2.64  46 2.64   2 2.67  34 2.67  35 2.79  17 2.83
                            41 2.83  13 2.83  11 2.86  47 2.86
  39  0.169  0.581  0.298-   3 2.62  43 2.62  47 2.64  31 2.64  35 2.67  59 2.67  36 2.80  44 2.80
                            34 2.82  10 2.82  46 2.92  48 3.16
  40  0.000  0.750  0.410-   4 2.65  16 2.65  60 2.65  44 2.65  64 2.65  36 2.65  63 2.82  59 2.82
                            35 2.82
  41  0.250  0.750  0.056-  45 2.64  33 2.64  37 2.64  53 2.64  17 2.64  13 2.64  46 2.82  38 2.83
                            34 2.91
  42  0.084  0.918  0.175-   2 2.64  38 2.64  14 2.64  54 2.64  46 2.66  50 2.66  63 2.81  35 2.81
                            13 2.82   1 2.82  37 2.83   7 2.92
  43  0.416  0.582  0.310-  15 2.62   3 2.62  55 2.62  39 2.62  51 2.66  47 2.66  56 2.71   6 2.79
                            48 2.99  52 2.99  62 3.03  34 3.03
  44  0.250  0.749  0.415-  56 2.64  36 2.64  20 2.64  48 2.64  40 2.65  16 2.65  39 2.80  47 2.83
                            35 2.90
  45  0.250  0.500  0.056-  41 2.64  53 2.64   5 2.64   9 2.64  49 2.64  33 2.64  10 2.89  34 2.89
                             6 3.14
  46  0.084  0.666  0.175-  38 2.64  22 2.64  34 2.64  10 2.64  42 2.66  50 2.66  35 2.81  59 2.81
                            41 2.82  33 2.82  37 2.83  39 2.92
  47  0.417  0.832  0.296-  51 2.62  39 2.64  35 2.64  23 2.64  43 2.66  11 2.66  34 2.79  58 2.82
                            44 2.83  38 2.86  20 2.87  56 2.94
  48  0.248  0.502  0.439-  65 1.86  36 2.64  44 2.64   8 2.66  56 2.66  12 2.70  52 2.70  43 2.99
                             3 2.99  39 3.16
  49  0.500  0.500  0.056-  61 2.64  53 2.64  57 2.64  21 2.64   9 2.64  45 2.64  26 2.89  62 2.89
                             6 3.14
  50  0.832  0.666  0.175-  54 2.64  22 2.64  62 2.64  26 2.64  46 2.66  42 2.66  63 2.81  59 2.81
                            61 2.82  57 2.82  37 2.83  55 2.92
  51  0.665  0.832  0.296-  47 2.62  55 2.64  63 2.64  23 2.64  43 2.66  27 2.66  62 2.79  58 2.82
                            60 2.83  54 2.86  32 2.87  56 2.94
  52  0.504  0.502  0.439-  66 1.84  65 1.86  64 2.64  60 2.64  24 2.66  56 2.66  12 2.70  48 2.70
                            43 2.99  15 2.99  55 3.16
  53  0.500  0.750  0.056-  49 2.64  57 2.64  45 2.64  41 2.64  29 2.64  17 2.64  58 2.85  34 2.90
                            62 2.90
  54  0.833  0.917  0.175-  18 2.64  58 2.64  50 2.64  42 2.64  62 2.67  14 2.67  63 2.79  29 2.83
                            57 2.83   1 2.83  27 2.86  51 2.86
  55  0.663  0.581  0.298-  43 2.62  15 2.62  51 2.64  19 2.64  59 2.67  63 2.67  64 2.80  60 2.80
                            26 2.82  62 2.82  50 2.92  52 3.16
  56  0.500  0.750  0.422-  60 2.64  44 2.64  32 2.64  20 2.64  52 2.66  48 2.66  43 2.71  51 2.94
                            47 2.94
  57  0.750  0.750  0.056-  61 2.64  49 2.64  53 2.64  37 2.64   1 2.64  29 2.64  50 2.82  54 2.83
                            62 2.91
  58  0.583  0.916  0.177-  38 2.64  54 2.64  34 2.64  62 2.64  30 2.66  18 2.66  47 2.82  51 2.82
                            23 2.84  53 2.85  17 2.86  29 2.86
  59  0.916  0.582  0.292-  31 2.64  19 2.64  63 2.66  35 2.66  55 2.67  39 2.67  22 2.79  46 2.81
                            50 2.81  40 2.82  64 2.90  36 2.90
  60  0.749  0.749  0.415-  56 2.64  64 2.64  32 2.64  52 2.64  40 2.65   4 2.65  55 2.80  51 2.83
                            63 2.90
  61  0.750  0.500  0.056-  49 2.64  57 2.64  21 2.64  25 2.64  37 2.64  33 2.64  50 2.82  22 2.83
                            26 2.91
  62  0.581  0.664  0.179-  26 2.62  34 2.62   6 2.63  50 2.64  58 2.64  54 2.67  51 2.79  55 2.82
                            49 2.89  53 2.90  57 2.91  43 3.03
  63  0.916  0.834  0.292-  27 2.64  51 2.64  59 2.66  35 2.66   7 2.67  55 2.67  54 2.79  50 2.81
                            42 2.81  40 2.82   4 2.90  60 2.90
  64  0.749  0.500  0.415-  24 2.64  60 2.64  28 2.64  52 2.64  40 2.65  36 2.65  55 2.80  19 2.83
                            59 2.90
  65  0.333  0.417  0.489-  48 1.86  52 1.86  12 1.86
  66  0.415  0.334  0.489-  12 1.83  52 1.84  24 2.05
 
  LATTYP: Found a hexagonal cell.
 ALAT       =    10.5600004196
 C/A-ratio  =     1.8939393187
  
  Lattice vectors:
  
 A1 = (  10.5600004196,   0.0000000000,   0.0000000000)
 A2 = (  -5.2800002098,   9.1452286274,   0.0000000000)
 A3 = (   0.0000000000,   0.0000000000,  20.0000000000)


Analysis of symmetry for initial positions (statically):
=====================================================================
 Subroutine PRICEL returns:
 Original cell was already a primitive cell.
 

 Routine SETGRP: Setting up the symmetry group for a 
 hexagonal supercell.


 Subroutine GETGRP returns: Found  1 space group operations
 (whereof  1 operations were pure point group operations)
 out of a pool of 24 trial point group operations.


The static configuration has the point symmetry C_1 .


Analysis of symmetry for dynamics (positions and initial velocities):
=====================================================================
 Subroutine PRICEL returns:
 Original cell was already a primitive cell.
 

 Routine SETGRP: Setting up the symmetry group for a 
 hexagonal supercell.


 Subroutine GETGRP returns: Found  1 space group operations
 (whereof  1 operations were pure point group operations)
 out of a pool of 24 trial point group operations.


The dynamic configuration has the point symmetry C_1 .


Analysis of constrained symmetry for selective dynamics:
=====================================================================
 Subroutine PRICEL returns:
 Original cell was already a primitive cell.
 

 Routine SETGRP: Setting up the symmetry group for a 
 hexagonal supercell.


 Subroutine GETGRP returns: Found  1 space group operations
 (whereof  1 operations were pure point group operations)
 out of a pool of 24 trial point group operations.


The constrained configuration has the point symmetry C_1 .


 Subroutine INISYM returns: Found  1 space group operations
 (whereof  1 operations are pure point group operations),
 and found     1 'primitive' translations

 
 
 KPOINTS: mesh auto                               

Automatic generation of k-mesh.
Space group operators:
 irot       det(A)        alpha          n_x          n_y          n_z        tau_x        tau_y        tau_z
    1     1.000000     0.000000     1.000000     0.000000     0.000000     0.000000     0.000000     0.000000
 
 Subroutine IBZKPT returns following result:
 ===========================================
 
 Found      4 irreducible k-points:
 
 Following reciprocal coordinates:
            Coordinates               Weight
  0.000000  0.000000  0.000000      1.000000
  0.500000 -0.000000  0.000000      1.000000
  0.000000  0.500000  0.000000      1.000000
  0.500000  0.500000  0.000000      1.000000
 
 Following cartesian coordinates:
            Coordinates               Weight
  0.000000  0.000000  0.000000      1.000000
  0.047348  0.027337  0.000000      1.000000
  0.000000  0.054673  0.000000      1.000000
  0.047348  0.082010  0.000000      1.000000
 


--------------------------------------------------------------------------------------------------------




 Dimension of arrays:
   k-points           NKPTS =      4   k-points in BZ     NKDIM =      4   number of bands    NBANDS=    390
   number of dos      NEDOS =    301   number of ions     NIONS =     66
   non local maximal  LDIM  =      6   non local SUM 2l+1 LMDIM =     18
   total plane-waves  NPLWV = ******
   max r-space proj   IRMAX =   8171   max aug-charges    IRDMAX=  35597
   dimension x,y,z NGX =    84 NGY =   84 NGZ =  160
   dimension x,y,z NGXF=   168 NGYF=  168 NGZF=  320
   support grid    NGXF=   168 NGYF=  168 NGZF=  320
   ions per type =              64   2
   NGX,Y,Z   is equivalent  to a cutoff of  13.22, 13.22, 13.30 a.u.
   NGXF,Y,Z  is equivalent  to a cutoff of  26.45, 26.45, 26.60 a.u.

 SYSTEM =  Pt111                                   
 POSCAR =  Pt111\(1\1\1)\(2)                       

 Startparameter for this run:
   NWRITE =      2    write-flag & timer
   PREC   = accura    normal or accurate (medium, high low for compatibility)
   ISTART =      0    job   : 0-new  1-cont  2-samecut
   ICHARG =      2    charge: 1-file 2-atom 10-const
   ISPIN  =      1    spin polarized calculation?
   LNONCOLLINEAR =      F non collinear calculations
   LSORBIT =      F    spin-orbit coupling
   INIWAV =      1    electr: 0-lowe 1-rand  2-diag
   LASPH  =      F    aspherical Exc in radial PAW
   METAGGA=      F    non-selfconsistent MetaGGA calc.

 Electronic Relaxation 1
   ENCUT  =  550.0 eV  40.42 Ry    6.36 a.u.  20.19 20.19 38.24*2*pi/ulx,y,z
   ENINI  =  550.0     initial cutoff
   ENAUG  =  400.0 eV  augmentation charge cutoff
   NELM   =    200;   NELMIN=  2; NELMDL= -5     # of ELM steps 
   EDIFF  = 0.1E-04   stopping-criterion for ELM
   LREAL  =      T    real-space projection
   NLSPLINE    = F    spline interpolate recip. space projectors
   LCOMPAT=      F    compatible to vasp.4.4
   GGA_COMPAT  = T    GGA compatible to vasp.4.4-vasp.4.6
   LMAXPAW     = -100 max onsite density
   LMAXMIX     =    2 max onsite mixed and CHGCAR
   VOSKOWN=      0    Vosko Wilk Nusair interpolation
   ROPT   =   -0.00025  -0.00025
 Ionic relaxation
   EDIFFG = -.5E-01   stopping-criterion for IOM
   NSW    =    300    number of steps for IOM
   NBLOCK =      1;   KBLOCK =    300    inner block; outer block 
   IBRION =      2    ionic relax: 0-MD 1-quasi-New 2-CG
   NFREE  =      1    steps in history (QN), initial steepest desc. (CG)
   ISIF   =      2    stress and relaxation
   IWAVPR =     11    prediction:  0-non 1-charg 2-wave 3-comb
   ISYM   =      2    0-nonsym 1-usesym 2-fastsym
   LCORR  =      T    Harris-Foulkes like correction to forces

   POTIM  = 0.5000    time-step for ionic-motion
   TEIN   =    0.0    initial temperature
   TEBEG  =    0.0;   TEEND  =   0.0 temperature during run
   SMASS  =  -3.00    Nose mass-parameter (am)
   estimated Nose-frequenzy (Omega)   =  0.10E-29 period in steps =****** mass=  -0.255E-26a.u.
   SCALEE = 1.0000    scale energy and forces
   NPACO  =    256;   APACO  = 16.0  distance and # of slots for P.C.
   PSTRESS=    0.0 pullay stress

  Mass of Ions in am
   POMASS = 195.08  1.00
  Ionic Valenz
   ZVAL   =  10.00  1.00
  Atomic Wigner-Seitz radii
   RWIGS  =  -1.00 -1.00
  virtual crystal weights 
   VCA    =   1.00  1.00
   NELECT =     642.0000    total number of electrons
   NUPDOWN=      -1.0000    fix difference up-down

 DOS related values:
   EMIN   =  10.00;   EMAX   =-10.00  energy-range for DOS
   EFERMI =   0.00
   ISMEAR =     1;   SIGMA  =   0.10  broadening in eV -4-tet -1-fermi 0-gaus

 Electronic relaxation 2 (details)
   IALGO  =     68    algorithm
   LDIAG  =      T    sub-space diagonalisation (order eigenvalues)
   LSUBROT=      F    optimize rotation matrix (better conditioning)
   TURBO    =      0    0=normal 1=particle mesh
   IRESTART =      0    0=no restart 2=restart with 2 vectors
   NREBOOT  =      0    no. of reboots
   NMIN     =      0    reboot dimension
   EREF     =   0.00    reference energy to select bands
   IMIX   =      4    mixing-type and parameters
     AMIX     =   0.40;   BMIX     =  1.00
     AMIX_MAG =   1.60;   BMIX_MAG =  1.00
     AMIN     =   0.10
     WC   =   100.;   INIMIX=   1;  MIXPRE=   1;  MAXMIX= -45

 Intra band minimization:
   WEIMIN = 0.0010     energy-eigenvalue tresh-hold
   EBREAK =  0.64E-08  absolut break condition
   DEPER  =   0.30     relativ break condition  

   TIME   =   0.40     timestep for ELM

  volume/ion in A,a.u.               =      29.26       197.49
  Fermi-wavevector in a.u.,A,eV,Ry     =   1.134028  2.143002 17.497349  1.286019
  Thomas-Fermi vector in A             =   2.270731
 
 Write flags
   LWAVE        =      F    write WAVECAR
   LDOWNSAMPLE  =      F    k-point downsampling of WAVECAR
   LCHARG       =      F    write CHGCAR
   LVTOT        =      F    write LOCPOT, total local potential
   LVHAR        =      F    write LOCPOT, Hartree potential only
   LELF         =      F    write electronic localiz. function (ELF)
   LORBIT       =      0    0 simple, 1 ext, 2 COOP (PROOUT), +10 PAW based schemes


 Dipole corrections
   LMONO  =      F    monopole corrections only (constant potential shift)
   LDIPOL =      F    correct potential (dipole corrections)
   IDIPOL =      0    1-x, 2-y, 3-z, 4-all directions 
   EPSILON=  1.0000000 bulk dielectric constant

 Exchange correlation treatment:
   GGA     =    --    GGA type
   LEXCH   =     8    internal setting for exchange type
   VOSKOWN=      0    Vosko Wilk Nusair interpolation
   LHFCALC =     F    Hartree Fock is set to
   LHFONE  =     F    Hartree Fock one center treatment
   AEXX    =    0.0000 exact exchange contribution

 Linear response parameters
   LEPSILON=     F    determine dielectric tensor
   LRPA    =     F    only Hartree local field effects (RPA)
   LNABLA  =     F    use nabla operator in PAW spheres
   LVEL    =     F    velocity operator in full k-point grid
   LINTERFAST=   F  fast interpolation
   KINTER  =     0    interpolate to denser k-point grid
   CSHIFT  =0.1000    complex shift for real part using Kramers Kronig
   OMEGAMAX=  -1.0    maximum frequency
   DEG_THRESHOLD= 0.2000000E-02 threshold for treating states as degnerate
   RTIME   =   -0.100 relaxation time in fs
  (WPLASMAI=    0.000 imaginary part of plasma frequency in eV, 0.658/RTIME)
   DFIELD  = 0.0000000 0.0000000 0.0000000 field for delta impulse in time
 
 Orbital magnetization related:
   ORBITALMAG=     F  switch on orbital magnetization
   LCHIMAG   =     F  perturbation theory with respect to B field
   DQ        =  0.001000  dq finite difference perturbation B field
   LLRAUG    =     F  two centre corrections for induced B field



--------------------------------------------------------------------------------------------------------


 conjugate gradient relaxation of ions
   using selective dynamics as specified on POSCAR
 charge density and potential will be updated during run
 non-spin polarized calculation
 RMM-DIIS sequential band-by-band and
  variant of blocked Davidson during initial phase
 perform sub-space diagonalisation
    before iterative eigenvector-optimisation
 modified Broyden-mixing scheme, WC =      100.0
 initial mixing is a Kerker type mixing with AMIX =  0.4000 and BMIX =      1.0000
 Hartree-type preconditioning will be used
 using additional bands           69
 real space projection scheme for non local part
 use partial core corrections
 calculate Harris-corrections to forces 
   (improved forces if not selfconsistent)
 use gradient corrections 
 use of overlap-Matrix (Vanderbilt PP)
 Methfessel and Paxton  Order N= 1 SIGMA  =   0.10


--------------------------------------------------------------------------------------------------------


  energy-cutoff  :      550.00
  volume of cell :     1931.47
      direct lattice vectors                 reciprocal lattice vectors
    10.560000420  0.000000000  0.000000000     0.094696966  0.054673319  0.000000000
    -5.280000210  9.145228627  0.000000000     0.000000000  0.109346638  0.000000000
     0.000000000  0.000000000 20.000000000     0.000000000  0.000000000  0.050000000

  length of vectors
    10.560000420 10.560000420 20.000000000     0.109346638  0.109346638  0.050000000


 
 k-points in units of 2pi/SCALE and weight: mesh auto                               
   0.00000000  0.00000000  0.00000000       0.250
   0.04734848  0.02733666  0.00000000       0.250
   0.00000000  0.05467332  0.00000000       0.250
   0.04734848  0.08200998  0.00000000       0.250
 
 k-points in reciprocal lattice and weights: mesh auto                               
   0.00000000  0.00000000  0.00000000       0.250
   0.50000000 -0.00000000  0.00000000       0.250
   0.00000000  0.50000000  0.00000000       0.250
   0.50000000  0.50000000  0.00000000       0.250
 
 position of ions in fractional coordinates (direct lattice) 
   0.99999844  0.00000156  0.05579229
   0.33331244  0.16891226  0.17939509
   0.16818471  0.33404833  0.31042453
   0.00052844  0.00075920  0.41528149
   0.99999844  0.25000155  0.05579229
   0.33334037  0.41667210  0.19297976
   0.16867291  0.08729980  0.29843304
   0.99979457  0.24982274  0.42163147
   0.24999844  0.25000155  0.05579229
   0.08561685  0.41668424  0.17936340
   0.41703566  0.08455107  0.29579559
   0.24797174  0.24589456  0.43878122
   0.24999844  0.00000156  0.05579229
   0.08560891  0.16891920  0.17938942
   0.41589991  0.33404757  0.31042422
   0.25027609  0.00075824  0.41527003
   0.49999844  0.00000156  0.05579229
   0.83430745  0.16714114  0.17664671
   0.66536592  0.33289042  0.29578005
   0.49996984  0.99992403  0.41713626
   0.49999843  0.25000155  0.05579229
   0.83317232  0.41635029  0.17514411
   0.66663705  0.08324374  0.29639179
   0.50007756  0.24982454  0.42162109
   0.74999841  0.25000155  0.05579229
   0.58106061  0.41667669  0.17936695
   0.91755607  0.08455208  0.29580571
   0.75000167  0.24995965  0.41713978
   0.74999842  0.00000156  0.05579229
   0.58282720  0.16713854  0.17664955
   0.91755681  0.33290225  0.29578202
   0.74998767  0.99992026  0.41715526
   0.99999844  0.50000154  0.05579229
   0.33332126  0.66439519  0.17938060
   0.16764207  0.83377131  0.29228866
   0.00052837  0.49963407  0.41526278
   0.99999843  0.75000151  0.05579229
   0.33365179  0.91682493  0.17515070
   0.16867849  0.58127562  0.29841214
   0.00000016  0.74995915  0.41042748
   0.24999843  0.75000151  0.05579229
   0.08402254  0.91803951  0.17475338
   0.41589665  0.58175272  0.31044577
   0.25028064  0.74938287  0.41528406
   0.24999844  0.50000154  0.05579229
   0.08402028  0.66598126  0.17475175
   0.41702234  0.83235725  0.29580984
   0.24795917  0.50192839  0.43878216
   0.49999844  0.50000154  0.05579229
   0.83196366  0.66598259  0.17475615
   0.66535171  0.83234478  0.29582620
   0.50402428  0.50193310  0.43878967
   0.49999843  0.75000151  0.05579229
   0.83317036  0.91682227  0.17515523
   0.66262717  0.58127171  0.29841782
   0.50009383  0.75012858  0.42166476
   0.74999841  0.75000151  0.05579229
   0.58283072  0.91567656  0.17667098
   0.91616611  0.58231318  0.29229043
   0.74915996  0.74938553  0.41530460
   0.74999839  0.50000154  0.05579229
   0.58106864  0.66439040  0.17938783
   0.91616878  0.83376971  0.29229731
   0.74915135  0.49963322  0.41525918
   0.33334573  0.41664826  0.48935920
   0.41500000  0.33400000  0.48900000
 
 position of ions in cartesian coordinates  (Angst):
  10.55997578  0.00001422  1.11584590
   2.62792272  1.54474123  3.58790174
   0.01225536  3.05494834  6.20849066
   0.00157178  0.00694307  8.30562973
   9.23997574  2.28632132  1.11584590
   1.32004563  3.81056160  3.85959511
   1.32024305  0.79837662  5.96866081
   9.23876694  2.28468605  8.43262932
   1.31997542  2.28632132  1.11584590
  -1.29597885  3.81067259  3.58726805
   3.95746711  0.77323886  5.91591179
   1.32025837  2.24876193  8.77562436
   2.63997547  0.00001422  1.11584590
   0.01213670  1.54480472  3.58778837
   2.62813201  3.05494140  6.20848447
   2.63891211  0.00693432  8.30540058
   5.27997557  0.00001422  1.11584590
   7.92778180  1.52854397  3.53293427
   5.26860289  3.04435901  5.91560098
   0.00008263  9.14453382  8.34272519
   3.95997540  2.28632132  1.11584590
   6.59997045  3.80761857  3.50288227
   6.60016059  0.76128305  5.92783585
   3.96174564  2.28470258  8.43242176
   6.59997527  2.28632132  1.11584590
   3.93594730  3.81060360  3.58733902
   9.24295754  0.77324806  5.91611412
   6.60023097  2.28593819  8.34279562
   7.91997543  0.00001422  1.11584590
   5.27216397  1.52852018  3.53299104
   7.93167633  3.04446720  5.91564034
   2.64029099  9.14449936  8.34310517
   7.91997567  4.57262842  1.11584590
   0.01186591  6.07604591  3.58761202
  -2.63201237  7.62502930  5.84577319
  -2.63248834  4.56926775  8.30525568
   6.59997574  6.85893527  1.11584590
  -1.31747280  8.38457363  3.50301409
  -1.28789047  5.31589847  5.96824281
  -3.95978278  6.85854788  8.20854952
  -1.32002457  6.85893527  1.11584590
  -3.95997074  8.39568121  3.49506761
   1.32021434  5.32026162  6.20891532
  -1.31377806  6.85327770  8.30568120
  -0.00002464  4.57262842  1.11584590
  -2.62912695  6.09055087  3.49503500
   0.00890964  7.61209731  5.91619674
  -0.03173306  4.59024987  8.77564324
   2.63997546  4.57262842  1.11584590
   5.26914836  6.09056307  3.49512303
   2.63133374  7.61198329  5.91652399
   2.67228974  4.59029299  8.77579341
   1.31997553  6.85893527  1.11584590
   3.95745756  8.38454927  3.50310460
   3.92822845  5.31586269  5.96835643
   1.32031195  6.86009739  8.43329529
   3.95997540  6.85893527  1.11584590
   1.31992022  8.37407145  3.53341965
   6.60010080  5.32538716  5.84580861
   3.95437371  6.85330203  8.30609203
   5.27997509  4.57262842  1.11584590
   2.62810364  6.07600213  3.58775668
   5.27243848  7.62501460  5.84594621
   5.27297502  4.56926002  8.30518358
   1.32022819  3.81034358  9.78718398
   2.61888010  3.05450636  9.78000000
 


--------------------------------------------------------------------------------------------------------


 k-point  1 :   0.0000 0.0000 0.0000  plane waves:   56579
 k-point  2 :   0.5000-0.0000 0.0000  plane waves:   56606
 k-point  3 :   0.0000 0.5000 0.0000  plane waves:   56606
 k-point  4 :   0.5000 0.5000 0.0000  plane waves:   56606

 maximum and minimum number of plane-waves per node :     14185    14108

 maximum number of plane-waves:     56606
 maximum index in each direction: 
   IXMAX=   20   IYMAX=   20   IZMAX=   38
   IXMIN=  -20   IYMIN=  -20   IZMIN=  -38


 real space projection operators:
  total allocation   :      71356.61 KBytes
  max/ min on nodes  :      17847.27      17827.49


 parallel 3D FFT for wavefunctions:
    minimum data exchange during FFTs selected (reduces bandwidth)
 parallel 3D FFT for charge:
    minimum data exchange during FFTs selected (reduces bandwidth)


 total amount of memory used by VASP MPI-rank0   141034. kBytes
=======================================================================

   base      :      30000. kBytes
   nonlr-proj:      31123. kBytes
   fftplans  :      17093. kBytes
   grid      :      26437. kBytes
   one-center:        264. kBytes
   wavefun   :      36117. kBytes
 
     INWAV:  cpu time    0.0000: real time    0.0001
 Broyden mixing: mesh for mixing (old mesh)
   NGX = 41   NGY = 41   NGZ = 77
  (NGX  =168   NGY  =168   NGZ  =320)
  gives a total of 129437 points

 initial charge density was supplied:
 charge density of overlapping atoms calculated
 number of electron     642.0000000 magnetization 
 keeping initial charge density in first step


--------------------------------------------------------------------------------------------------------


 Maximum index for non-local projection operator         2015
 Maximum index for augmentation-charges         2177 (set IRDMAX)


--------------------------------------------------------------------------------------------------------


 First call to EWALD:  gamma=   0.142
 Maximum number of real-space cells 4x 4x 2
 Maximum number of reciprocal cells 2x 2x 4

    FEWALD:  cpu time    0.0031: real time    0.0031


--------------------------------------- Iteration      1(   1)  ---------------------------------------


    POTLOK:  cpu time    0.1768: real time    0.2524
    SETDIJ:  cpu time    0.0161: real time    0.0167
     EDDAV:  cpu time   19.8384: real time   20.0754
       DOS:  cpu time    0.0046: real time    0.0046
    --------------------------------------------
      LOOP:  cpu time   20.0359: real time   20.3491

 eigenvalue-minimisations  :  3120
 total energy-change (2. order) : 0.4570721E+04  (-0.3140714E+05)
 number of electron     642.0000000 magnetization 
 augmentation part      642.0000000 magnetization 

 Free energy of the ion-electron system (eV)
  ---------------------------------------------------
  alpha Z        PSCENC =      2023.78361127
  Ewald energy   TEWEN  =    124341.76261916
  -Hartree energ DENC   =   -175451.91454395
  -exchange      EXHF   =         0.00000000
  -V(xc)+E(xc)   XCENC  =       242.03375510
  PAW double counting   =     44556.17432227   -42746.06468925
  entropy T*S    EENTRO =        -0.00864289
  eigenvalues    EBANDS =      4916.58428349
  atomic energy  EATOM  =     46688.37031544
  Solvation  Ediel_sol  =         0.00000000
  ---------------------------------------------------
  free energy    TOTEN  =      4570.72103063 eV

  energy without entropy =     4570.72967353  energy(sigma->0) =     4570.72391160


--------------------------------------------------------------------------------------------------------




--------------------------------------- Iteration      1(   2)  ---------------------------------------


     EDDAV:  cpu time   21.3802: real time   21.4323
       DOS:  cpu time    0.0009: real time    0.0009
    --------------------------------------------
      LOOP:  cpu time   21.3811: real time   21.4331

 eigenvalue-minimisations  :  3510
 total energy-change (2. order) :-0.4683077E+04  (-0.4344698E+04)
 number of electron     642.0000000 magnetization 
 augmentation part      642.0000000 magnetization 

 Free energy of the ion-electron system (eV)
  ---------------------------------------------------
  alpha Z        PSCENC =      2023.78361127
  Ewald energy   TEWEN  =    124341.76261916
  -Hartree energ DENC   =   -175451.91454395
  -exchange      EXHF   =         0.00000000
  -V(xc)+E(xc)   XCENC  =       242.03375510
  PAW double counting   =     44556.17432227   -42746.06468925
  entropy T*S    EENTRO =         0.00062822
  eigenvalues    EBANDS =       233.49782393
  atomic energy  EATOM  =     46688.37031544
  Solvation  Ediel_sol  =         0.00000000
  ---------------------------------------------------
  free energy    TOTEN  =      -112.35615780 eV

  energy without entropy =     -112.35678602  energy(sigma->0) =     -112.35636721


--------------------------------------------------------------------------------------------------------




--------------------------------------- Iteration      1(   3)  ---------------------------------------


     EDDAV:  cpu time   22.3705: real time   22.4238
       DOS:  cpu time    0.0008: real time    0.0008
    --------------------------------------------
      LOOP:  cpu time   22.3714: real time   22.4247

 eigenvalue-minimisations  :  3680
 total energy-change (2. order) :-0.2761529E+03  (-0.2490125E+03)
 number of electron     642.0000000 magnetization 
 augmentation part      642.0000000 magnetization 

 Free energy of the ion-electron system (eV)
  ---------------------------------------------------
  alpha Z        PSCENC =      2023.78361127
  Ewald energy   TEWEN  =    124341.76261916
  -Hartree energ DENC   =   -175451.91454395
  -exchange      EXHF   =         0.00000000
  -V(xc)+E(xc)   XCENC  =       242.03375510
  PAW double counting   =     44556.17432227   -42746.06468925
  entropy T*S    EENTRO =        -0.05397365
  eigenvalues    EBANDS =       -42.60044645
  atomic energy  EATOM  =     46688.37031544
  Solvation  Ediel_sol  =         0.00000000
  ---------------------------------------------------
  free energy    TOTEN  =      -388.50903005 eV

  energy without entropy =     -388.45505641  energy(sigma->0) =     -388.49103884


--------------------------------------------------------------------------------------------------------




--------------------------------------- Iteration      1(   4)  ---------------------------------------


     EDDAV:  cpu time   23.2029: real time   23.2581
       DOS:  cpu time    0.0009: real time    0.0009
    --------------------------------------------
      LOOP:  cpu time   23.2039: real time   23.2591

 eigenvalue-minimisations  :  3860
 total energy-change (2. order) :-0.1073214E+02  (-0.1042607E+02)
 number of electron     642.0000000 magnetization 
 augmentation part      642.0000000 magnetization 

 Free energy of the ion-electron system (eV)
  ---------------------------------------------------
  alpha Z        PSCENC =      2023.78361127
  Ewald energy   TEWEN  =    124341.76261916
  -Hartree energ DENC   =   -175451.91454395
  -exchange      EXHF   =         0.00000000
  -V(xc)+E(xc)   XCENC  =       242.03375510
  PAW double counting   =     44556.17432227   -42746.06468925
  entropy T*S    EENTRO =        -0.06443921
  eigenvalues    EBANDS =       -53.32212136
  atomic energy  EATOM  =     46688.37031544
  Solvation  Ediel_sol  =         0.00000000
  ---------------------------------------------------
  free energy    TOTEN  =      -399.24117053 eV

  energy without entropy =     -399.17673132  energy(sigma->0) =     -399.21969080


--------------------------------------------------------------------------------------------------------




--------------------------------------- Iteration      1(   5)  ---------------------------------------


     EDDAV:  cpu time   23.1676: real time   23.2229
       DOS:  cpu time    0.0013: real time    0.0013
    CHARGE:  cpu time    1.6178: real time    1.6220
    MIXING:  cpu time    0.0055: real time    0.0061
    --------------------------------------------
      LOOP:  cpu time   24.7922: real time   24.8523

 eigenvalue-minimisations  :  3840
 total energy-change (2. order) :-0.2787152E+00  (-0.2779145E+00)
 number of electron     642.0000053 magnetization 
 augmentation part      185.5499908 magnetization 

 Broyden mixing:
  rms(total) = 0.10267E+02    rms(broyden)= 0.10267E+02
  rms(prec ) = 0.10376E+02
  weight for this iteration     100.00

 Free energy of the ion-electron system (eV)
  ---------------------------------------------------
  alpha Z        PSCENC =      2023.78361127
  Ewald energy   TEWEN  =    124341.76261916
  -Hartree energ DENC   =   -175451.91454395
  -exchange      EXHF   =         0.00000000
  -V(xc)+E(xc)   XCENC  =       242.03375510
  PAW double counting   =     44556.17432227   -42746.06468925
  entropy T*S    EENTRO =        -0.06448810
  eigenvalues    EBANDS =       -53.60078772
  atomic energy  EATOM  =     46688.37031544
  Solvation  Ediel_sol  =         0.00000000
  ---------------------------------------------------
  free energy    TOTEN  =      -399.51988578 eV

  energy without entropy =     -399.45539767  energy(sigma->0) =     -399.49838974


--------------------------------------------------------------------------------------------------------




--------------------------------------- Iteration      1(   6)  ---------------------------------------


    POTLOK:  cpu time    0.1742: real time    0.1746
    SETDIJ:  cpu time    0.0221: real time    0.0221
    EDDIAG:  cpu time    3.4582: real time    3.4669
  RMM-DIIS:  cpu time   12.7350: real time   12.7652
    ORTHCH:  cpu time    0.2905: real time    0.2913
       DOS:  cpu time    0.0010: real time    0.0010
    CHARGE:  cpu time    1.5697: real time    1.5734
    MIXING:  cpu time    0.0057: real time    0.0061
    --------------------------------------------
      LOOP:  cpu time   18.2565: real time   18.3007

 eigenvalue-minimisations  :  3133
 total energy-change (2. order) : 0.1840849E+02  (-0.5272450E+01)
 number of electron     642.0000054 magnetization 
 augmentation part      194.5000274 magnetization 

 Broyden mixing:
  rms(total) = 0.64598E+01    rms(broyden)= 0.64598E+01
  rms(prec ) = 0.67746E+01
  weight for this iteration     100.00

 eigenvalues of (default mixing * dielectric matrix)
  average eigenvalue GAMMA=   1.7878
  1.7878

 Free energy of the ion-electron system (eV)
  ---------------------------------------------------
  alpha Z        PSCENC =      2023.78361127
  Ewald energy   TEWEN  =    124341.76261916
  -Hartree energ DENC   =   -174768.75894235
  -exchange      EXHF   =         0.00000000
  -V(xc)+E(xc)   XCENC  =       226.69007766
  PAW double counting   =     50848.33862979   -49145.87199349
  entropy T*S    EENTRO =        -0.03304589
  eigenvalues    EBANDS =      -595.39266591
  atomic energy  EATOM  =     46688.37031544
  Solvation  Ediel_sol  =         0.00000000
  ---------------------------------------------------
  free energy    TOTEN  =      -381.11139431 eV

  energy without entropy =     -381.07834842  energy(sigma->0) =     -381.10037902


--------------------------------------------------------------------------------------------------------




--------------------------------------- Iteration      1(   7)  ---------------------------------------


    POTLOK:  cpu time    0.1568: real time    0.1572
    SETDIJ:  cpu time    0.0146: real time    0.0146
    EDDIAG:  cpu time    3.4639: real time    3.4721
  RMM-DIIS:  cpu time   12.4657: real time   12.4991
    ORTHCH:  cpu time    0.2896: real time    0.2903
       DOS:  cpu time    0.0008: real time    0.0008
    CHARGE:  cpu time    1.5756: real time    1.5794
    MIXING:  cpu time    0.0055: real time    0.0055
    --------------------------------------------
      LOOP:  cpu time   17.9726: real time   18.0191

 eigenvalue-minimisations  :  3138
 total energy-change (2. order) :-0.1462841E+03  (-0.1945684E+02)
 number of electron     642.0000070 magnetization 
 augmentation part      192.4272468 magnetization 

 Broyden mixing:
  rms(total) = 0.10541E+02    rms(broyden)= 0.10541E+02
  rms(prec ) = 0.13539E+02
  weight for this iteration     100.00

 eigenvalues of (default mixing * dielectric matrix)
  average eigenvalue GAMMA=   1.2308
  2.2360  0.2256

 Free energy of the ion-electron system (eV)
  ---------------------------------------------------
  alpha Z        PSCENC =      2023.78361127
  Ewald energy   TEWEN  =    124341.76261916
  -Hartree energ DENC   =   -175230.04000819
  -exchange      EXHF   =         0.00000000
  -V(xc)+E(xc)   XCENC  =       220.11512760
  PAW double counting   =     56794.21828117   -55160.27610598
  entropy T*S    EENTRO =        -0.02884027
  eigenvalues    EBANDS =      -205.30052171
  atomic energy  EATOM  =     46688.37031544
  Solvation  Ediel_sol  =         0.00000000
  ---------------------------------------------------
  free energy    TOTEN  =      -527.39552150 eV

  energy without entropy =     -527.36668124  energy(sigma->0) =     -527.38590808


--------------------------------------------------------------------------------------------------------




--------------------------------------- Iteration      1(   8)  ---------------------------------------


    POTLOK:  cpu time    0.1569: real time    0.1572
    SETDIJ:  cpu time    0.0144: real time    0.0144
    EDDIAG:  cpu time    3.4611: real time    3.4694
  RMM-DIIS:  cpu time   12.4667: real time   12.4963
    ORTHCH:  cpu time    0.3243: real time    0.3251
       DOS:  cpu time    0.0009: real time    0.0009
    CHARGE:  cpu time    1.5881: real time    1.5918
    MIXING:  cpu time    0.0082: real time    0.0082
    --------------------------------------------
      LOOP:  cpu time   18.0205: real time   18.0634

 eigenvalue-minimisations  :  3127
 total energy-change (2. order) : 0.1126933E+03  (-0.5617323E+01)
 number of electron     642.0000065 magnetization 
 augmentation part      197.7809107 magnetization 

 Broyden mixing:
  rms(total) = 0.56947E+01    rms(broyden)= 0.56947E+01
  rms(prec ) = 0.72268E+01
  weight for this iteration     100.00

 eigenvalues of (default mixing * dielectric matrix)
  average eigenvalue GAMMA=   0.9412
  2.2508  0.2864  0.2864

 Free energy of the ion-electron system (eV)
  ---------------------------------------------------
  alpha Z        PSCENC =      2023.78361127
  Ewald energy   TEWEN  =    124341.76261916
  -Hartree energ DENC   =   -174798.81679880
  -exchange      EXHF   =         0.00000000
  -V(xc)+E(xc)   XCENC  =       217.38270915
  PAW double counting   =     60112.88008988   -58519.66570695
  entropy T*S    EENTRO =        -0.07208677
  eigenvalues    EBANDS =      -480.32701687
  atomic energy  EATOM  =     46688.37031544
  Solvation  Ediel_sol  =         0.00000000
  ---------------------------------------------------
  free energy    TOTEN  =      -414.70226449 eV

  energy without entropy =     -414.63017773  energy(sigma->0) =     -414.67823557


--------------------------------------------------------------------------------------------------------




--------------------------------------- Iteration      1(   9)  ---------------------------------------


    POTLOK:  cpu time    0.1905: real time    0.1909
    SETDIJ:  cpu time    0.0191: real time    0.0192
    EDDIAG:  cpu time    3.4947: real time    3.5067
  RMM-DIIS:  cpu time   12.5072: real time   12.5369
    ORTHCH:  cpu time    0.2905: real time    0.2913
       DOS:  cpu time    0.0009: real time    0.0009
    CHARGE:  cpu time    1.5555: real time    1.5592
    MIXING:  cpu time    0.0056: real time    0.0056
    --------------------------------------------
      LOOP:  cpu time   18.0641: real time   18.1107

 eigenvalue-minimisations  :  3130
 total energy-change (2. order) : 0.1595090E+02  (-0.3485467E+01)
 number of electron     642.0000062 magnetization 
 augmentation part      198.1509166 magnetization 

 Broyden mixing:
  rms(total) = 0.44924E+01    rms(broyden)= 0.44924E+01
  rms(prec ) = 0.70738E+01
  weight for this iteration     100.00

 eigenvalues of (default mixing * dielectric matrix)
  average eigenvalue GAMMA=   0.8131
  2.2027  0.4487  0.4487  0.1523

 Free energy of the ion-electron system (eV)
  ---------------------------------------------------
  alpha Z        PSCENC =      2023.78361127
  Ewald energy   TEWEN  =    124341.76261916
  -Hartree energ DENC   =   -174665.65759921
  -exchange      EXHF   =         0.00000000
  -V(xc)+E(xc)   XCENC  =       217.89617000
  PAW double counting   =     60446.99562717   -58856.04323521
  entropy T*S    EENTRO =         0.01068796
  eigenvalues    EBANDS =      -595.86956552
  atomic energy  EATOM  =     46688.37031544
  Solvation  Ediel_sol  =         0.00000000
  ---------------------------------------------------
  free energy    TOTEN  =      -398.75136894 eV

  energy without entropy =     -398.76205689  energy(sigma->0) =     -398.75493159


--------------------------------------------------------------------------------------------------------




--------------------------------------- Iteration      1(  10)  ---------------------------------------


    POTLOK:  cpu time    0.1581: real time    0.1585
    SETDIJ:  cpu time    0.0143: real time    0.0143
    EDDIAG:  cpu time    3.4583: real time    3.4665
  RMM-DIIS:  cpu time   12.5314: real time   12.5615
    ORTHCH:  cpu time    0.2929: real time    0.2936
       DOS:  cpu time    0.0009: real time    0.0009
    CHARGE:  cpu time    1.5368: real time    1.5405
    MIXING:  cpu time    0.0063: real time    0.0063
    --------------------------------------------
      LOOP:  cpu time   17.9990: real time   18.0421

 eigenvalue-minimisations  :  3126
 total energy-change (2. order) : 0.1078204E+02  (-0.2044334E+01)
 number of electron     642.0000059 magnetization 
 augmentation part      197.6464607 magnetization 

 Broyden mixing:
  rms(total) = 0.37114E+01    rms(broyden)= 0.37113E+01
  rms(prec ) = 0.45092E+01
  weight for this iteration     100.00

 eigenvalues of (default mixing * dielectric matrix)
  average eigenvalue GAMMA=   0.7309
  2.2118  0.7882  0.2883  0.2438  0.1223

 Free energy of the ion-electron system (eV)
  ---------------------------------------------------
  alpha Z        PSCENC =      2023.78361127
  Ewald energy   TEWEN  =    124341.76261916
  -Hartree energ DENC   =   -174733.86997295
  -exchange      EXHF   =         0.00000000
  -V(xc)+E(xc)   XCENC  =       218.69141869
  PAW double counting   =     60448.98917824   -58855.31783504
  entropy T*S    EENTRO =        -0.07510819
  eigenvalues    EBANDS =      -520.30355099
  atomic energy  EATOM  =     46688.37031544
  Solvation  Ediel_sol  =         0.00000000
  ---------------------------------------------------
  free energy    TOTEN  =      -387.96932437 eV

  energy without entropy =     -387.89421618  energy(sigma->0) =     -387.94428830


--------------------------------------------------------------------------------------------------------




--------------------------------------- Iteration      1(  11)  ---------------------------------------


    POTLOK:  cpu time    0.1614: real time    0.1618
    SETDIJ:  cpu time    0.0146: real time    0.0146
    EDDIAG:  cpu time    3.4616: real time    3.4698
  RMM-DIIS:  cpu time   12.5292: real time   12.5589
    ORTHCH:  cpu time    0.2888: real time    0.2895
       DOS:  cpu time    0.0009: real time    0.0009
    CHARGE:  cpu time    1.5847: real time    1.5884
    MIXING:  cpu time    0.0059: real time    0.0059
    --------------------------------------------
      LOOP:  cpu time   18.0470: real time   18.0899

 eigenvalue-minimisations  :  3130
 total energy-change (2. order) : 0.1093090E+02  (-0.6096429E+00)
 number of electron     642.0000057 magnetization 
 augmentation part      197.6109351 magnetization 

 Broyden mixing:
  rms(total) = 0.20403E+01    rms(broyden)= 0.20403E+01
  rms(prec ) = 0.24418E+01
  weight for this iteration     100.00

 eigenvalues of (default mixing * dielectric matrix)
  average eigenvalue GAMMA=   0.6987
  2.2224  0.8677  0.3302  0.3302  0.3145  0.1273

 Free energy of the ion-electron system (eV)
  ---------------------------------------------------
  alpha Z        PSCENC =      2023.78361127
  Ewald energy   TEWEN  =    124341.76261916
  -Hartree energ DENC   =   -174702.82083455
  -exchange      EXHF   =         0.00000000
  -V(xc)+E(xc)   XCENC  =       219.57881064
  PAW double counting   =     60570.55035721   -58975.93484917
  entropy T*S    EENTRO =        -0.02967927
  eigenvalues    EBANDS =      -542.29877721
  atomic energy  EATOM  =     46688.37031544
  Solvation  Ediel_sol  =         0.00000000
  ---------------------------------------------------
  free energy    TOTEN  =      -377.03842648 eV

  energy without entropy =     -377.00874721  energy(sigma->0) =     -377.02853339


--------------------------------------------------------------------------------------------------------




--------------------------------------- Iteration      1(  12)  ---------------------------------------


    POTLOK:  cpu time    0.1628: real time    0.1632
    SETDIJ:  cpu time    0.0162: real time    0.0163
    EDDIAG:  cpu time    3.4610: real time    3.4692
  RMM-DIIS:  cpu time   12.4933: real time   12.5307
    ORTHCH:  cpu time    0.2881: real time    0.2889
       DOS:  cpu time    0.0010: real time    0.0010
    CHARGE:  cpu time    1.5964: real time    1.6002
    MIXING:  cpu time    0.0059: real time    0.0059
    --------------------------------------------
      LOOP:  cpu time   18.0247: real time   18.0753

 eigenvalue-minimisations  :  3133
 total energy-change (2. order) : 0.7242501E+00  (-0.3447841E+00)
 number of electron     642.0000056 magnetization 
 augmentation part      197.4724716 magnetization 

 Broyden mixing:
  rms(total) = 0.17023E+01    rms(broyden)= 0.17023E+01
  rms(prec ) = 0.20879E+01
  weight for this iteration     100.00

 eigenvalues of (default mixing * dielectric matrix)
  average eigenvalue GAMMA=   0.6752
  2.2683  0.8800  0.4770  0.4770  0.1276  0.2715  0.2253

 Free energy of the ion-electron system (eV)
  ---------------------------------------------------
  alpha Z        PSCENC =      2023.78361127
  Ewald energy   TEWEN  =    124341.76261916
  -Hartree energ DENC   =   -174697.00429857
  -exchange      EXHF   =         0.00000000
  -V(xc)+E(xc)   XCENC  =       219.87867198
  PAW double counting   =     60626.34823350   -59031.60940388
  entropy T*S    EENTRO =        -0.03089843
  eigenvalues    EBANDS =      -547.81302683
  atomic energy  EATOM  =     46688.37031544
  Solvation  Ediel_sol  =         0.00000000
  ---------------------------------------------------
  free energy    TOTEN  =      -376.31417635 eV

  energy without entropy =     -376.28327793  energy(sigma->0) =     -376.30387688


--------------------------------------------------------------------------------------------------------




--------------------------------------- Iteration      1(  13)  ---------------------------------------


    POTLOK:  cpu time    0.1625: real time    0.1629
    SETDIJ:  cpu time    0.0143: real time    0.0143
    EDDIAG:  cpu time    3.4554: real time    3.4637
  RMM-DIIS:  cpu time   12.4886: real time   12.5182
    ORTHCH:  cpu time    0.3078: real time    0.3086
       DOS:  cpu time    0.0009: real time    0.0009
    CHARGE:  cpu time    1.6258: real time    1.6297
    MIXING:  cpu time    0.0102: real time    0.0103
    --------------------------------------------
      LOOP:  cpu time   18.0656: real time   18.1086

 eigenvalue-minimisations  :  3130
 total energy-change (2. order) : 0.1842520E+01  (-0.1996593E+00)
 number of electron     642.0000056 magnetization 
 augmentation part      197.4478460 magnetization 

 Broyden mixing:
  rms(total) = 0.97794E+00    rms(broyden)= 0.97794E+00
  rms(prec ) = 0.11980E+01
  weight for this iteration     100.00

 eigenvalues of (default mixing * dielectric matrix)
  average eigenvalue GAMMA=   0.6275
  2.2678  0.6624  0.6624  0.5592  0.2660  0.2660  0.1265  0.2094

 Free energy of the ion-electron system (eV)
  ---------------------------------------------------
  alpha Z        PSCENC =      2023.78361127
  Ewald energy   TEWEN  =    124341.76261916
  -Hartree energ DENC   =   -174704.85001495
  -exchange      EXHF   =         0.00000000
  -V(xc)+E(xc)   XCENC  =       220.02070668
  PAW double counting   =     60730.40568616   -59136.38606124
  entropy T*S    EENTRO =        -0.01594346
  eigenvalues    EBANDS =      -537.56257583
  atomic energy  EATOM  =     46688.37031544
  Solvation  Ediel_sol  =         0.00000000
  ---------------------------------------------------
  free energy    TOTEN  =      -374.47165677 eV

  energy without entropy =     -374.45571331  energy(sigma->0) =     -374.46634228


--------------------------------------------------------------------------------------------------------




--------------------------------------- Iteration      1(  14)  ---------------------------------------


    POTLOK:  cpu time    0.1682: real time    0.1686
    SETDIJ:  cpu time    0.0167: real time    0.0168
    EDDIAG:  cpu time    3.5090: real time    3.5194
  RMM-DIIS:  cpu time   12.5666: real time   12.5964
    ORTHCH:  cpu time    0.2890: real time    0.2897
       DOS:  cpu time    0.0010: real time    0.0010
    CHARGE:  cpu time    1.5982: real time    1.6021
    MIXING:  cpu time    0.0080: real time    0.0080
    --------------------------------------------
      LOOP:  cpu time   18.1567: real time   18.2019

 eigenvalue-minimisations  :  3134
 total energy-change (2. order) : 0.4675413E+00  (-0.3479498E-01)
 number of electron     642.0000057 magnetization 
 augmentation part      197.4744018 magnetization 

 Broyden mixing:
  rms(total) = 0.76441E+00    rms(broyden)= 0.76441E+00
  rms(prec ) = 0.90749E+00
  weight for this iteration     100.00

 eigenvalues of (default mixing * dielectric matrix)
  average eigenvalue GAMMA=   0.5866
  2.2563  0.6915  0.6062  0.6062  0.2825  0.2825  0.1267  0.2137  0.2137

 Free energy of the ion-electron system (eV)
  ---------------------------------------------------
  alpha Z        PSCENC =      2023.78361127
  Ewald energy   TEWEN  =    124341.76261916
  -Hartree energ DENC   =   -174705.81391064
  -exchange      EXHF   =         0.00000000
  -V(xc)+E(xc)   XCENC  =       220.03635980
  PAW double counting   =     60722.44957670   -59128.43598335
  entropy T*S    EENTRO =        -0.05099380
  eigenvalues    EBANDS =      -536.10571005
  atomic energy  EATOM  =     46688.37031544
  Solvation  Ediel_sol  =         0.00000000
  ---------------------------------------------------
  free energy    TOTEN  =      -374.00411546 eV

  energy without entropy =     -373.95312167  energy(sigma->0) =     -373.98711753


--------------------------------------------------------------------------------------------------------




--------------------------------------- Iteration      1(  15)  ---------------------------------------


    POTLOK:  cpu time    0.1630: real time    0.1634
    SETDIJ:  cpu time    0.0143: real time    0.0143
    EDDIAG:  cpu time    3.4578: real time    3.4661
  RMM-DIIS:  cpu time   12.7114: real time   12.7416
    ORTHCH:  cpu time    0.2885: real time    0.2892
       DOS:  cpu time    0.0009: real time    0.0009
    CHARGE:  cpu time    1.5979: real time    1.6017
    MIXING:  cpu time    0.0064: real time    0.0064
    --------------------------------------------
      LOOP:  cpu time   18.2402: real time   18.2836

 eigenvalue-minimisations  :  3153
 total energy-change (2. order) : 0.1746690E+00  (-0.4632217E-02)
 number of electron     642.0000056 magnetization 
 augmentation part      197.4694303 magnetization 

 Broyden mixing:
  rms(total) = 0.65363E+00    rms(broyden)= 0.65363E+00
  rms(prec ) = 0.72106E+00
  weight for this iteration     100.00

 eigenvalues of (default mixing * dielectric matrix)
  average eigenvalue GAMMA=   0.5942
  2.2307  0.6826  0.6826  0.7167  0.4041  0.4041  0.2539  0.2539  0.1268  0.1860

 Free energy of the ion-electron system (eV)
  ---------------------------------------------------
  alpha Z        PSCENC =      2023.78361127
  Ewald energy   TEWEN  =    124341.76261916
  -Hartree energ DENC   =   -174708.86274083
  -exchange      EXHF   =         0.00000000
  -V(xc)+E(xc)   XCENC  =       220.05032832
  PAW double counting   =     60702.92953288   -59108.70485590
  entropy T*S    EENTRO =        -0.04733074
  eigenvalues    EBANDS =      -533.11092604
  atomic energy  EATOM  =     46688.37031544
  Solvation  Ediel_sol  =         0.00000000
  ---------------------------------------------------
  free energy    TOTEN  =      -373.82944644 eV

  energy without entropy =     -373.78211569  energy(sigma->0) =     -373.81366952


--------------------------------------------------------------------------------------------------------




--------------------------------------- Iteration      1(  16)  ---------------------------------------


    POTLOK:  cpu time    0.1620: real time    0.1624
    SETDIJ:  cpu time    0.0143: real time    0.0143
    EDDIAG:  cpu time    3.4589: real time    3.4672
  RMM-DIIS:  cpu time   12.5177: real time   12.5473
    ORTHCH:  cpu time    0.2871: real time    0.2878
       DOS:  cpu time    0.0009: real time    0.0009
    CHARGE:  cpu time    1.5980: real time    1.6019
    MIXING:  cpu time    0.0076: real time    0.0076
    --------------------------------------------
      LOOP:  cpu time   18.0465: real time   18.0894

 eigenvalue-minimisations  :  3130
 total energy-change (2. order) : 0.1032189E+00  (-0.5905697E-02)
 number of electron     642.0000057 magnetization 
 augmentation part      197.4421130 magnetization 

 Broyden mixing:
  rms(total) = 0.53116E+00    rms(broyden)= 0.53116E+00
  rms(prec ) = 0.56425E+00
  weight for this iteration     100.00

 eigenvalues of (default mixing * dielectric matrix)
  average eigenvalue GAMMA=   0.6967
  2.1195  1.3685  1.3685  0.6547  0.6547  0.3371  0.3371  0.3008  0.1268  0.2205
  0.1763

 Free energy of the ion-electron system (eV)
  ---------------------------------------------------
  alpha Z        PSCENC =      2023.78361127
  Ewald energy   TEWEN  =    124341.76261916
  -Hartree energ DENC   =   -174714.31699830
  -exchange      EXHF   =         0.00000000
  -V(xc)+E(xc)   XCENC  =       220.10807734
  PAW double counting   =     60660.98261986   -59066.25675779
  entropy T*S    EENTRO =        -0.04813610
  eigenvalues    EBANDS =      -528.11157840
  atomic energy  EATOM  =     46688.37031544
  Solvation  Ediel_sol  =         0.00000000
  ---------------------------------------------------
  free energy    TOTEN  =      -373.72622751 eV

  energy without entropy =     -373.67809141  energy(sigma->0) =     -373.71018214


--------------------------------------------------------------------------------------------------------




--------------------------------------- Iteration      1(  17)  ---------------------------------------


    POTLOK:  cpu time    0.1628: real time    0.1632
    SETDIJ:  cpu time    0.0143: real time    0.0143
    EDDIAG:  cpu time    3.4706: real time    3.4789
  RMM-DIIS:  cpu time   12.5987: real time   12.6286
    ORTHCH:  cpu time    0.2864: real time    0.2871
       DOS:  cpu time    0.0010: real time    0.0010
    CHARGE:  cpu time    1.6003: real time    1.6041
    MIXING:  cpu time    0.0076: real time    0.0077
    --------------------------------------------
      LOOP:  cpu time   18.1417: real time   18.1848

 eigenvalue-minimisations  :  3133
 total energy-change (2. order) : 0.6934515E-01  (-0.2254030E-01)
 number of electron     642.0000057 magnetization 
 augmentation part      197.3629957 magnetization 

 Broyden mixing:
  rms(total) = 0.33088E+00    rms(broyden)= 0.33088E+00
  rms(prec ) = 0.38928E+00
  weight for this iteration     100.00

 eigenvalues of (default mixing * dielectric matrix)
  average eigenvalue GAMMA=   0.7239
  1.8419  1.8419  1.8000  0.6780  0.6780  0.3627  0.3627  0.1268  0.3117  0.2840
  0.2219  0.1776

 Free energy of the ion-electron system (eV)
  ---------------------------------------------------
  alpha Z        PSCENC =      2023.78361127
  Ewald energy   TEWEN  =    124341.76261916
  -Hartree energ DENC   =   -174731.47378342
  -exchange      EXHF   =         0.00000000
  -V(xc)+E(xc)   XCENC  =       220.36641829
  PAW double counting   =     60553.26929198   -58957.02650837
  entropy T*S    EENTRO =        -0.06066036
  eigenvalues    EBANDS =      -512.64818635
  atomic energy  EATOM  =     46688.37031544
  Solvation  Ediel_sol  =         0.00000000
  ---------------------------------------------------
  free energy    TOTEN  =      -373.65688236 eV

  energy without entropy =     -373.59622200  energy(sigma->0) =     -373.63666224


--------------------------------------------------------------------------------------------------------




--------------------------------------- Iteration      1(  18)  ---------------------------------------


    POTLOK:  cpu time    0.1631: real time    0.1635
    SETDIJ:  cpu time    0.0144: real time    0.0144
    EDDIAG:  cpu time    3.4545: real time    3.4628
  RMM-DIIS:  cpu time   12.4987: real time   12.5283
    ORTHCH:  cpu time    0.3215: real time    0.3223
       DOS:  cpu time    0.0010: real time    0.0010
    CHARGE:  cpu time    1.6066: real time    1.6104
    MIXING:  cpu time    0.0078: real time    0.0078
    --------------------------------------------
      LOOP:  cpu time   18.0676: real time   18.1106

 eigenvalue-minimisations  :  3131
 total energy-change (2. order) :-0.1399293E-02  (-0.1739736E-01)
 number of electron     642.0000057 magnetization 
 augmentation part      197.3300075 magnetization 

 Broyden mixing:
  rms(total) = 0.36975E+00    rms(broyden)= 0.36975E+00
  rms(prec ) = 0.41717E+00
  weight for this iteration     100.00

 eigenvalues of (default mixing * dielectric matrix)
  average eigenvalue GAMMA=   0.7061
  2.0083  2.0083  1.5529  0.7384  0.7384  0.3967  0.3510  0.3510  0.1268  0.2741
  0.2535  0.2039  0.1757

 Free energy of the ion-electron system (eV)
  ---------------------------------------------------
  alpha Z        PSCENC =      2023.78361127
  Ewald energy   TEWEN  =    124341.76261916
  -Hartree energ DENC   =   -174739.89505091
  -exchange      EXHF   =         0.00000000
  -V(xc)+E(xc)   XCENC  =       220.58546224
  PAW double counting   =     60507.79834773   -58910.69915416
  entropy T*S    EENTRO =        -0.05509158
  eigenvalues    EBANDS =      -505.30934086
  atomic energy  EATOM  =     46688.37031544
  Solvation  Ediel_sol  =         0.00000000
  ---------------------------------------------------
  free energy    TOTEN  =      -373.65828166 eV

  energy without entropy =     -373.60319007  energy(sigma->0) =     -373.63991780


--------------------------------------------------------------------------------------------------------




--------------------------------------- Iteration      1(  19)  ---------------------------------------


    POTLOK:  cpu time    0.1664: real time    0.1668
    SETDIJ:  cpu time    0.0144: real time    0.0144
    EDDIAG:  cpu time    3.4701: real time    3.4784
  RMM-DIIS:  cpu time   12.5052: real time   12.5349
    ORTHCH:  cpu time    0.2886: real time    0.2893
       DOS:  cpu time    0.0009: real time    0.0009
    CHARGE:  cpu time    1.5966: real time    1.6004
    MIXING:  cpu time    0.0083: real time    0.0083
    --------------------------------------------
      LOOP:  cpu time   18.0505: real time   18.0935

 eigenvalue-minimisations  :  3131
 total energy-change (2. order) : 0.3751090E-01  (-0.4851561E-02)
 number of electron     642.0000057 magnetization 
 augmentation part      197.3160295 magnetization 

 Broyden mixing:
  rms(total) = 0.25344E+00    rms(broyden)= 0.25344E+00
  rms(prec ) = 0.28217E+00
  weight for this iteration     100.00

 eigenvalues of (default mixing * dielectric matrix)
  average eigenvalue GAMMA=   0.6715
  1.8797  1.8797  1.6553  0.7840  0.7840  0.3831  0.3831  0.3685  0.2954  0.2954
  0.1268  0.2124  0.1772  0.1772

 Free energy of the ion-electron system (eV)
  ---------------------------------------------------
  alpha Z        PSCENC =      2023.78361127
  Ewald energy   TEWEN  =    124341.76261916
  -Hartree energ DENC   =   -174742.16717769
  -exchange      EXHF   =         0.00000000
  -V(xc)+E(xc)   XCENC  =       220.65153564
  PAW double counting   =     60537.78597903   -58940.76668873
  entropy T*S    EENTRO =        -0.04849945
  eigenvalues    EBANDS =      -502.99246544
  atomic energy  EATOM  =     46688.37031544
  Solvation  Ediel_sol  =         0.00000000
  ---------------------------------------------------
  free energy    TOTEN  =      -373.62077076 eV

  energy without entropy =     -373.57227131  energy(sigma->0) =     -373.60460428


--------------------------------------------------------------------------------------------------------




--------------------------------------- Iteration      1(  20)  ---------------------------------------


    POTLOK:  cpu time    0.1636: real time    0.1639
    SETDIJ:  cpu time    0.0144: real time    0.0144
    EDDIAG:  cpu time    3.4579: real time    3.4662
  RMM-DIIS:  cpu time   12.5925: real time   12.6262
    ORTHCH:  cpu time    0.2885: real time    0.2893
       DOS:  cpu time    0.0010: real time    0.0010
    CHARGE:  cpu time    1.5906: real time    1.5954
    MIXING:  cpu time    0.0089: real time    0.0089
    --------------------------------------------
      LOOP:  cpu time   18.1174: real time   18.1653

 eigenvalue-minimisations  :  3131
 total energy-change (2. order) : 0.2661726E-01  (-0.1704131E-02)
 number of electron     642.0000057 magnetization 
 augmentation part      197.3065193 magnetization 

 Broyden mixing:
  rms(total) = 0.14578E+00    rms(broyden)= 0.14578E+00
  rms(prec ) = 0.16157E+00
  weight for this iteration     100.00

 eigenvalues of (default mixing * dielectric matrix)
  average eigenvalue GAMMA=   0.6853
  2.2198  1.4202  1.4202  0.9953  0.9953  0.6456  0.6456  0.3375  0.3375  0.3090
  0.1268  0.2621  0.2190  0.1785  0.1667

 Free energy of the ion-electron system (eV)
  ---------------------------------------------------
  alpha Z        PSCENC =      2023.78361127
  Ewald energy   TEWEN  =    124341.76261916
  -Hartree energ DENC   =   -174742.78512644
  -exchange      EXHF   =         0.00000000
  -V(xc)+E(xc)   XCENC  =       220.65214859
  PAW double counting   =     60571.32778979   -58974.54568007
  entropy T*S    EENTRO =        -0.04960318
  eigenvalues    EBANDS =      -502.11022807
  atomic energy  EATOM  =     46688.37031544
  Solvation  Ediel_sol  =         0.00000000
  ---------------------------------------------------
  free energy    TOTEN  =      -373.59415350 eV

  energy without entropy =     -373.54455033  energy(sigma->0) =     -373.57761911


--------------------------------------------------------------------------------------------------------




--------------------------------------- Iteration      1(  21)  ---------------------------------------


    POTLOK:  cpu time    0.1661: real time    0.1665
    SETDIJ:  cpu time    0.0155: real time    0.0155
    EDDIAG:  cpu time    3.4639: real time    3.4741
  RMM-DIIS:  cpu time   12.5234: real time   12.5601
    ORTHCH:  cpu time    0.2899: real time    0.2910
       DOS:  cpu time    0.0010: real time    0.0010
    CHARGE:  cpu time    1.6008: real time    1.6054
    MIXING:  cpu time    0.0088: real time    0.0088
    --------------------------------------------
      LOOP:  cpu time   18.0695: real time   18.1224

 eigenvalue-minimisations  :  3135
 total energy-change (2. order) : 0.1128822E-01  (-0.1713683E-02)
 number of electron     642.0000057 magnetization 
 augmentation part      197.2718500 magnetization 

 Broyden mixing:
  rms(total) = 0.11544E+00    rms(broyden)= 0.11544E+00
  rms(prec ) = 0.13845E+00
  weight for this iteration     100.00

 eigenvalues of (default mixing * dielectric matrix)
  average eigenvalue GAMMA=   0.6971
  2.3197  1.4201  1.4201  1.1585  1.1585  0.7268  0.7268  0.3472  0.3472  0.2923
  0.2923  0.1268  0.2564  0.2182  0.1771  0.1657

 Free energy of the ion-electron system (eV)
  ---------------------------------------------------
  alpha Z        PSCENC =      2023.78361127
  Ewald energy   TEWEN  =    124341.76261916
  -Hartree energ DENC   =   -174744.91997328
  -exchange      EXHF   =         0.00000000
  -V(xc)+E(xc)   XCENC  =       220.64593098
  PAW double counting   =     60621.25688248   -59024.77507445
  entropy T*S    EENTRO =        -0.05251867
  eigenvalues    EBANDS =      -499.65465821
  atomic energy  EATOM  =     46688.37031544
  Solvation  Ediel_sol  =         0.00000000
  ---------------------------------------------------
  free energy    TOTEN  =      -373.58286528 eV

  energy without entropy =     -373.53034660  energy(sigma->0) =     -373.56535905


--------------------------------------------------------------------------------------------------------




--------------------------------------- Iteration      1(  22)  ---------------------------------------


    POTLOK:  cpu time    0.1661: real time    0.1665
    SETDIJ:  cpu time    0.0152: real time    0.0152
    EDDIAG:  cpu time    3.4981: real time    3.5088
  RMM-DIIS:  cpu time   12.5348: real time   12.5711
    ORTHCH:  cpu time    0.2898: real time    0.2908
       DOS:  cpu time    0.0010: real time    0.0010
    CHARGE:  cpu time    1.6095: real time    1.6140
    MIXING:  cpu time    0.0091: real time    0.0092
    --------------------------------------------
      LOOP:  cpu time   18.1237: real time   18.1766

 eigenvalue-minimisations  :  3135
 total energy-change (2. order) : 0.6066730E-02  (-0.8268451E-03)
 number of electron     642.0000057 magnetization 
 augmentation part      197.2591874 magnetization 

 Broyden mixing:
  rms(total) = 0.75113E-01    rms(broyden)= 0.75113E-01
  rms(prec ) = 0.10515E+00
  weight for this iteration     100.00

 eigenvalues of (default mixing * dielectric matrix)
  average eigenvalue GAMMA=   0.7079
  2.2339  1.6424  1.6424  1.2757  1.2757  0.6804  0.6804  0.3824  0.3824  0.3163
  0.3163  0.1268  0.2592  0.2592  0.2170  0.1775  0.1657

 Free energy of the ion-electron system (eV)
[...]
    FORNL :  cpu time    5.8302: real time    5.8469
    STRESS:  cpu time   17.4184: real time   17.4596
    FORCOR:  cpu time    0.2126: real time    0.2131
    FORHAR:  cpu time    0.1042: real time    0.1045
    MIXING:  cpu time    0.0064: real time    0.0064
    OFIELD:  cpu time    0.0001: real time    0.0001

 ---------------------------------------------------------------------------------------------

         DFTD3 V3.0 Rev 1        
 Edisp (eV)  -38.69315

 E6    (eV) :   -14.2991
 E8    (eV) :   -24.3940
 % E8        : 63.04
    FORVDW:  cpu time    0.3245: real time    0.3256

  FORCE on cell =-STRESS in cart. coord.  units (eV):
  Direction    XX          YY          ZZ          XY          YZ          ZX
  --------------------------------------------------------------------------------------
  Alpha Z  2023.78361  2023.78361  2023.78361
  Ewald  161009.79246160994.48120************   -13.38963    -3.34028     6.02453
  Hartree171997.74560171992.89388************    -4.34904    -1.78552     3.08897
  E(xc)   -2861.53362 -2861.59512 -2886.88397    -0.05645     0.00053     0.00131
  Local  ************************354917.33004    14.92972     4.89400    -8.61115
  n-local   564.94008   564.46213   314.80547    -0.43764    -0.48323     0.84977
  augment  3256.99746  3257.80377  3526.50994     0.73669     0.22892    -0.43873
  Kinetic  9173.45366  9175.95458  9746.75937     2.20033     0.51690    -0.97904
  Fock        0.00000     0.00000     0.00000     0.00000     0.00000     0.00000
  vdW       -53.13370   -53.11876   -28.35706     0.01761     0.01175    -0.01845
  -------------------------------------------------------------------------------------
  Total      78.29688    77.87371    -0.17828    -0.34841     0.04306    -0.08279
  in kB      64.94812    64.59709    -0.14789    -0.28901     0.03572    -0.06868
  external pressure =       43.13 kB  Pullay stress =        0.00 kB


 VOLUME and BASIS-vectors are now :
 -----------------------------------------------------------------------------
  energy-cutoff  :      550.00
  volume of cell :     1931.47
      direct lattice vectors                 reciprocal lattice vectors
    10.560000420  0.000000000  0.000000000     0.094696966  0.054673319  0.000000000
    -5.280000210  9.145228627  0.000000000     0.000000000  0.109346638  0.000000000
     0.000000000  0.000000000 20.000000000     0.000000000  0.000000000  0.050000000

  length of vectors
    10.560000420 10.560000420 20.000000000     0.109346638  0.109346638  0.050000000


 FORCES acting on ions
    electron-ion (+dipol)            ewald-force                    non-local-force                 convergence-correction
 -----------------------------------------------------------------------------------------------
   0.118E+00 -.172E+02 0.231E+04   -.420E-01 0.172E+02 -.231E+04   -.576E-01 0.754E-01 -.243E+00   0.192E-03 0.482E-02 -.689E-02
   0.752E+01 -.233E+02 0.765E+03   -.763E+01 0.236E+02 -.765E+03   0.126E+00 -.283E+00 -.503E+00   0.220E-02 -.106E-01 -.793E-02
   -.527E+01 0.170E+01 -.908E+03   0.553E+01 -.171E+01 0.908E+03   -.274E+00 -.293E-01 0.145E+00   -.264E-01 0.160E-02 0.290E-01
   0.423E+01 0.392E+02 -.224E+04   -.408E+01 -.386E+02 0.224E+04   -.153E+00 -.524E+00 -.736E-01   -.275E-01 -.114E-01 -.947E-02
   -.152E+02 -.880E+01 0.230E+04   0.154E+02 0.891E+01 -.230E+04   -.693E-01 -.275E-01 -.209E-01   -.256E-02 0.917E-02 -.430E-02
   -.140E+01 0.814E+00 0.635E+03   0.138E+01 -.802E+00 -.634E+03   0.397E-01 -.242E-01 -.136E+01   -.118E-01 0.588E-02 -.245E-01
   0.448E+00 -.720E+01 -.767E+03   -.398E+00 0.781E+01 0.767E+03   -.419E-01 -.556E+00 0.333E-01   -.180E-01 -.201E-01 0.742E-02
   0.379E+02 0.193E+02 -.229E+04   -.374E+02 -.191E+02 0.229E+04   -.497E+00 -.127E+00 0.264E+00   -.163E-01 -.241E-01 -.368E-02
   -.570E+00 -.248E+02 0.228E+04   0.582E+00 0.249E+02 -.228E+04   0.607E-02 0.589E-02 0.116E+00   -.194E-02 0.604E-02 -.600E-02
   -.237E+02 0.552E+01 0.767E+03   0.240E+02 -.552E+01 -.766E+03   -.312E+00 -.230E-01 -.522E+00   -.103E-01 0.359E-02 0.291E-02
   0.125E+01 -.165E+01 -.743E+03   -.136E+01 0.205E+01 0.742E+03   0.106E+00 -.366E+00 0.237E+00   0.198E-01 -.262E-01 -.772E-02
   0.144E+02 0.644E+02 -.239E+04   -.151E+02 -.655E+02 0.239E+04   0.747E+00 0.107E+01 0.204E+00   -.259E-01 -.556E-02 -.352E-02
   -.226E+00 -.178E+02 0.231E+04   0.135E+00 0.179E+02 -.231E+04   0.547E-01 0.929E-01 -.271E+00   0.646E-02 -.186E-02 -.290E-02
   -.719E+01 -.230E+02 0.769E+03   0.738E+01 0.233E+02 -.768E+03   -.182E+00 -.281E+00 -.509E+00   -.869E-02 0.194E-02 0.141E-01
   0.329E+01 -.188E+01 -.928E+03   -.340E+01 0.195E+01 0.928E+03   0.163E+00 -.933E-01 0.397E+00   -.499E-02 0.280E-02 0.875E-02
   -.300E+01 0.358E+02 -.223E+04   0.279E+01 -.355E+02 0.223E+04   0.232E+00 -.207E+00 0.360E-01   -.517E-02 -.133E-01 0.938E-02
   -.164E+01 -.176E+01 0.231E+04   0.161E+01 0.176E+01 -.231E+04   0.103E-01 0.114E-01 -.281E+00   -.517E-03 -.398E-02 0.305E-03
   -.503E+01 -.307E+01 0.795E+03   0.519E+01 0.317E+01 -.795E+03   -.161E+00 -.108E+00 -.437E+00   -.882E-02 0.241E-02 0.220E-01
   0.206E+01 -.305E+00 -.742E+03   -.246E+01 0.201E+00 0.742E+03   0.370E+00 0.932E-01 0.236E+00   0.323E-01 -.462E-02 -.784E-02
   0.353E-01 0.485E+01 -.227E+04   -.781E-01 -.485E+01 0.227E+04   0.100E-01 0.213E-01 0.546E-01   0.426E-01 -.146E-01 0.535E-03
   0.150E+02 -.866E+01 0.230E+04   -.152E+02 0.879E+01 -.230E+04   0.641E-01 -.372E-01 0.668E-01   0.100E-02 -.121E-02 -.401E-02
   0.756E+00 0.756E+01 0.812E+03   -.760E+00 -.756E+01 -.812E+03   -.430E-02 -.142E-01 -.240E+00   0.620E-02 -.694E-02 0.112E-01
   -.219E+00 0.118E+00 -.744E+03   0.201E+00 -.108E+00 0.744E+03   0.327E-02 -.900E-03 0.436E+00   0.205E-01 -.125E-01 0.201E-01
   -.463E+02 0.267E+02 -.228E+04   0.463E+02 -.267E+02 0.228E+04   -.375E-01 0.199E-01 -.971E+00   0.804E-02 -.474E-02 0.596E-04
   0.724E+00 0.232E+01 0.231E+04   -.738E+00 -.229E+01 -.231E+04   -.493E-02 -.151E-01 -.281E+00   0.346E-02 0.191E-02 0.261E-03
   0.239E+02 0.514E+01 0.765E+03   -.242E+02 -.519E+01 -.765E+03   0.308E+00 0.316E-01 -.503E+00   0.972E-02 0.224E-02 -.799E-02
   -.155E+01 -.928E+00 -.738E+03   0.165E+01 0.112E+01 0.737E+03   -.868E-01 -.189E+00 0.431E+00   -.253E-01 -.430E-02 0.270E-01
   -.435E+01 -.251E+01 -.227E+04   0.433E+01 0.255E+01 0.227E+04   -.755E-02 -.183E-01 0.557E-01   0.334E-01 -.300E-01 0.825E-03
   0.173E+01 -.977E+00 0.231E+04   -.169E+01 0.953E+00 -.231E+04   -.634E-02 0.341E-02 -.284E+00   -.615E-02 0.386E-02 -.257E-02
   0.461E+01 -.267E+01 0.791E+03   -.483E+01 0.280E+01 -.791E+03   0.213E+00 -.123E+00 -.499E+00   0.144E-01 -.859E-02 0.157E-01
   -.124E+01 -.109E+01 -.736E+03   0.141E+01 0.101E+01 0.736E+03   -.193E+00 0.849E-01 0.396E+00   0.133E-02 -.138E-01 0.136E-01
   -.734E+00 0.301E+00 -.227E+04   0.805E+00 -.342E+00 0.227E+04   -.122E+00 0.718E-01 0.385E-01   0.393E-02 -.267E-02 -.976E-02
   -.149E+02 0.857E+01 0.231E+04   0.150E+02 -.849E+01 -.231E+04   0.364E-01 -.937E-01 -.292E+00   0.678E-02 -.141E-03 -.318E-03
   -.166E+02 0.178E+02 0.767E+03   0.168E+02 -.180E+02 -.766E+03   -.137E+00 0.279E+00 -.524E+00   -.900E-02 0.711E-02 0.295E-02
   0.218E+00 0.302E+00 -.692E+03   -.883E-01 -.222E+00 0.692E+03   -.122E+00 -.752E-01 0.503E+00   0.870E-02 0.186E-02 0.144E-01
   0.341E+02 -.163E+02 -.225E+04   -.336E+02 0.161E+02 0.225E+04   -.460E+00 0.130E+00 0.226E-01   0.946E-02 -.964E-03 0.736E-02
   -.505E-01 0.244E-01 0.232E+04   0.451E-01 -.216E-01 -.232E+04   0.121E-01 -.745E-02 -.418E+00   0.105E-01 -.538E-02 -.339E-02
   -.615E+01 -.441E+01 0.812E+03   0.614E+01 0.441E+01 -.812E+03   0.869E-02 0.102E-01 -.239E+00   0.796E-02 -.188E-02 0.113E-01
   -.242E+01 0.142E+01 -.768E+03   0.292E+01 -.170E+01 0.768E+03   -.469E+00 0.271E+00 -.295E-02   -.243E-02 0.105E-02 0.128E-01
   -.800E+00 0.495E+00 -.222E+04   0.781E+00 -.485E+00 0.222E+04   0.415E-02 -.255E-02 0.236E+00   0.580E-02 -.314E-02 0.197E-01
   -.149E+02 0.862E+01 0.231E+04   0.149E+02 -.873E+01 -.231E+04   0.991E-01 0.146E-01 -.291E+00   0.322E-02 -.527E-02 -.120E-03
   0.388E+00 -.130E+02 0.815E+03   -.394E+00 0.133E+02 -.815E+03   -.718E-02 -.248E+00 -.187E+00   0.681E-02 -.180E-02 0.132E-01
   -.410E+01 0.370E+01 -.909E+03   0.423E+01 -.393E+01 0.909E+03   -.110E+00 0.253E+00 0.147E+00   -.142E-01 0.222E-01 0.302E-01
   0.312E+02 -.213E+02 -.225E+04   -.308E+02 0.210E+02 0.225E+04   -.343E+00 0.332E+00 0.214E-01   0.645E-02 -.707E-02 0.698E-02
   -.216E+02 0.124E+02 0.228E+04   0.217E+02 -.125E+02 -.228E+04   0.208E-01 -.120E-01 0.103E+00   -.500E-02 0.261E-02 -.349E-02
   -.113E+02 0.651E+01 0.813E+03   0.115E+02 -.663E+01 -.813E+03   -.212E+00 0.123E+00 -.253E+00   0.639E-02 -.271E-02 -.196E-03
   0.310E+00 0.160E+01 -.736E+03   -.149E+00 -.172E+01 0.736E+03   -.170E+00 0.126E+00 0.397E+00   0.127E-01 0.636E-02 0.141E-01
   0.549E+02 -.316E+02 -.235E+04   -.548E+02 0.316E+02 0.235E+04   -.167E+00 0.961E-01 -.131E+01   -.620E-02 0.437E-02 -.211E-01
   0.212E+02 0.128E+02 0.228E+04   -.213E+02 -.129E+02 -.228E+04   -.217E-02 -.846E-02 0.116E+00   -.676E-02 -.196E-02 -.632E-02
   0.115E+02 0.617E+01 0.815E+03   -.117E+02 -.629E+01 -.815E+03   0.211E+00 0.130E+00 -.188E+00   0.547E-02 -.372E-02 0.127E-01
   0.188E-01 0.181E+01 -.738E+03   -.140E+00 -.199E+01 0.737E+03   0.122E+00 0.170E+00 0.430E+00   -.960E-02 0.246E-01 0.275E-01
   -.487E+02 -.444E+02 -.239E+04   0.493E+02 0.455E+02 0.239E+04   -.552E+00 -.120E+01 0.216E+00   -.817E-02 0.253E-01 -.338E-02
   0.459E-01 0.175E+02 0.230E+04   -.265E-01 -.178E+02 -.230E+04   -.108E-01 0.733E-01 -.203E-01   -.977E-02 -.208E-02 -.455E-02
   0.553E+01 -.317E+01 0.811E+03   -.550E+01 0.314E+01 -.811E+03   -.231E-01 0.129E-01 -.240E+00   -.726E-02 0.482E-02 0.227E-01
   0.643E+01 0.323E+01 -.767E+03   -.693E+01 -.357E+01 0.767E+03   0.461E+00 0.314E+00 0.334E-01   0.757E-02 0.252E-01 0.839E-02
   0.224E+01 -.424E+02 -.229E+04   -.212E+01 0.419E+02 0.229E+04   -.138E+00 0.487E+00 0.264E+00   0.127E-01 0.258E-01 -.335E-02
   0.149E+02 0.848E+01 0.231E+04   -.149E+02 -.856E+01 -.231E+04   -.944E-01 0.119E-01 -.243E+00   -.385E-02 -.177E-02 -.718E-02
   0.127E+00 0.592E+01 0.795E+03   -.138E+00 -.610E+01 -.795E+03   0.136E-01 0.193E+00 -.436E+00   -.675E-02 0.684E-02 0.225E-01
   -.164E+00 -.299E+00 -.692E+03   0.158E+00 0.147E+00 0.692E+03   0.495E-02 0.143E+00 0.504E+00   0.364E-02 -.835E-02 0.149E-01
   -.319E+02 -.233E+02 -.224E+04   0.315E+02 0.229E+02 0.224E+04   0.378E+00 0.398E+00 -.733E-01   -.444E-02 0.297E-01 -.889E-02
   0.153E+02 0.910E+01 0.231E+04   -.154E+02 -.903E+01 -.231E+04   -.531E-01 -.940E-01 -.273E+00   0.505E-02 -.484E-02 -.338E-02
   0.163E+02 0.177E+02 0.769E+03   -.165E+02 -.180E+02 -.768E+03   0.153E+00 0.298E+00 -.511E+00   -.633E-02 0.705E-02 0.141E-01
   -.170E+00 0.921E-01 -.695E+03   0.376E-01 -.170E-01 0.694E+03   0.146E+00 -.844E-01 0.421E+00   -.195E-01 0.123E-01 0.252E-01
   -.326E+02 -.153E+02 -.223E+04   0.323E+02 0.154E+02 0.223E+04   0.299E+00 -.954E-01 0.341E-01   0.867E-02 0.116E-01 0.937E-02
   0.211E+00 -.126E+00 -.291E+03   0.339E+00 -.192E+00 0.293E+03   -.530E+00 0.307E+00 -.180E+01   -.439E-03 0.303E-03 0.182E-03
   -.781E+01 0.446E+01 -.290E+03   0.765E+01 -.436E+01 0.292E+03   0.172E+00 -.107E+00 -.175E+01   -.937E-03 0.575E-03 0.169E-02
 -----------------------------------------------------------------------------------------------
   0.120E+01 -.672E+00 0.914E+01   -.636E-12 -.152E-11 0.341E-12   -.122E+01 0.682E+00 -.946E+01   0.127E-01 -.636E-02 0.300E+00
 
 
 POSITION                                       TOTAL-FORCE (eV/Angst)
 -----------------------------------------------------------------------------------
     10.55998      0.00001      1.11585         0.023566      0.101253     -0.139116
      2.63069      1.54662      3.59747         0.000158     -0.004515      0.006239
      0.02445      3.04923      6.20615         0.006374      0.001392      0.018278
      0.00051      0.01394      8.30773        -0.012650     -0.017204      0.009525
      9.23998      2.28632      1.11585         0.159095      0.092494      0.137187
      1.31815      3.81155      3.84589         0.007408     -0.005260     -0.006047
      1.32325      0.79713      5.96894        -0.003612      0.016166      0.008132
     -1.32544      2.28415      8.43958         0.019207      0.012044     -0.008173
      1.31998      2.28632      1.11585         0.015434      0.179356      0.197501
     -1.29739      3.81026      3.59363        -0.001291     -0.008160     -0.001919
      3.95706      0.77753      5.92952        -0.006744      0.009041      0.011189
      1.29326      2.24916      8.86972         0.017382     -0.013604      0.014709
      2.63998      0.00001      1.11585        -0.033759      0.118148     -0.147328
      0.01148      1.54617      3.59124         0.015775      0.001030     -0.004527
      2.63266      3.05218      6.22056         0.004071     -0.001949      0.012161
      2.62727      0.00787      8.28434         0.004364     -0.009363      0.004135
      5.27998      0.00001      1.11585        -0.022924      0.003969     -0.013308
      7.92580      1.52797      3.53831        -0.001315      0.005878     -0.005260
      5.26477      3.04247      5.92945        -0.011845      0.001798      0.011166
      5.28223     -0.00377      8.33505         0.002510      0.002199     -0.006161
      3.95998      2.28632      1.11585        -0.168078      0.096951      0.104900
      6.60010      3.80662      3.50081        -0.000221     -0.006217     -0.002753
      6.60198      0.76047      5.92846         0.002787     -0.001589      0.004635
      3.98484      2.27146      8.49661        -0.021168      0.011688      0.038355
      6.59998      2.28632      1.11585        -0.014687      0.017749     -0.013484
      3.93586      3.80724      3.59734         0.004298      0.001977      0.006795
      9.24723      0.77233      5.92080         0.003719      0.003135      0.003027
      6.60371      2.28533      8.33461         0.001183     -0.003766     -0.004937
      7.91998      0.00001      1.11585         0.034793     -0.019897     -0.032164
      5.27026      1.52966      3.54698        -0.005680      0.003899     -0.002780
      7.93686      3.04024      5.92030         0.000350      0.003535     -0.003217
      7.92562     -0.00392      8.33764        -0.038559      0.023307      0.003091
      7.91998      4.57263      1.11585         0.117969     -0.005149     -0.149128
      0.01145      6.07738      3.59394         0.005493      0.003994     -0.002239
     -2.62672      7.62257      5.83307         0.006655      0.000756     -0.001533
     -2.64492      4.57161      8.30309        -0.022908     -0.002516     -0.003821
      6.59998      6.85894      1.11585         0.016787     -0.009786     -0.240643
     -1.31663      8.38484      3.50092         0.004066      0.002302     -0.002626
     -1.28110      5.31187      5.98007         0.005572     -0.003232     -0.005246
     -3.96785      6.86284      8.19821        -0.008319      0.004230     -0.018916
     -1.32002      6.85894      1.11585         0.063825     -0.099466     -0.148777
     -3.95881      8.39901      3.48877        -0.005687     -0.000087     -0.002737
      1.33107      5.31245      6.20638         0.002576     -0.005607      0.018800
     -1.32212      6.86289      8.30378        -0.010422      0.021510     -0.004853
     -0.00002      4.57263      1.11585         0.151881     -0.087382      0.220031
     -2.62664      6.08895      3.49250         0.003650     -0.000872     -0.007677
      0.01510      7.60986      5.92080        -0.002851     -0.001855     -0.002471
     -0.05164      4.60179      8.73021        -0.036254      0.021734      0.009598
      2.63998      4.57263      1.11585        -0.147752     -0.102870      0.197533
      5.26672      6.08770      3.48882        -0.003438      0.005348     -0.002692
      2.63440      7.60902      5.92114        -0.000543     -0.004229      0.001817
      2.65825      4.61336      8.86923         0.019501     -0.007837      0.013912
      1.31998      6.85894      1.11585        -0.000659     -0.183987      0.137897
      3.95601      8.38533      3.50439         0.015250     -0.009668      0.004495
      3.93085      5.31376      5.96905        -0.015264     -0.004573      0.007419
      1.31864      6.86395      8.44007        -0.002132     -0.026037     -0.008599
      3.95998      6.85894      1.11585        -0.076144     -0.070820     -0.138887
      1.31951      8.37604      3.53844        -0.005172     -0.001746     -0.004432
      6.60477      5.32188      5.83298         0.003036     -0.006764     -0.000973
      3.94761      6.85035      8.30810         0.009341      0.021067      0.009826
      5.27998      4.57263      1.11585        -0.119211     -0.029570     -0.147811
      2.62660      6.07577      3.59142         0.007513     -0.013355     -0.005356
      5.27378      7.62417      5.83384         0.000928     -0.000736      0.003003
      5.26622      4.57866      8.28444         0.010046      0.001284      0.004101
      1.06520      3.95836      9.84493         0.015267     -0.008389      0.026597
      2.90357      2.89107      9.71545         0.017459     -0.011172      0.044539
 -----------------------------------------------------------------------------------
    total drift:                               -0.006665      0.004070     -0.012944


--------------------------------------------------------------------------------------------------------



  FREE ENERGIE OF THE ION-ELECTRON SYSTEM (eV)
  ---------------------------------------------------
  free  energy   TOTEN  =      -412.61919586 eV

  energy  without entropy=     -412.57871622  energy(sigma->0) =     -412.60570265
 
 d Force = 0.2113574E-02[ 0.935E-03, 0.329E-02]  d Energy = 0.2097654E-02 0.159E-04
 d Force = 0.3316535E+02[ 0.332E+02, 0.332E+02]  d Ewald  = 0.3316535E+02 0.958E-07


--------------------------------------------------------------------------------------------------------


    POTLOK:  cpu time    0.1842: real time    0.1846


--------------------------------------------------------------------------------------------------------


 Conjugate gradient step on ions:
 trial-energy change:   -0.002098  1 .order   -0.002114   -0.003293   -0.000935
  (g-gl).g = 0.258E-02      g.g   = 0.257E-02  gl.gl    = 0.467E-02
 g(Force)  = 0.257E-02   g(Stress)= 0.000E+00 ortho     = 0.294E-04
 gamma     =   0.55291
 trial     =   1.27131
 opt step  =   1.77524  (harmonic =   1.77524) maximal distance =0.01239988
 next E    =  -412.619397   (d E  =  -0.00230)


--------------------------------------------------------------------------------------------------------


  
 reached required accuracy - stopping structural energy minimisation
     LOOP+:  cpu time  181.1762: real time  181.6368
    4ORBIT:  cpu time    0.0000: real time    0.0000

 total amount of memory used by VASP MPI-rank0   141034. kBytes
=======================================================================

   base      :      30000. kBytes
   nonlr-proj:      31123. kBytes
   fftplans  :      17093. kBytes
   grid      :      26437. kBytes
   one-center:        264. kBytes
   wavefun   :      36117. kBytes
 
  
  
 General timing and accounting informations for this job:
 ========================================================
  
                  Total CPU time used (sec):     3118.749
                            User time (sec):     3110.760
                          System time (sec):        7.988
                         Elapsed time (sec):     3129.916
  
                   Maximum memory used (kb):      538816.
                   Average memory used (kb):           0.
  
                          Minor page faults:      1811577
                          Major page faults:            0
                 Voluntary context switches:         5311
