 vasp.5.4.4.18Apr17-6-g9f103f2a35 (build Nov 30 2020 22:55:02) complex          
  
 executed on             LinuxIFC date 2023.07.29  23:16:57
 running on   40 total cores
 distrk:  each k-point on   40 cores,    1 groups
 distr:  one band on NCORES_PER_BAND=   4 cores,   10 groups


--------------------------------------------------------------------------------------------------------


 INCAR:
 POTCAR:    PAW_PBE Pt 04Feb2005                  
 POTCAR:    PAW_PBE Cu 22Jun2005                  
 POTCAR:    PAW_PBE Ni 02Aug2007                  
 POTCAR:    PAW_PBE Fe 06Sep2000                  
 POTCAR:    PAW_PBE Co 02Aug2007                  
 POTCAR:    PAW_PBE H 15Jun2001                   
 POTCAR:    PAW_PBE Pt 04Feb2005                  
   VRHFIN =Pt: s1d9                                                             
   LEXCH  = PE                                                                  
   EATOM  =   729.1176 eV,   53.5886 Ry                                         
                                                                                
   TITEL  = PAW_PBE Pt 04Feb2005                                                
   LULTRA =        F    use ultrasoft PP ?                                      
   IUNSCR =        1    unscreen: 0-lin 1-nonlin 2-no                           
   RPACOR =    2.330    partial core radius                                     
   POMASS =  195.080; ZVAL   =   10.000    mass and valenz                      
   RCORE  =    2.600    outmost cutoff radius                                   
   RWIGS  =    2.750; RWIGS  =    1.455    wigner-seitz radius (au A)           
   ENMAX  =  230.283; ENMIN  =  172.712 eV                                      
   ICORE  =        3    local potential                                         
   LCOR   =        T    correct aug charges                                     
   LPAW   =        T    paw PP                                                  
   EAUG   =  358.966                                                            
   DEXC   =    0.000                                                            
   RMAX   =    2.658    core radius for proj-oper                               
   RAUG   =    1.300    factor for augmentation sphere                          
   RDEP   =    2.761    radius for radial grids                                 
   RDEPT  =    2.203    core radius for aug-charge                              
                                                                                
   Atomic configuration                                                         
   16 entries                                                                   
     n  l   j            E        occ.                                          
     1  0  0.50    -78401.1885   2.0000                                         
     2  0  0.50    -13770.7750   2.0000                                         
     2  1  1.50    -11931.0468   6.0000                                         
     3  0  0.50     -3234.7234   2.0000                                         
     3  1  1.50     -2699.2216   6.0000                                         
     3  2  2.50     -2119.5714  10.0000                                         
     4  0  0.50      -695.1528   2.0000                                         
     4  1  1.50      -519.6034   6.0000                                         
     4  2  2.50      -306.6786  10.0000                                         
     4  3  3.50       -70.1041  14.0000                                         
     5  0  0.50      -101.7747   2.0000                                         
     5  1  1.50       -55.9873   6.0000                                         
     5  2  2.50        -6.1423   9.0000                                         
     6  0  0.50        -5.6573   1.0000                                         
     6  1  1.50        -6.8029   0.0000                                         
     5  3  2.50        -1.3606   0.0000                                         
   Description                                                                  
     l       E           TYP  RCUT    TYP  RCUT                                 
     2     -6.1423404     23  2.500                                             
     2     -7.5029230     23  2.500                                             
     0     -5.6573207     23  2.500                                             
     0      0.7416693     23  2.500                                             
     1     -2.7211652     23  2.600                                             
     1     20.4087390     23  2.600                                             
     3     -1.3605826     23  2.500                                             
  local pseudopotential read in
  partial core-charges read in
  partial kinetic energy density read in
  atomic valenz-charges read in
  non local Contribution for L=           2  read in
    real space projection operators read in
  non local Contribution for L=           2  read in
    real space projection operators read in
  non local Contribution for L=           0  read in
    real space projection operators read in
  non local Contribution for L=           0  read in
    real space projection operators read in
  non local Contribution for L=           1  read in
    real space projection operators read in
  non local Contribution for L=           1  read in
    real space projection operators read in
    PAW grid and wavefunctions read in
 
   number of l-projection  operators is LMAX  =           6
   number of lm-projection operators is LMMAX =          18
 
 POTCAR:    PAW_PBE Cu 22Jun2005                  
   VRHFIN =Cu: d10 p1                                                           
   LEXCH  = PE                                                                  
   EATOM  =  1390.9808 eV,  102.2342 Ry                                         
                                                                                
   TITEL  = PAW_PBE Cu 22Jun2005                                                
   LULTRA =        F    use ultrasoft PP ?                                      
   IUNSCR =        1    unscreen: 0-lin 1-nonlin 2-no                           
   RPACOR =    2.000    partial core radius                                     
   POMASS =   63.546; ZVAL   =   11.000    mass and valenz                      
   RCORE  =    2.300    outmost cutoff radius                                   
   RWIGS  =    2.200; RWIGS  =    1.164    wigner-seitz radius (au A)           
   ENMAX  =  295.446; ENMIN  =  221.585 eV                                      
   ICORE  =        3    local potential                                         
   LCOR   =        T    correct aug charges                                     
   LPAW   =        T    paw PP                                                  
   EAUG   =  586.980                                                            
   DEXC   =    0.000                                                            
   RMAX   =    2.344    core radius for proj-oper                               
   RAUG   =    1.300    factor for augmentation sphere                          
   RDEP   =    2.302    radius for radial grids                                 
   RDEPT  =    1.771    core radius for aug-charge                              
                                                                                
   Atomic configuration                                                         
    9 entries                                                                   
     n  l   j            E        occ.                                          
     1  0  0.50     -8850.2468   2.0000                                         
     2  0  0.50     -1062.3498   2.0000                                         
     2  1  1.50      -916.8226   6.0000                                         
     3  0  0.50      -114.6929   2.0000                                         
     3  1  1.50       -72.1325   6.0000                                         
     3  2  2.50        -5.0394  10.0000                                         
     4  0  0.50        -4.6097   1.0000                                         
     4  1  0.50        -4.0817   0.0000                                         
     4  3  2.50        -1.3606   0.0000                                         
   Description                                                                  
     l       E           TYP  RCUT    TYP  RCUT                                 
     2     -5.0393973     23  2.200                                             
     2     10.8846608     23  2.200                                             
     0     -4.6097109     23  2.200                                             
     0      8.2520465     23  2.200                                             
     1     -2.7211652     23  2.200                                             
     1     21.7055443     23  2.200                                             
     3      2.7211652     23  2.300                                             
  local pseudopotential read in
  partial core-charges read in
  partial kinetic energy density read in
  atomic valenz-charges read in
  non local Contribution for L=           2  read in
    real space projection operators read in
  non local Contribution for L=           2  read in
    real space projection operators read in
  non local Contribution for L=           0  read in
    real space projection operators read in
  non local Contribution for L=           0  read in
    real space projection operators read in
  non local Contribution for L=           1  read in
    real space projection operators read in
  non local Contribution for L=           1  read in
    real space projection operators read in
    PAW grid and wavefunctions read in
 
   number of l-projection  operators is LMAX  =           6
   number of lm-projection operators is LMMAX =          18
 
 POTCAR:    PAW_PBE Ni 02Aug2007                  
   VRHFIN =Ni:                                                                  
   LEXCH  = PE                                                                  
   EATOM  =  1077.6739 eV,   79.2068 Ry                                         
                                                                                
   TITEL  = PAW_PBE Ni 02Aug2007                                                
   LULTRA =        F    use ultrasoft PP ?                                      
   IUNSCR =        1    unscreen: 0-lin 1-nonlin 2-no                           
   RPACOR =    2.000    partial core radius                                     
   POMASS =   58.690; ZVAL   =   10.000    mass and valenz                      
   RCORE  =    2.300    outmost cutoff radius                                   
   RWIGS  =    2.430; RWIGS  =    1.286    wigner-seitz radius (au A)           
   ENMAX  =  269.532; ENMIN  =  202.149 eV                                      
   RCLOC  =    1.201    cutoff for local pot                                    
   LCOR   =        T    correct aug charges                                     
   LPAW   =        T    paw PP                                                  
   EAUG   =  544.565                                                            
   DEXC   =    0.000                                                            
   RMAX   =    2.357    core radius for proj-oper                               
   RAUG   =    1.300    factor for augmentation sphere                          
   RDEP   =    2.390    radius for radial grids                                 
   RDEPT  =    1.838    core radius for aug-charge                              
                                                                                
   Atomic configuration                                                         
    9 entries                                                                   
     n  l   j            E        occ.                                          
     1  0  0.50     -8206.4253   2.0000                                         
     2  0  0.50      -976.1748   2.0000                                         
     2  1  1.50      -839.0571   6.0000                                         
     3  0  0.50      -105.9991   2.0000                                         
     3  1  1.50       -66.4603   6.0000                                         
     3  2  2.50        -4.6458   9.0000                                         
     4  0  0.50        -4.4926   1.0000                                         
     4  1  1.50        -4.0817   0.0000                                         
     4  3  2.50        -1.3606   0.0000                                         
   Description                                                                  
     l       E           TYP  RCUT    TYP  RCUT                                 
     2     -4.6457903     23  2.300                                             
     2     -6.0063729     23  2.300                                             
     0     -4.4925590     23  2.300                                             
     0      5.0102601     23  2.300                                             
     1     -2.7211652     23  2.300                                             
     1     16.5183231     23  2.300                                             
  local pseudopotential read in
  partial core-charges read in
  partial kinetic energy density read in
  atomic valenz-charges read in
  non local Contribution for L=           2  read in
    real space projection operators read in
  non local Contribution for L=           2  read in
    real space projection operators read in
  non local Contribution for L=           0  read in
    real space projection operators read in
  non local Contribution for L=           0  read in
    real space projection operators read in
  non local Contribution for L=           1  read in
    real space projection operators read in
  non local Contribution for L=           1  read in
    real space projection operators read in
    PAW grid and wavefunctions read in
 
   number of l-projection  operators is LMAX  =           6
   number of lm-projection operators is LMMAX =          18
 
 POTCAR:    PAW_PBE Fe 06Sep2000                  
   VRHFIN =Fe:  d7 s1                                                           
   LEXCH  = PE                                                                  
   EATOM  =   594.3153 eV,   43.6809 Ry                                         
                                                                                
   TITEL  = PAW_PBE Fe 06Sep2000                                                
   LULTRA =        F    use ultrasoft PP ?                                      
   IUNSCR =        1    unscreen: 0-lin 1-nonlin 2-no                           
   RPACOR =    2.000    partial core radius                                     
   POMASS =   55.847; ZVAL   =    8.000    mass and valenz                      
   RCORE  =    2.300    outmost cutoff radius                                   
   RWIGS  =    2.460; RWIGS  =    1.302    wigner-seitz radius (au A)           
   ENMAX  =  267.882; ENMIN  =  200.911 eV                                      
   RCLOC  =    1.701    cutoff for local pot                                    
   LCOR   =        T    correct aug charges                                     
   LPAW   =        T    paw PP                                                  
   EAUG   =  511.368                                                            
   DEXC   =    0.000                                                            
   RMAX   =    2.356    core radius for proj-oper                               
   RAUG   =    1.300    factor for augmentation sphere                          
   RDEP   =    2.442    radius for radial grids                                 
   RDEPT  =    1.890    core radius for aug-charge                              
                                                                                
   Atomic configuration                                                         
    9 entries                                                                   
     n  l   j            E        occ.                                          
     1  0  0.50     -6993.8440   2.0000                                         
     2  0  0.50      -814.6047   2.0000                                         
     2  1  1.50      -693.3689   6.0000                                         
     3  0  0.50       -89.4732   2.0000                                         
     3  1  1.50       -55.6373   6.0000                                         
     3  2  2.50        -3.8151   7.0000                                         
     4  0  0.50        -4.2551   1.0000                                         
     4  1  1.50        -3.4015   0.0000                                         
     4  3  2.50        -1.3606   0.0000                                         
   Description                                                                  
     l       E           TYP  RCUT    TYP  RCUT                                 
     2     -3.8151135     23  2.300                                             
     2     -5.1756961     23  2.300                                             
     0     -4.2550963     23  2.300                                             
     0      7.2035603     23  2.300                                             
     1     -2.7211652     23  2.300                                             
     1     18.4316424     23  2.300                                             
  local pseudopotential read in
  partial core-charges read in
  partial kinetic energy density read in
  atomic valenz-charges read in
  non local Contribution for L=           2  read in
    real space projection operators read in
  non local Contribution for L=           2  read in
    real space projection operators read in
  non local Contribution for L=           0  read in
    real space projection operators read in
  non local Contribution for L=           0  read in
    real space projection operators read in
  non local Contribution for L=           1  read in
    real space projection operators read in
  non local Contribution for L=           1  read in
    real space projection operators read in
    PAW grid and wavefunctions read in
 
   number of l-projection  operators is LMAX  =           6
   number of lm-projection operators is LMMAX =          18
 
 POTCAR:    PAW_PBE Co 02Aug2007                  
   VRHFIN =Co: d8 s1                                                            
   LEXCH  = PE                                                                  
   EATOM  =   813.3670 eV,   59.7808 Ry                                         
                                                                                
   TITEL  = PAW_PBE Co 02Aug2007                                                
   LULTRA =        F    use ultrasoft PP ?                                      
   IUNSCR =        1    unscreen: 0-lin 1-nonlin 2-no                           
   RPACOR =    2.000    partial core radius                                     
   POMASS =   58.933; ZVAL   =    9.000    mass and valenz                      
   RCORE  =    2.300    outmost cutoff radius                                   
   RWIGS  =    2.460; RWIGS  =    1.302    wigner-seitz radius (au A)           
   ENMAX  =  267.968; ENMIN  =  200.976 eV                                      
   RCLOC  =    1.203    cutoff for local pot                                    
   LCOR   =        T    correct aug charges                                     
   LPAW   =        T    paw PP                                                  
   EAUG   =  477.818                                                            
   DEXC   =    0.000                                                            
   RMAX   =    2.360    core radius for proj-oper                               
   RAUG   =    1.300    factor for augmentation sphere                          
   RDEP   =    2.393    radius for radial grids                                 
   RDEPT  =    1.864    core radius for aug-charge                              
                                                                                
   Atomic configuration                                                         
    9 entries                                                                   
     n  l   j            E        occ.                                          
     1  0  0.50     -7587.6674   2.0000                                         
     2  0  0.50      -893.6084   2.0000                                         
     2  1  1.50      -764.5805   6.0000                                         
     3  0  0.50       -97.5973   2.0000                                         
     3  1  1.50       -60.9648   6.0000                                         
     3  2  2.50        -4.2382   8.0000                                         
     4  0  0.50        -4.3746   1.0000                                         
     4  1  1.50        -4.0817   0.0000                                         
     4  3  2.50        -1.3606   0.0000                                         
   Description                                                                  
     l       E           TYP  RCUT    TYP  RCUT                                 
     2     -4.2382362     23  2.300                                             
     2     -5.5988188     23  2.300                                             
     0     -4.3745797     23  2.300                                             
     0      5.7660125     23  2.300                                             
     1     -2.7211652     23  2.300                                             
     1     16.9860234     23  2.300                                             
  local pseudopotential read in
  partial core-charges read in
  partial kinetic energy density read in
  atomic valenz-charges read in
  non local Contribution for L=           2  read in
    real space projection operators read in
  non local Contribution for L=           2  read in
    real space projection operators read in
  non local Contribution for L=           0  read in
    real space projection operators read in
  non local Contribution for L=           0  read in
    real space projection operators read in
  non local Contribution for L=           1  read in
    real space projection operators read in
  non local Contribution for L=           1  read in
    real space projection operators read in
    PAW grid and wavefunctions read in
 
   number of l-projection  operators is LMAX  =           6
   number of lm-projection operators is LMMAX =          18
 
 POTCAR:    PAW_PBE H 15Jun2001                   
   VRHFIN =H: ultrasoft test                                                    
   LEXCH  = PE                                                                  
   EATOM  =    12.4884 eV,    0.9179 Ry                                         
                                                                                
   TITEL  = PAW_PBE H 15Jun2001                                                 
   LULTRA =        F    use ultrasoft PP ?                                      
   IUNSCR =        0    unscreen: 0-lin 1-nonlin 2-no                           
   RPACOR =    0.000    partial core radius                                     
   POMASS =    1.000; ZVAL   =    1.000    mass and valenz                      
   RCORE  =    1.100    outmost cutoff radius                                   
   RWIGS  =    0.700; RWIGS  =    0.370    wigner-seitz radius (au A)           
   ENMAX  =  250.000; ENMIN  =  200.000 eV                                      
   RCLOC  =    0.701    cutoff for local pot                                    
   LCOR   =        T    correct aug charges                                     
   LPAW   =        T    paw PP                                                  
   EAUG   =  400.000                                                            
   RMAX   =    1.123    core radius for proj-oper                               
   RAUG   =    1.200    factor for augmentation sphere                          
   RDEP   =    1.112    radius for radial grids                                 
   RDEPT  =    0.926    core radius for aug-charge                              
                                                                                
   Atomic configuration                                                         
    2 entries                                                                   
     n  l   j            E        occ.                                          
     1  0  0.50        -6.4927   1.0000                                         
     2  1  0.50        -3.4015   0.0000                                         
   Description                                                                  
     l       E           TYP  RCUT    TYP  RCUT                                 
     0     -6.4927494     23  1.100                                             
     0      6.8029130     23  1.100                                             
     1     -4.0817478     23  1.100                                             
  local pseudopotential read in
  atomic valenz-charges read in
  non local Contribution for L=           0  read in
    real space projection operators read in
  non local Contribution for L=           0  read in
    real space projection operators read in
  non local Contribution for L=           1  read in
    real space projection operators read in
    PAW grid and wavefunctions read in
 
   number of l-projection  operators is LMAX  =           3
   number of lm-projection operators is LMMAX =           5
 
 Optimization of the real space projectors (new method)

 maximal supplied QI-value         = 14.36
 optimisation between [QCUT,QGAM] = [ 11.92, 23.98] = [ 39.79,161.09] Ry 
 Optimized for a Real-space Cutoff    1.49 Angstroem

   l    n(q)    QCUT    max X(q) W(low)/X(q) W(high)/X(q)  e(spline) 
   2     10    11.920    66.195    0.79E-04    0.18E-03    0.24E-06
   2     10    11.920    64.643    0.81E-04    0.19E-03    0.24E-06
   0     11    11.920    95.520    0.28E-04    0.54E-04    0.18E-06
   0     11    11.920    63.403    0.27E-04    0.52E-04    0.17E-06
   1     10    11.920    19.961    0.18E-04    0.11E-03    0.23E-06
   1     10    11.920    13.289    0.25E-04    0.87E-04    0.19E-06
 Optimization of the real space projectors (new method)

 maximal supplied QI-value         = 16.25
 optimisation between [QCUT,QGAM] = [ 11.86, 23.89] = [ 39.41,159.82] Ry 
 Optimized for a Real-space Cutoff    1.49 Angstroem

   l    n(q)    QCUT    max X(q) W(low)/X(q) W(high)/X(q)  e(spline) 
   2     10    11.864     4.610    0.10E-03    0.20E-03    0.29E-06
   2     10    11.864     8.522    0.17E-03    0.33E-03    0.50E-06
   0     11    11.864    51.609    0.52E-04    0.55E-04    0.33E-06
   0     11    11.864    27.747    0.46E-04    0.52E-04    0.31E-06
   1     10    11.864    20.408    0.54E-04    0.25E-04    0.21E-06
   1     10    11.864    13.425    0.48E-04    0.22E-04    0.18E-06
 Optimization of the real space projectors (new method)

 maximal supplied QI-value         = 16.25
 optimisation between [QCUT,QGAM] = [ 11.86, 23.89] = [ 39.41,159.82] Ry 
 Optimized for a Real-space Cutoff    1.33 Angstroem

   l    n(q)    QCUT    max X(q) W(low)/X(q) W(high)/X(q)  e(spline) 
   2      9    11.864    60.317    0.21E-03    0.51E-03    0.25E-06
   2      9    11.864    55.921    0.21E-03    0.51E-03    0.26E-06
   0      9    11.864    51.690    0.22E-03    0.30E-04    0.17E-06
   0      9    11.864    30.015    0.20E-03    0.28E-04    0.15E-06
   1      9    11.864    18.849    0.76E-04    0.33E-03    0.17E-06
   1      9    11.864    14.624    0.60E-04    0.28E-03    0.15E-06
 Optimization of the real space projectors (new method)

 maximal supplied QI-value         = 16.25
 optimisation between [QCUT,QGAM] = [ 11.86, 23.89] = [ 39.41,159.82] Ry 
 Optimized for a Real-space Cutoff    1.49 Angstroem

   l    n(q)    QCUT    max X(q) W(low)/X(q) W(high)/X(q)  e(spline) 
   2     10    11.864    80.901    0.13E-03    0.23E-03    0.37E-06
   2     10    11.864    75.754    0.13E-03    0.23E-03    0.38E-06
   0     11    11.864    58.752    0.44E-04    0.11E-04    0.20E-06
   0     11    11.864    30.679    0.36E-04    0.10E-04    0.18E-06
   1     10    11.864    17.977    0.31E-04    0.45E-04    0.10E-06
   1     10    11.864    13.559    0.25E-04    0.37E-04    0.89E-07
 Optimization of the real space projectors (new method)

 maximal supplied QI-value         = 16.25
 optimisation between [QCUT,QGAM] = [ 11.86, 23.89] = [ 39.41,159.82] Ry 
 Optimized for a Real-space Cutoff    1.33 Angstroem

   l    n(q)    QCUT    max X(q) W(low)/X(q) W(high)/X(q)  e(spline) 
   2      9    11.864    65.824    0.22E-03    0.53E-03    0.26E-06
   2      9    11.864    61.429    0.22E-03    0.53E-03    0.26E-06
   0      9    11.864    56.174    0.21E-03    0.32E-04    0.15E-06
   0      9    11.864    31.263    0.19E-03    0.30E-04    0.14E-06
   1      9    11.864    19.828    0.63E-04    0.30E-03    0.16E-06
   1      9    11.864    15.139    0.49E-04    0.25E-03    0.13E-06
 Optimization of the real space projectors (new method)

 maximal supplied QI-value         = 34.20
 optimisation between [QCUT,QGAM] = [ 11.97, 23.94] = [ 40.13,160.53] Ry 
 Optimized for a Real-space Cutoff    1.18 Angstroem

   l    n(q)    QCUT    max X(q) W(low)/X(q) W(high)/X(q)  e(spline) 
   0      8    11.971    19.460    0.15E-03    0.31E-03    0.25E-06
   0      8    11.971    12.209    0.13E-03    0.29E-03    0.25E-06
   1      8    11.971     4.655    0.22E-03    0.24E-03    0.21E-06
  PAW_PBE Pt 04Feb2005                  :
 energy of atom  1       EATOM= -729.1176
 kinetic energy error for atom=    0.0021 (will be added to EATOM!!)
  PAW_PBE Cu 22Jun2005                  :
 energy of atom  2       EATOM=-1390.9808
 kinetic energy error for atom=    0.0036 (will be added to EATOM!!)
  PAW_PBE Ni 02Aug2007                  :
 energy of atom  3       EATOM=-1077.6739
 kinetic energy error for atom=    0.0027 (will be added to EATOM!!)
  PAW_PBE Fe 06Sep2000                  :
 energy of atom  4       EATOM= -594.3153
 kinetic energy error for atom=    0.0024 (will be added to EATOM!!)
  PAW_PBE Co 02Aug2007                  :
 energy of atom  5       EATOM= -813.3670
 kinetic energy error for atom=    0.0026 (will be added to EATOM!!)
  PAW_PBE H 15Jun2001                   :
 energy of atom  6       EATOM=  -12.4884
 kinetic energy error for atom=    0.0008 (will be added to EATOM!!)
 
 
 POSCAR: 10.56                                   
  positions in direct lattice
  velocities in cartesian coordinates
 exchange correlation table for  LEXCH =        8
   RHO(1)=    0.500       N(1)  =     2000
   RHO(2)=  100.500       N(2)  =     4000
 


--------------------------------------------------------------------------------------------------------


 ion  position               nearest neighbor table
   1  0.790  0.877  0.316-  49 2.55  59 2.56  19 2.63  33 2.66  61 2.67  60 2.67  29 2.68  28 2.69
                             2 2.71   4 2.81  11 2.84  12 2.86
   2  0.044  0.882  0.316-  79 2.55  77 2.56  60 2.62  30 2.64  22 2.65  28 2.66  52 2.68   1 2.71
                            33 2.74   6 2.78   4 2.86  16 2.90
   3  0.287  0.379  0.320-  64 2.57  39 2.60  33 2.60  68 2.64  31 2.65  19 2.68  43 2.69  30 2.71
                            18 2.78   5 2.79  25 2.82  13 2.82
   4  0.869  0.962  0.424-  17 2.61  11 2.62  12 2.66  60 2.68   9 2.68  16 2.72   6 2.76   1 2.81
                             2 2.86
   5  0.124  0.459  0.427-  10 2.60  16 2.61   7 2.62  12 2.63  13 2.63  25 2.67  39 2.78  33 2.79
                             3 2.79
   6  0.129  0.964  0.421-   8 2.59  10 2.60  14 2.66   9 2.68  16 2.75   4 2.76   2 2.78  52 2.80
                            22 2.85
   7  0.875  0.460  0.423-   9 2.61  12 2.61   5 2.62  10 2.63  15 2.63  27 2.67  39 2.70  29 2.74
                            75 2.77
   8  0.377  0.960  0.419-   6 2.59  11 2.60  27 2.61  14 2.64  43 2.64  13 2.64  10 2.66  61 2.67
                            52 2.70
   9  0.873  0.214  0.422-   7 2.61  15 2.61  17 2.64  60 2.65  10 2.65   6 2.68  75 2.68   4 2.68
                            22 2.83
  10  0.125  0.212  0.423-   6 2.60   5 2.60  13 2.62   7 2.63   9 2.65   8 2.66  39 2.73  43 2.74
                            22 2.84
  11  0.622  0.961  0.424-   8 2.60   4 2.62  27 2.62  13 2.63  17 2.66  12 2.66  61 2.81  19 2.83
                             1 2.84
  12  0.874  0.708  0.425-   7 2.61   5 2.63  27 2.63  16 2.66   4 2.66  11 2.66  33 2.75  29 2.81
                             1 2.86
  13  0.374  0.210  0.428-  10 2.62  11 2.63   5 2.63   8 2.64  17 2.65  25 2.65   3 2.82  43 2.84
                            19 2.90
  14  0.378  0.710  0.426-  27 2.60  15 2.62   8 2.64  25 2.64   6 2.66  16 2.67  44 2.74  30 2.79
                            52 2.86
  15  0.625  0.461  0.424-  81 1.73   9 2.61  14 2.62   7 2.63  27 2.64  25 2.64  17 2.65  44 2.74
                            18 2.77  75 2.80
  16  0.127  0.705  0.425-  25 2.60   5 2.61  12 2.66  14 2.67   4 2.72   6 2.75  33 2.75  30 2.79
                             2 2.90
  17  0.624  0.211  0.425-  81 1.73   4 2.61  25 2.63   9 2.64  15 2.65  13 2.65  11 2.66  60 2.73
                            18 2.77  19 2.90
  18  0.554  0.371  0.318-  67 2.54  75 2.55  60 2.56  68 2.60  26 2.67  44 2.68  19 2.72  30 2.75
                            15 2.77  17 2.77   3 2.78  25 2.90
  19  0.537  0.122  0.315-  59 2.54  68 2.54  80 2.54  43 2.60  61 2.61   1 2.63   3 2.68  18 2.72
                            60 2.75  11 2.83  13 2.90  17 2.90
  20  0.547  0.122  0.038-  57 2.54  37 2.59  48 2.60  62 2.60  47 2.60  34 2.65  45 2.68  63 2.71
                            56 2.75
  21  0.124  0.462  0.127-  36 2.55  47 2.57  40 2.58  58 2.61  42 2.61  64 2.63  31 2.66  69 2.66
                            50 2.67  74 2.69  70 2.69  57 2.69
  22  0.040  0.135  0.313-  65 2.46  75 2.54  55 2.54  77 2.58  39 2.59  43 2.59  60 2.65   2 2.65
                            52 2.74   9 2.83  10 2.84   6 2.85
  23  0.032  0.135  0.034-  70 2.57  62 2.59  40 2.59  41 2.60  76 2.63  45 2.70  24 2.70  35 2.71
                            53 2.86
  24  0.127  0.955  0.132-  79 2.52  55 2.55  53 2.61  35 2.62  77 2.62  58 2.62  73 2.64  70 2.65
                            38 2.67  66 2.68  23 2.70  41 2.74
  25  0.376  0.461  0.427-  81 1.76  16 2.60  17 2.63  15 2.64  14 2.64  13 2.65   5 2.67   3 2.82
                            30 2.84  18 2.90
  26  0.458  0.546  0.220-  73 2.50  74 2.51  51 2.53  79 2.60  64 2.61  30 2.65  68 2.66  18 2.67
                            32 2.69  44 2.71  78 2.71  67 2.74
  27  0.623  0.712  0.424-  14 2.60   8 2.61  11 2.62  12 2.63  15 2.64   7 2.67  44 2.71  61 2.76
                            29 2.77
  28  0.964  0.793  0.218-  66 2.54  50 2.56  58 2.58  77 2.63  42 2.64  64 2.65   2 2.66  79 2.68
                             1 2.69  59 2.70  33 2.74  49 2.75
  29  0.789  0.624  0.319-  44 2.59  42 2.59  32 2.61  39 2.61  75 2.64  61 2.65  49 2.65  33 2.66
                             1 2.68   7 2.74  27 2.77  12 2.81
  30  0.293  0.632  0.319-  79 2.56  44 2.60  64 2.61  52 2.62   2 2.64  26 2.65  33 2.71   3 2.71
                            18 2.75  14 2.79  16 2.79  25 2.84
  31  0.211  0.284  0.223-  57 2.55  70 2.55  65 2.59  55 2.61  43 2.61  80 2.64   3 2.65  21 2.66
                            68 2.67  39 2.67  42 2.71  64 2.72
  32  0.717  0.537  0.221-  69 2.51  54 2.56  51 2.57  65 2.60  29 2.61  42 2.61  75 2.64  67 2.64
                            49 2.68  26 2.69  44 2.75  78 2.78
  33  0.040  0.625  0.321-  42 2.58  39 2.59   3 2.60  64 2.65   1 2.66  29 2.66  30 2.71   2 2.74
                            28 2.74  12 2.75  16 2.75   5 2.79
  34  0.797  0.870  0.037-  50 2.48  66 2.50  36 2.54  48 2.61  35 2.62  63 2.64  71 2.65  20 2.65
                            62 2.72
  35  0.044  0.872  0.035-  58 2.56  36 2.57  66 2.61  24 2.62  34 2.62  72 2.70  23 2.71  62 2.72
                            53 2.74
  36  0.039  0.631  0.035-  58 2.54  34 2.54  21 2.55  35 2.57  50 2.59  40 2.68  71 2.72  72 2.76
                            47 2.78
  37  0.626  0.214  0.133-  68 2.52  59 2.52  67 2.52  41 2.56  51 2.57  56 2.58  66 2.59  20 2.59
                            74 2.60  62 2.60  57 2.64  48 2.76
  38  0.376  0.961  0.131-  80 2.47  53 2.51  55 2.53  78 2.53  63 2.53  45 2.55  54 2.58  48 2.61
                            57 2.62  24 2.67  70 2.69  73 2.69
  39  0.040  0.380  0.321-  22 2.59  33 2.59   3 2.60  42 2.60  29 2.61  75 2.63  65 2.67  31 2.67
                            43 2.70   7 2.70  10 2.73   5 2.78
  40  0.040  0.377  0.033-  69 2.55  21 2.58  23 2.59  76 2.61  70 2.61  45 2.66  71 2.67  36 2.68
                            47 2.81
  41  0.868  0.215  0.131-  67 2.47  65 2.53  76 2.53  77 2.53  37 2.56  51 2.56  62 2.57  69 2.59
                            23 2.60  70 2.61  66 2.63  24 2.74
  42  0.960  0.545  0.225-  33 2.58  29 2.59  39 2.60  50 2.61  32 2.61  21 2.61  28 2.64  64 2.65
                            69 2.68  65 2.69  49 2.70  31 2.71
  43  0.292  0.121  0.320-  52 2.54  55 2.58  22 2.59  19 2.60  61 2.60  31 2.61   8 2.64  80 2.66
                             3 2.69  39 2.70  10 2.74  13 2.84
  44  0.540  0.632  0.321-  61 2.56  52 2.56  29 2.59  30 2.60  78 2.63  18 2.68  26 2.71  27 2.71
                            75 2.73  14 2.74  15 2.74  32 2.75
  45  0.292  0.126  0.037-  38 2.55  57 2.57  70 2.59  40 2.66  53 2.66  20 2.68  23 2.70  47 2.70
                            63 2.74
  46  0.545  0.626  0.042-  73 2.43  51 2.44  54 2.47  71 2.53  53 2.54  76 2.54  63 2.55  72 2.56
                            56 2.56
  47  0.307  0.374  0.039-  74 2.45  57 2.52  56 2.54  21 2.57  20 2.60  72 2.62  45 2.70  36 2.78
                            40 2.81
  48  0.628  0.952  0.133-  49 2.43  80 2.48  59 2.50  63 2.52  50 2.54  54 2.54  20 2.60  34 2.61
                            66 2.61  38 2.61  57 2.66  37 2.76
  49  0.701  0.798  0.223-  48 2.43  54 2.51  80 2.51   1 2.55  78 2.56  50 2.57  61 2.58  59 2.60
                            29 2.65  32 2.68  42 2.70  28 2.75
  50  0.866  0.710  0.128-  71 2.42  34 2.48  48 2.54  28 2.56  49 2.57  54 2.58  36 2.59  42 2.61
                            69 2.64  21 2.67  66 2.71  58 2.84
  51  0.625  0.458  0.128-  56 2.42  76 2.43  46 2.44  26 2.53  41 2.56  37 2.57  32 2.57  74 2.58
                            73 2.62  69 2.63  67 2.64  54 2.70
  52  0.301  0.876  0.316-  78 2.46  55 2.49  61 2.50  79 2.52  43 2.54  44 2.56  30 2.62   2 2.68
                             8 2.70  22 2.74   6 2.80  14 2.86
  53  0.306  0.867  0.039-  73 2.44  38 2.51  46 2.54  63 2.56  72 2.59  24 2.61  45 2.66  35 2.74
                            23 2.86
  54  0.619  0.716  0.132-  63 2.41  71 2.47  46 2.47  49 2.51  78 2.53  48 2.54  32 2.56  38 2.58
                            50 2.58  73 2.61  51 2.70  69 2.72
  55  0.216  0.035  0.224-  52 2.49  78 2.50  79 2.52  38 2.53  22 2.54  24 2.55  43 2.58  80 2.59
                            31 2.61  70 2.62  65 2.68  77 2.79
  56  0.541  0.385  0.039-  51 2.42  74 2.47  72 2.50  47 2.54  46 2.56  37 2.58  76 2.61  62 2.65
                            20 2.75
  57  0.379  0.208  0.130-  47 2.52  20 2.54  31 2.55  68 2.55  80 2.56  45 2.57  38 2.62  37 2.64
                            74 2.66  48 2.66  21 2.69  70 2.75
  58  0.140  0.700  0.126-  72 2.40  74 2.53  36 2.54  73 2.54  35 2.56  28 2.58  21 2.61  64 2.62
                            24 2.62  79 2.68  50 2.84  66 2.84
  59  0.703  0.043  0.222-  48 2.50  37 2.52  19 2.54   1 2.56  66 2.57  77 2.58  49 2.60  80 2.61
                            68 2.61  67 2.65  28 2.70  60 2.73
  60  0.794  0.127  0.323-  18 2.56  75 2.58  77 2.58  67 2.61   2 2.62  22 2.65   9 2.65   1 2.67
                             4 2.68  17 2.73  59 2.73  19 2.75
  61  0.538  0.874  0.318-  78 2.48  52 2.50  44 2.56  49 2.58  80 2.58  43 2.60  19 2.61  29 2.65
                             1 2.67   8 2.67  27 2.76  11 2.81
  62  0.789  0.132  0.036-  66 2.52  41 2.57  23 2.59  20 2.60  37 2.60  56 2.65  76 2.70  35 2.72
                            34 2.72
  63  0.550  0.865  0.041-  54 2.41  71 2.50  48 2.52  38 2.53  46 2.55  53 2.56  34 2.64  20 2.71
                            45 2.74
  64  0.213  0.540  0.225-   3 2.57  74 2.59  68 2.60  30 2.61  26 2.61  58 2.62  21 2.63  33 2.65
                            42 2.65  28 2.65  79 2.71  31 2.72
  65  0.963  0.290  0.222-  70 2.46  22 2.46  41 2.53  69 2.59  31 2.59  32 2.60  67 2.61  75 2.62
                            77 2.63  39 2.67  55 2.68  42 2.69
  66  0.867  0.966  0.127-  34 2.50  62 2.52  28 2.54  59 2.57  77 2.58  37 2.59  35 2.61  48 2.61
                            41 2.63  24 2.68  50 2.71  58 2.84
  67  0.718  0.287  0.225-  77 2.44  41 2.47  37 2.52  18 2.54  75 2.54  65 2.61  60 2.61  51 2.64
                            32 2.64  59 2.65  68 2.70  26 2.74
  68  0.459  0.293  0.224-  37 2.52  19 2.54  57 2.55  74 2.58  18 2.60  64 2.60  59 2.61   3 2.64
                            26 2.66  31 2.67  67 2.70  80 2.73
  69  0.874  0.457  0.127-  76 2.36  71 2.40  32 2.51  40 2.55  65 2.59  70 2.59  41 2.59  51 2.63
                            50 2.64  21 2.66  42 2.68  54 2.72
  70  0.117  0.210  0.130-  65 2.46  31 2.55  23 2.57  69 2.59  45 2.59  41 2.61  40 2.61  55 2.62
                            24 2.65  38 2.69  21 2.69  57 2.75
  71  0.785  0.626  0.043-  69 2.40  50 2.42  54 2.47  76 2.50  63 2.50  46 2.53  34 2.65  40 2.67
                            36 2.72
  72  0.304  0.623  0.041-  73 2.38  58 2.40  74 2.44  56 2.50  46 2.56  53 2.59  47 2.62  35 2.70
                            36 2.76
  73  0.377  0.706  0.128-  72 2.38  46 2.43  53 2.44  26 2.50  58 2.54  74 2.59  79 2.60  54 2.61
                            51 2.62  24 2.64  78 2.68  38 2.69
  74  0.379  0.460  0.129-  72 2.44  47 2.45  56 2.47  26 2.51  58 2.53  51 2.58  68 2.58  73 2.59
                            64 2.59  37 2.60  57 2.66  21 2.69
  75  0.796  0.370  0.318-  22 2.54  67 2.54  18 2.55  60 2.58  65 2.62  39 2.63  32 2.64  29 2.64
                             9 2.68  44 2.73   7 2.77  15 2.80
  76  0.788  0.388  0.041-  69 2.36  51 2.43  71 2.50  41 2.53  46 2.54  40 2.61  56 2.61  23 2.63
                            62 2.70
  77  0.944  0.051  0.223-  67 2.44  41 2.53   2 2.56  22 2.58  66 2.58  60 2.58  59 2.58  24 2.62
                            65 2.63  28 2.63  55 2.79  79 2.79
  78  0.457  0.803  0.225-  52 2.46  80 2.47  61 2.48  55 2.50  38 2.53  54 2.53  49 2.56  79 2.58
                            44 2.63  73 2.68  26 2.71  32 2.78
  79  0.216  0.795  0.225-  52 2.52  24 2.52  55 2.52   2 2.55  30 2.56  78 2.58  73 2.60  26 2.60
                            58 2.68  28 2.68  64 2.71  77 2.79
  80  0.461  0.034  0.222-  78 2.47  38 2.47  48 2.48  49 2.51  19 2.54  57 2.56  61 2.58  55 2.59
                            59 2.61  31 2.64  43 2.66  68 2.73
  81  0.547  0.376  0.463-  15 1.73  17 1.73  25 1.76
 
  LATTYP: Found a hexagonal cell.
 ALAT       =    10.5600004196
 C/A-ratio  =     2.0833332505
  
  Lattice vectors:
  
 A1 = (   5.2800002098,  -9.1452286274,   0.0000000000)
 A2 = ( -10.5600004196,   0.0000000000,   0.0000000000)
 A3 = (   0.0000000000,   0.0000000000, -22.0000000000)


Analysis of symmetry for initial positions (statically):
=====================================================================
 Subroutine PRICEL returns:
 Original cell was already a primitive cell.
 

 Routine SETGRP: Setting up the symmetry group for a 
 hexagonal supercell.


 Subroutine GETGRP returns: Found  1 space group operations
 (whereof  1 operations were pure point group operations)
 out of a pool of 24 trial point group operations.


The static configuration has the point symmetry C_1 .


Analysis of symmetry for dynamics (positions and initial velocities):
=====================================================================
 Subroutine PRICEL returns:
 Original cell was already a primitive cell.
 

 Routine SETGRP: Setting up the symmetry group for a 
 hexagonal supercell.


 Subroutine GETGRP returns: Found  1 space group operations
 (whereof  1 operations were pure point group operations)
 out of a pool of 24 trial point group operations.


The dynamic configuration has the point symmetry C_1 .


Analysis of constrained symmetry for selective dynamics:
=====================================================================
 Subroutine PRICEL returns:
 Original cell was already a primitive cell.
 

 Routine SETGRP: Setting up the symmetry group for a 
 hexagonal supercell.


 Subroutine GETGRP returns: Found  1 space group operations
 (whereof  1 operations were pure point group operations)
 out of a pool of 24 trial point group operations.


The constrained configuration has the point symmetry C_1 .


Analysis of structural, dynamic, and magnetic symmetry:
=====================================================================
 Subroutine PRICEL returns:
 Original cell was already a primitive cell.
 

 Routine SETGRP: Setting up the symmetry group for a 
 hexagonal supercell.


 Subroutine GETGRP returns: Found  1 space group operations
 (whereof  1 operations were pure point group operations)
 out of a pool of 24 trial point group operations.


The magnetic configuration has the point symmetry C_1 .


 Subroutine INISYM returns: Found  1 space group operations
 (whereof  1 operations are pure point group operations),
 and found     1 'primitive' translations

 
 
 KPOINTS: mesh auto                               

Automatic generation of k-mesh.
Space group operators:
 irot       det(A)        alpha          n_x          n_y          n_z        tau_x        tau_y        tau_z
    1     1.000000     0.000001     1.000000     0.000000     0.000000     0.000000     0.000000     0.000000
 
 Subroutine IBZKPT returns following result:
 ===========================================
 
 Found      4 irreducible k-points:
 
 Following reciprocal coordinates:
            Coordinates               Weight
  0.000000  0.000000  0.000000      1.000000
  0.500000  0.000000  0.000000      1.000000
  0.000000  0.500000  0.000000      1.000000
  0.500000  0.500000  0.000000      1.000000
 
 Following cartesian coordinates:
            Coordinates               Weight
  0.000000  0.000000  0.000000      1.000000
  0.047348 -0.027337  0.000000      1.000000
  0.000000  0.054673  0.000000      1.000000
  0.047348  0.027337  0.000000      1.000000
 


--------------------------------------------------------------------------------------------------------




 Dimension of arrays:
   k-points           NKPTS =      4   k-points in BZ     NKDIM =      4   number of bands    NBANDS=    590
   number of dos      NEDOS =    301   number of ions     NIONS =     81
   non local maximal  LDIM  =      6   non local SUM 2l+1 LMDIM =     18
   total plane-waves  NPLWV = ******
   max r-space proj   IRMAX =   7802   max aug-charges    IRDMAX=  33988
   dimension x,y,z NGX =    84 NGY =   84 NGZ =  168
   dimension x,y,z NGXF=   168 NGYF=  168 NGZF=  336
   support grid    NGXF=   168 NGYF=  168 NGZF=  336
   ions per type =              32  13  10  13  12   1
   NGX,Y,Z   is equivalent  to a cutoff of  13.22, 13.22, 12.70 a.u.
   NGXF,Y,Z  is equivalent  to a cutoff of  26.45, 26.45, 25.39 a.u.

 SYSTEM =  Pt111                                   
 POSCAR =  10.56                                   

 Startparameter for this run:
   NWRITE =      2    write-flag & timer
   PREC   = accura    normal or accurate (medium, high low for compatibility)
   ISTART =      0    job   : 0-new  1-cont  2-samecut
   ICHARG =      2    charge: 1-file 2-atom 10-const
   ISPIN  =      2    spin polarized calculation?
   LNONCOLLINEAR =      F non collinear calculations
   LSORBIT =      F    spin-orbit coupling
   INIWAV =      1    electr: 0-lowe 1-rand  2-diag
   LASPH  =      F    aspherical Exc in radial PAW
   METAGGA=      F    non-selfconsistent MetaGGA calc.

 Electronic Relaxation 1
   ENCUT  =  550.0 eV  40.42 Ry    6.36 a.u.  20.19 20.19 42.07*2*pi/ulx,y,z
   ENINI  =  550.0     initial cutoff
   ENAUG  =  587.0 eV  augmentation charge cutoff
   NELM   =    200;   NELMIN=  2; NELMDL= -5     # of ELM steps 
   EDIFF  = 0.1E-04   stopping-criterion for ELM
   LREAL  =      T    real-space projection
   NLSPLINE    = F    spline interpolate recip. space projectors
   LCOMPAT=      F    compatible to vasp.4.4
   GGA_COMPAT  = T    GGA compatible to vasp.4.4-vasp.4.6
   LMAXPAW     = -100 max onsite density
   LMAXMIX     =    2 max onsite mixed and CHGCAR
   VOSKOWN=      0    Vosko Wilk Nusair interpolation
   ROPT   =   -0.00025  -0.00025  -0.00025  -0.00025
   ROPT   =   -0.00025  -0.00025
 Ionic relaxation
   EDIFFG = -.5E-01   stopping-criterion for IOM
   NSW    =    300    number of steps for IOM
   NBLOCK =      1;   KBLOCK =    300    inner block; outer block 
   IBRION =      2    ionic relax: 0-MD 1-quasi-New 2-CG
   NFREE  =      1    steps in history (QN), initial steepest desc. (CG)
   ISIF   =      2    stress and relaxation
   IWAVPR =     11    prediction:  0-non 1-charg 2-wave 3-comb
   ISYM   =      2    0-nonsym 1-usesym 2-fastsym
   LCORR  =      T    Harris-Foulkes like correction to forces

   POTIM  = 0.5000    time-step for ionic-motion
   TEIN   =    0.0    initial temperature
   TEBEG  =    0.0;   TEEND  =   0.0 temperature during run
   SMASS  =  -3.00    Nose mass-parameter (am)
   estimated Nose-frequenzy (Omega)   =  0.10E-29 period in steps =****** mass=  -0.255E-26a.u.
   SCALEE = 1.0000    scale energy and forces
   NPACO  =    256;   APACO  = 16.0  distance and # of slots for P.C.
   PSTRESS=    0.0 pullay stress

  Mass of Ions in am
   POMASS = 195.08 63.55 58.69 55.85 58.93  1.00
  Ionic Valenz
   ZVAL   =  10.00 11.00 10.00  8.00  9.00  1.00
  Atomic Wigner-Seitz radii
   RWIGS  =  -1.00 -1.00 -1.00 -1.00 -1.00 -1.00
  virtual crystal weights 
   VCA    =   1.00  1.00  1.00  1.00  1.00  1.00
   NELECT =     776.0000    total number of electrons
   NUPDOWN=      -1.0000    fix difference up-down

 DOS related values:
   EMIN   =  10.00;   EMAX   =-10.00  energy-range for DOS
   EFERMI =   0.00
   ISMEAR =     1;   SIGMA  =   0.10  broadening in eV -4-tet -1-fermi 0-gaus

 Electronic relaxation 2 (details)
   IALGO  =     68    algorithm
   LDIAG  =      T    sub-space diagonalisation (order eigenvalues)
   LSUBROT=      F    optimize rotation matrix (better conditioning)
   TURBO    =      0    0=normal 1=particle mesh
   IRESTART =      0    0=no restart 2=restart with 2 vectors
   NREBOOT  =      0    no. of reboots
   NMIN     =      0    reboot dimension
   EREF     =   0.00    reference energy to select bands
   IMIX   =      4    mixing-type and parameters
     AMIX     =   0.40;   BMIX     =  1.00
     AMIX_MAG =   1.60;   BMIX_MAG =  1.00
     AMIN     =   0.10
     WC   =   100.;   INIMIX=   1;  MIXPRE=   1;  MAXMIX= -45

 Intra band minimization:
   WEIMIN = 0.0010     energy-eigenvalue tresh-hold
   EBREAK =  0.42E-08  absolut break condition
   DEPER  =   0.30     relativ break condition  

   TIME   =   0.40     timestep for ELM

  volume/ion in A,a.u.               =      26.23       177.01
  Fermi-wavevector in a.u.,A,eV,Ry     =   1.170222  2.211399 18.632091  1.369420
  Thomas-Fermi vector in A             =   2.306684
 
 Write flags
   LWAVE        =      F    write WAVECAR
   LDOWNSAMPLE  =      F    k-point downsampling of WAVECAR
   LCHARG       =      F    write CHGCAR
   LVTOT        =      F    write LOCPOT, total local potential
   LVHAR        =      F    write LOCPOT, Hartree potential only
   LELF         =      F    write electronic localiz. function (ELF)
   LORBIT       =      0    0 simple, 1 ext, 2 COOP (PROOUT), +10 PAW based schemes


 Dipole corrections
   LMONO  =      F    monopole corrections only (constant potential shift)
   LDIPOL =      F    correct potential (dipole corrections)
   IDIPOL =      0    1-x, 2-y, 3-z, 4-all directions 
   EPSILON=  1.0000000 bulk dielectric constant

 Exchange correlation treatment:
   GGA     =    --    GGA type
   LEXCH   =     8    internal setting for exchange type
   VOSKOWN=      0    Vosko Wilk Nusair interpolation
   LHFCALC =     F    Hartree Fock is set to
   LHFONE  =     F    Hartree Fock one center treatment
   AEXX    =    0.0000 exact exchange contribution

 Linear response parameters
   LEPSILON=     F    determine dielectric tensor
   LRPA    =     F    only Hartree local field effects (RPA)
   LNABLA  =     F    use nabla operator in PAW spheres
   LVEL    =     F    velocity operator in full k-point grid
   LINTERFAST=   F  fast interpolation
   KINTER  =     0    interpolate to denser k-point grid
   CSHIFT  =0.1000    complex shift for real part using Kramers Kronig
   OMEGAMAX=  -1.0    maximum frequency
   DEG_THRESHOLD= 0.2000000E-02 threshold for treating states as degnerate
   RTIME   =   -0.100 relaxation time in fs
  (WPLASMAI=    0.000 imaginary part of plasma frequency in eV, 0.658/RTIME)
   DFIELD  = 0.0000000 0.0000000 0.0000000 field for delta impulse in time
 
 Orbital magnetization related:
   ORBITALMAG=     F  switch on orbital magnetization
   LCHIMAG   =     F  perturbation theory with respect to B field
   DQ        =  0.001000  dq finite difference perturbation B field
   LLRAUG    =     F  two centre corrections for induced B field



--------------------------------------------------------------------------------------------------------


 conjugate gradient relaxation of ions
   using selective dynamics as specified on POSCAR
 charge density and potential will be updated during run
 spin polarized calculation
 RMM-DIIS sequential band-by-band and
  variant of blocked Davidson during initial phase
 perform sub-space diagonalisation
    before iterative eigenvector-optimisation
 modified Broyden-mixing scheme, WC =      100.0
 initial mixing is a Kerker type mixing with AMIX =  0.4000 and BMIX =      1.0000
 Hartree-type preconditioning will be used
 using additional bands          202
 real space projection scheme for non local part
 use partial core corrections
 calculate Harris-corrections to forces 
   (improved forces if not selfconsistent)
 use gradient corrections 
 use of overlap-Matrix (Vanderbilt PP)
 Methfessel and Paxton  Order N= 1 SIGMA  =   0.10


--------------------------------------------------------------------------------------------------------


  energy-cutoff  :      550.00
  volume of cell :     2124.62
      direct lattice vectors                 reciprocal lattice vectors
    10.560000420  0.000000000  0.000000000     0.094696966 -0.054673319  0.000000000
     5.280000210  9.145228627  0.000000000     0.000000000  0.109346638  0.000000000
     0.000000000  0.000000000 22.000000000     0.000000000  0.000000000  0.045454545

  length of vectors
    10.560000420 10.560000420 22.000000000     0.109346638  0.109346638  0.045454545


 
 k-points in units of 2pi/SCALE and weight: mesh auto                               
   0.00000000  0.00000000  0.00000000       0.250
   0.04734848 -0.02733666  0.00000000       0.250
   0.00000000  0.05467332  0.00000000       0.250
   0.04734848  0.02733666  0.00000000       0.250
 
 k-points in reciprocal lattice and weights: mesh auto                               
   0.00000000  0.00000000  0.00000000       0.250
   0.50000000  0.00000000  0.00000000       0.250
   0.00000000  0.50000000  0.00000000       0.250
   0.50000000  0.50000000  0.00000000       0.250
 
 position of ions in fractional coordinates (direct lattice) 
   0.78966075  0.87699132  0.31582816
   0.04393882  0.88214341  0.31605232
   0.28653974  0.37856517  0.32012636
   0.86906542  0.96217151  0.42361237
   0.12373211  0.45939747  0.42724070
   0.12936993  0.96419994  0.42147888
   0.87527689  0.45998313  0.42285094
   0.37659405  0.95980243  0.41936449
   0.87274996  0.21436955  0.42155033
   0.12505156  0.21220861  0.42344352
   0.62198977  0.96051358  0.42437942
   0.87403166  0.70807509  0.42521544
   0.37360580  0.21045533  0.42766717
   0.37760335  0.71005808  0.42622146
   0.62529841  0.46139891  0.42402079
   0.12691430  0.70523647  0.42527692
   0.62393134  0.21127627  0.42457877
   0.55381975  0.37118585  0.31757095
   0.53698848  0.12225337  0.31494777
   0.54745577  0.12241455  0.03835403
   0.12360644  0.46198687  0.12740666
   0.03999045  0.13512898  0.31338525
   0.03235129  0.13482511  0.03441534
   0.12671306  0.95484959  0.13162708
   0.37558044  0.46078793  0.42666899
   0.45779299  0.54562474  0.22008560
   0.62259046  0.71227498  0.42425852
   0.96413863  0.79272622  0.21761397
   0.78890433  0.62385503  0.31886247
   0.29315792  0.63210494  0.31907285
   0.21123592  0.28374023  0.22269626
   0.71709822  0.53685317  0.22058810
   0.04024294  0.62513796  0.32101864
   0.79720004  0.86975892  0.03740235
   0.04406258  0.87221915  0.03450723
   0.03926108  0.63118460  0.03512204
   0.62574752  0.21423502  0.13267817
   0.37608349  0.96104394  0.13055742
   0.03988096  0.37987827  0.32078985
   0.03961706  0.37680314  0.03348892
   0.86761936  0.21521963  0.13097207
   0.95962679  0.54542694  0.22473188
   0.29180541  0.12086216  0.31997602
   0.53973416  0.63166777  0.32130311
   0.29178315  0.12606023  0.03725420
   0.54545151  0.62597825  0.04206242
   0.30678791  0.37356804  0.03912988
   0.62788283  0.95185769  0.13263039
   0.70142059  0.79820208  0.22280830
   0.86633517  0.71047377  0.12834734
   0.62467538  0.45773867  0.12814478
   0.30056912  0.87625620  0.31618976
   0.30615091  0.86696452  0.03949459
   0.61892989  0.71603521  0.13157826
   0.21580132  0.03462027  0.22396955
   0.54130035  0.38549347  0.03924212
   0.37935969  0.20774149  0.13048593
   0.13970060  0.70042731  0.12601187
   0.70329280  0.04306983  0.22237866
   0.79417487  0.12723489  0.32288839
   0.53830947  0.87424721  0.31820141
   0.78866377  0.13163117  0.03568706
   0.55002307  0.86477454  0.04096764
   0.21334288  0.54014670  0.22460931
   0.96280137  0.28964998  0.22158834
   0.86740749  0.96641026  0.12740667
   0.71753219  0.28687300  0.22453182
   0.45915719  0.29304584  0.22376919
   0.87387308  0.45689803  0.12677291
   0.11726506  0.21049175  0.13008946
   0.78478084  0.62565658  0.04309165
   0.30446760  0.62284293  0.04138738
   0.37746416  0.70582480  0.12774454
   0.37902910  0.46003850  0.12899471
   0.79579489  0.37045697  0.31848945
   0.78782398  0.38752064  0.04111567
   0.94385566  0.05104212  0.22344851
   0.45702340  0.80263442  0.22502694
   0.21629647  0.79533135  0.22474012
   0.46108857  0.03393525  0.22161390
   0.54668420  0.37608119  0.46313028
 
 position of ions in cartesian coordinates  (Angst):
  12.96933215  8.02028612  6.94821946
   5.12171136  8.06740315  6.95315098
   5.02468400  3.46206507  7.04277984
  14.25759700  8.79927844  9.31947204
   3.73222993  4.20129493  9.39929530
   6.45712244  8.81782888  9.27253537
  11.67163531  4.20665087  9.30272061
   9.04459036  8.77761264  9.22601888
  10.34811119  1.96045855  9.27410718
   2.44100603  1.94069627  9.31575735
  11.63972415  8.78411628  9.33634725
  12.96841135  6.47550855  9.35473958
   5.05648162  1.92466212  9.40867767
   7.73659834  6.49364348  9.37687203
   9.03933781  4.21959848  9.32845738
   5.06386376  6.44954880  9.35609234
   7.70425395  1.93216976  9.34073294
   7.80819821  3.39457950  6.98656090
   6.31609637  1.11803506  6.92885099
   6.42748199  1.11950902  0.84378857
   3.74457485  4.22497551  2.80294662
   1.13578014  1.23578538  6.89447560
   1.05350625  1.23300646  0.75713746
   6.37969601  8.73231780  2.89579587
   6.39908994  4.21401098  9.38671783
   7.71519296  4.98986301  4.84188323
  10.33536759  6.51391754  9.33368744
  14.36689896  7.24966250  4.78750741
  11.62478471  5.70529691  7.01497445
   6.43326201  5.78074421  7.01960268
   3.72879985  2.59486929  4.89931774
  10.40714241  4.90964500  4.85293829
   3.72569409  5.71702961  7.06241001
  13.01076010  7.95414421  0.82285169
   5.07061818  7.97664351  0.75915899
   3.74725186  5.77232751  0.77268479
   7.73905501  1.95922823  2.91891969
   9.04575401  8.78896659  2.87226322
   2.42690033  3.47407364  7.05737670
   2.40787681  3.44595088  0.73675630
  10.29842047  1.96823277  2.88138548
  13.01351367  4.98805409  4.94410139
   3.71961751  1.10531211  7.03947253
   9.03479888  5.77674615  7.06866837
   3.74682824  1.15284966  0.81959249
   9.06513349  5.72471418  0.92537331
   5.21211980  3.41636512  0.86085731
  11.65625177  8.70495616  2.91786869
  11.62150883  7.29974048  4.90178269
  12.89980144  6.49744505  2.82364142
   9.01343253  4.18612478  2.81918506
   7.80064292  8.01356328  6.95617471
   7.81052654  7.92858872  0.86888091
  10.31656596  6.54830568  2.89472164
   2.46165709  0.31661030  4.92733016
   7.75153750  3.52542591  0.86332671
   5.10291361  1.89984346  2.87069041
   5.17349471  6.40556785  2.77226120
   7.65418102  0.39388344  4.89233061
   9.05828726  1.16359219  7.10354451
  10.30057364  7.99519058  7.00043101
   9.02330237  1.20379713  0.78511532
  10.37425363  7.90856090  0.90128811
   5.10487562  4.93976509  4.94140483
  11.69653478  2.64891530  4.87494337
  14.26246981  8.83804282  2.80294666
   9.09182970  2.62351917  4.93970002
   6.39598222  2.67997121  4.92292219
  11.64052176  4.17843690  2.78900405
   2.34971562  1.92499520  2.86196808
  11.59075286  5.72177244  0.94801637
   6.50378879  5.69604102  0.91052233
   7.71277679  6.45492912  2.81037998
   6.43155077  4.20715724  2.83788366
  10.35960732  3.38791373  7.00676796
  10.36553066  3.54396488  0.90454481
  10.23661853  0.46679185  4.91586728
   9.06407717  7.34027527  4.95059278
   6.48344052  7.27348698  4.94428261
   5.04827358  0.31034563  4.87550584
   7.75869412  3.43934846 10.18886614
 


--------------------------------------------------------------------------------------------------------


 k-point  1 :   0.0000 0.0000 0.0000  plane waves:   62167
 k-point  2 :   0.5000 0.0000 0.0000  plane waves:   62242
 k-point  3 :   0.0000 0.5000 0.0000  plane waves:   62242
 k-point  4 :   0.5000 0.5000 0.0000  plane waves:   62242

 maximum and minimum number of plane-waves per node :     15586    15521

 maximum number of plane-waves:     62242
 maximum index in each direction: 
   IXMAX=   20   IYMAX=   20   IZMAX=   42
   IXMIN=  -20   IYMIN=  -20   IZMIN=  -42


 real space projection operators:
  total allocation   :      77826.18 KBytes
  max/ min on nodes  :      19476.16      19428.27


 parallel 3D FFT for wavefunctions:
    minimum data exchange during FFTs selected (reduces bandwidth)
 parallel 3D FFT for charge:
    minimum data exchange during FFTs selected (reduces bandwidth)


 total amount of memory used by VASP MPI-rank0   259158. kBytes
=======================================================================

   base      :      30000. kBytes
   nonlr-proj:      34704. kBytes
   fftplans  :      17962. kBytes
   grid      :      55536. kBytes
   one-center:        653. kBytes
   wavefun   :     120303. kBytes
 
     INWAV:  cpu time    0.0000: real time    0.0000
 Broyden mixing: mesh for mixing (old mesh)
   NGX = 41   NGY = 41   NGZ = 85
  (NGX  =168   NGY  =168   NGZ  =336)
  gives a total of 142885 points

 initial charge density was supplied:
 charge density of overlapping atoms calculated
 number of electron     776.0000000 magnetization     233.0000000
 keeping initial charge density in first step


--------------------------------------------------------------------------------------------------------


 Maximum index for non-local projection operator         1905
 Maximum index for augmentation-charges         2130 (set IRDMAX)


--------------------------------------------------------------------------------------------------------


 First call to EWALD:  gamma=   0.138
 Maximum number of real-space cells 4x 4x 2
 Maximum number of reciprocal cells 2x 2x 4

    FEWALD:  cpu time    0.0041: real time    0.0041


--------------------------------------- Iteration      1(   1)  ---------------------------------------


    POTLOK:  cpu time    0.4280: real time    0.4318
    SETDIJ:  cpu time    0.0334: real time    0.0337
     EDDAV:  cpu time   68.1523: real time   68.4190
       DOS:  cpu time    0.0018: real time    0.0018
    --------------------------------------------
      LOOP:  cpu time   68.6156: real time   68.8863

 eigenvalue-minimisations  :  9440
 total energy-change (2. order) : 0.7892768E+04  (-0.3281767E+05)
 number of electron     776.0000000 magnetization     233.0000000
 augmentation part      776.0000000 magnetization     233.0000000

 Free energy of the ion-electron system (eV)
  ---------------------------------------------------
  alpha Z        PSCENC =      2230.33460859
  Ewald energy   TEWEN  =    217726.57375571
  -Hartree energ DENC   =   -289445.85719437
  -exchange      EXHF   =         0.00000000
  -V(xc)+E(xc)   XCENC  =      1360.26100014
  PAW double counting   =     63651.30740739   -65525.53323748
  entropy T*S    EENTRO =         0.00474394
  eigenvalues    EBANDS =      8205.63585004
  atomic energy  EATOM  =     69690.04112127
  Solvation  Ediel_sol  =         0.00000000
  ---------------------------------------------------
  free energy    TOTEN  =      7892.76805524 eV

  energy without entropy =     7892.76331130  energy(sigma->0) =     7892.76647393


--------------------------------------------------------------------------------------------------------




--------------------------------------- Iteration      1(   2)  ---------------------------------------


     EDDAV:  cpu time   67.8788: real time   68.0952
       DOS:  cpu time    0.0019: real time    0.0019
    --------------------------------------------
      LOOP:  cpu time   67.8806: real time   68.0971

 eigenvalue-minimisations  :  9440
 total energy-change (2. order) :-0.7046688E+04  (-0.6294427E+04)
 number of electron     776.0000000 magnetization     233.0000000
 augmentation part      776.0000000 magnetization     233.0000000

 Free energy of the ion-electron system (eV)
  ---------------------------------------------------
  alpha Z        PSCENC =      2230.33460859
  Ewald energy   TEWEN  =    217726.57375571
  -Hartree energ DENC   =   -289445.85719437
  -exchange      EXHF   =         0.00000000
  -V(xc)+E(xc)   XCENC  =      1360.26100014
  PAW double counting   =     63651.30740739   -65525.53323748
  entropy T*S    EENTRO =        -0.00275344
  eigenvalues    EBANDS =      1158.95505743
  atomic energy  EATOM  =     69690.04112127
  Solvation  Ediel_sol  =         0.00000000
  ---------------------------------------------------
  free energy    TOTEN  =       846.07976524 eV

  energy without entropy =      846.08251868  energy(sigma->0) =      846.08068306


--------------------------------------------------------------------------------------------------------




--------------------------------------- Iteration      1(   3)  ---------------------------------------


     EDDAV:  cpu time   68.7668: real time   69.3331
       DOS:  cpu time    0.0020: real time    0.0020
    --------------------------------------------
      LOOP:  cpu time   68.7687: real time   69.3351

 eigenvalue-minimisations  :  9440
 total energy-change (2. order) :-0.1223482E+04  (-0.9902547E+03)
 number of electron     776.0000000 magnetization     233.0000000
 augmentation part      776.0000000 magnetization     233.0000000

 Free energy of the ion-electron system (eV)
  ---------------------------------------------------
  alpha Z        PSCENC =      2230.33460859
  Ewald energy   TEWEN  =    217726.57375571
  -Hartree energ DENC   =   -289445.85719437
  -exchange      EXHF   =         0.00000000
  -V(xc)+E(xc)   XCENC  =      1360.26100014
  PAW double counting   =     63651.30740739   -65525.53323748
  entropy T*S    EENTRO =         0.00534507
  eigenvalues    EBANDS =       -64.53534746
  atomic energy  EATOM  =     69690.04112127
  Solvation  Ediel_sol  =         0.00000000
  ---------------------------------------------------
  free energy    TOTEN  =      -377.40254113 eV

  energy without entropy =     -377.40788620  energy(sigma->0) =     -377.40432282


--------------------------------------------------------------------------------------------------------




--------------------------------------- Iteration      1(   4)  ---------------------------------------


     EDDAV:  cpu time   80.8048: real time   81.1713
       DOS:  cpu time    0.0020: real time    0.0020
    --------------------------------------------
      LOOP:  cpu time   80.8069: real time   81.1733

 eigenvalue-minimisations  : 11720
 total energy-change (2. order) :-0.1172249E+03  (-0.1079341E+03)
 number of electron     776.0000000 magnetization     233.0000000
 augmentation part      776.0000000 magnetization     233.0000000

 Free energy of the ion-electron system (eV)
  ---------------------------------------------------
  alpha Z        PSCENC =      2230.33460859
  Ewald energy   TEWEN  =    217726.57375571
  -Hartree energ DENC   =   -289445.85719437
  -exchange      EXHF   =         0.00000000
  -V(xc)+E(xc)   XCENC  =      1360.26100014
  PAW double counting   =     63651.30740739   -65525.53323748
  entropy T*S    EENTRO =        -0.00254635
  eigenvalues    EBANDS =      -181.75237691
  atomic energy  EATOM  =     69690.04112127
  Solvation  Ediel_sol  =         0.00000000
  ---------------------------------------------------
  free energy    TOTEN  =      -494.62746200 eV

  energy without entropy =     -494.62491565  energy(sigma->0) =     -494.62661322


--------------------------------------------------------------------------------------------------------




--------------------------------------- Iteration      1(   5)  ---------------------------------------


     EDDAV:  cpu time   76.3861: real time   76.5972
       DOS:  cpu time    0.0021: real time    0.0021
    CHARGE:  cpu time    4.3798: real time    4.3924
    MIXING:  cpu time    0.0105: real time    0.0116
    --------------------------------------------
      LOOP:  cpu time   80.7786: real time   81.0034

 eigenvalue-minimisations  : 11050
 total energy-change (2. order) :-0.4414269E+01  (-0.4380974E+01)
 number of electron     776.0000022 magnetization     218.1042837
 augmentation part      333.0555464 magnetization     187.1782477

 Broyden mixing:
  rms(total) = 0.11904E+02    rms(broyden)= 0.11904E+02
  rms(prec ) = 0.12203E+02
  weight for this iteration     100.00

 Free energy of the ion-electron system (eV)
  ---------------------------------------------------
  alpha Z        PSCENC =      2230.33460859
  Ewald energy   TEWEN  =    217726.57375571
  -Hartree energ DENC   =   -289445.85719437
  -exchange      EXHF   =         0.00000000
  -V(xc)+E(xc)   XCENC  =      1360.26100014
  PAW double counting   =     63651.30740739   -65525.53323748
  entropy T*S    EENTRO =        -0.00224569
  eigenvalues    EBANDS =      -186.16694693
  atomic energy  EATOM  =     69690.04112127
  Solvation  Ediel_sol  =         0.00000000
  ---------------------------------------------------
  free energy    TOTEN  =      -499.04173136 eV

  energy without entropy =     -499.03948567  energy(sigma->0) =     -499.04098280


--------------------------------------------------------------------------------------------------------




--------------------------------------- Iteration      1(   6)  ---------------------------------------


    POTLOK:  cpu time    0.4051: real time    0.4061
    SETDIJ:  cpu time    0.0328: real time    0.0329
    EDDIAG:  cpu time   11.8649: real time   11.8983
  RMM-DIIS:  cpu time   41.1754: real time   41.2893
    ORTHCH:  cpu time    1.3322: real time    1.3360
       DOS:  cpu time    0.0021: real time    0.0021
    CHARGE:  cpu time    4.2209: real time    4.2325
    MIXING:  cpu time    0.0099: real time    0.0104
    --------------------------------------------
      LOOP:  cpu time   59.0434: real time   59.2076

 eigenvalue-minimisations  :  9532
 total energy-change (2. order) :-0.1322693E+03  (-0.8687704E+02)
 number of electron     776.0000033 magnetization     213.7999793
 augmentation part      401.5572328 magnetization     180.2017243

 Broyden mixing:
  rms(total) = 0.18174E+02    rms(broyden)= 0.18174E+02
  rms(prec ) = 0.24073E+02
  weight for this iteration     100.00

 eigenvalues of (default mixing * dielectric matrix)
  average eigenvalue GAMMA=   0.2575
  0.2575

 Free energy of the ion-electron system (eV)
  ---------------------------------------------------
  alpha Z        PSCENC =      2230.33460859
  Ewald energy   TEWEN  =    217726.57375571
  -Hartree energ DENC   =   -287878.34795477
  -exchange      EXHF   =         0.00000000
  -V(xc)+E(xc)   XCENC  =      1313.75387181
  PAW double counting   =     68871.85286796   -70537.43820258
  entropy T*S    EENTRO =        -0.00875200
  eigenvalues    EBANDS =     -2048.07232297
  atomic energy  EATOM  =     69690.04112127
  Solvation  Ediel_sol  =         0.00000000
  ---------------------------------------------------
  free energy    TOTEN  =      -631.31100698 eV

  energy without entropy =     -631.30225498  energy(sigma->0) =     -631.30808964


--------------------------------------------------------------------------------------------------------




--------------------------------------- Iteration      1(   7)  ---------------------------------------


    POTLOK:  cpu time    0.4090: real time    0.4100
    SETDIJ:  cpu time    0.0336: real time    0.0337
    EDDIAG:  cpu time   11.9603: real time   12.0377
  RMM-DIIS:  cpu time   41.1964: real time   41.4865
    ORTHCH:  cpu time    1.3348: real time    1.3384
       DOS:  cpu time    0.0021: real time    0.0021
    CHARGE:  cpu time    4.2517: real time    4.2633
    MIXING:  cpu time    0.0104: real time    0.0104
    --------------------------------------------
      LOOP:  cpu time   59.1982: real time   59.5821

 eigenvalue-minimisations  :  9446
 total energy-change (2. order) : 0.8057077E+02  (-0.1662581E+02)
 number of electron     776.0000023 magnetization     208.0992668
 augmentation part      360.4454513 magnetization     164.6912186

 Broyden mixing:
  rms(total) = 0.15380E+02    rms(broyden)= 0.15380E+02
  rms(prec ) = 0.20395E+02
  weight for this iteration     100.00

 eigenvalues of (default mixing * dielectric matrix)
  average eigenvalue GAMMA=   0.3163
  0.4807  0.1518

 Free energy of the ion-electron system (eV)
  ---------------------------------------------------
  alpha Z        PSCENC =      2230.33460859
  Ewald energy   TEWEN  =    217726.57375571
  -Hartree energ DENC   =   -288629.74647295
  -exchange      EXHF   =         0.00000000
  -V(xc)+E(xc)   XCENC  =      1333.01450516
  PAW double counting   =     69995.32593064   -71830.59487842
  entropy T*S    EENTRO =         0.01191304
  eigenvalues    EBANDS =     -1065.70072259
  atomic energy  EATOM  =     69690.04112127
  Solvation  Ediel_sol  =         0.00000000
  ---------------------------------------------------
  free energy    TOTEN  =      -550.74023954 eV

  energy without entropy =     -550.75215258  energy(sigma->0) =     -550.74421055


--------------------------------------------------------------------------------------------------------




--------------------------------------- Iteration      1(   8)  ---------------------------------------


    POTLOK:  cpu time    0.4056: real time    0.4069
    SETDIJ:  cpu time    0.0334: real time    0.0335
    EDDIAG:  cpu time   11.8699: real time   11.9025
  RMM-DIIS:  cpu time   40.9941: real time   41.1070
    ORTHCH:  cpu time    1.3378: real time    1.3414
       DOS:  cpu time    0.0022: real time    0.0022
    CHARGE:  cpu time    4.1698: real time    4.1812
    MIXING:  cpu time    0.0100: real time    0.0100
    --------------------------------------------
      LOOP:  cpu time   58.8227: real time   58.9846

 eigenvalue-minimisations  :  9454
 total energy-change (2. order) : 0.4675514E+02  (-0.1197018E+02)
 number of electron     776.0000027 magnetization     202.0865397
 augmentation part      365.2883707 magnetization     160.1860011

 Broyden mixing:
  rms(total) = 0.16689E+02    rms(broyden)= 0.16689E+02
  rms(prec ) = 0.19551E+02
  weight for this iteration     100.00

 eigenvalues of (default mixing * dielectric matrix)
  average eigenvalue GAMMA=   0.3197
  0.6307  0.2388  0.0896

 Free energy of the ion-electron system (eV)
  ---------------------------------------------------
  alpha Z        PSCENC =      2230.33460859
  Ewald energy   TEWEN  =    217726.57375571
  -Hartree energ DENC   =   -288911.41045397
  -exchange      EXHF   =         0.00000000
  -V(xc)+E(xc)   XCENC  =      1340.42907463
  PAW double counting   =     71539.22942896   -73462.24979843
  entropy T*S    EENTRO =        -0.00560763
  eigenvalues    EBANDS =      -656.92722520
  atomic energy  EATOM  =     69690.04112127
  Solvation  Ediel_sol  =         0.00000000
  ---------------------------------------------------
  free energy    TOTEN  =      -503.98509605 eV

  energy without entropy =     -503.97948843  energy(sigma->0) =     -503.98322685


--------------------------------------------------------------------------------------------------------




--------------------------------------- Iteration      1(   9)  ---------------------------------------


    POTLOK:  cpu time    0.4082: real time    0.4096
    SETDIJ:  cpu time    0.0339: real time    0.0340
    EDDIAG:  cpu time   11.9047: real time   11.9775
  RMM-DIIS:  cpu time   41.8133: real time   42.2299
    ORTHCH:  cpu time    1.3733: real time    1.3844
       DOS:  cpu time    0.0021: real time    0.0021
    CHARGE:  cpu time    4.1941: real time    4.2332
    MIXING:  cpu time    0.0100: real time    0.0101
    --------------------------------------------
      LOOP:  cpu time   59.7396: real time   60.2806

 eigenvalue-minimisations  :  9468
 total energy-change (2. order) : 0.1162378E+03  (-0.1270510E+02)
 number of electron     776.0000021 magnetization     194.6284588
 augmentation part      367.9435876 magnetization     152.3093166

 Broyden mixing:
  rms(total) = 0.13051E+02    rms(broyden)= 0.13051E+02
  rms(prec ) = 0.15293E+02
  weight for this iteration     100.00

 eigenvalues of (default mixing * dielectric matrix)
  average eigenvalue GAMMA=   0.3813
  0.9690  0.3201  0.1000  0.1362

 Free energy of the ion-electron system (eV)
  ---------------------------------------------------
  alpha Z        PSCENC =      2230.33460859
  Ewald energy   TEWEN  =    217726.57375571
  -Hartree energ DENC   =   -288561.62239140
  -exchange      EXHF   =         0.00000000
  -V(xc)+E(xc)   XCENC  =      1355.82513228
  PAW double counting   =     72832.89461080   -74792.64408230
  entropy T*S    EENTRO =        -0.00846462
  eigenvalues    EBANDS =      -869.14159046
  atomic energy  EATOM  =     69690.04112127
  Solvation  Ediel_sol  =         0.00000000
  ---------------------------------------------------
  free energy    TOTEN  =      -387.74730013 eV

[...]
   0.568E+01 -.131E+02 -.286E+04   -.572E+01 0.133E+02 0.286E+04   0.202E-01 -.258E+00 0.107E+01   -.119E-02 0.238E-01 -.183E-01
   -.192E+02 -.625E+01 -.295E+04   0.192E+02 0.618E+01 0.295E+04   -.561E-01 0.116E+00 0.979E+00   0.197E-01 -.720E-02 -.173E-01
   0.364E+02 -.670E+01 -.289E+04   -.363E+02 0.652E+01 0.289E+04   -.115E+00 0.143E+00 0.913E+00   -.836E-02 -.696E-02 0.682E-02
   0.256E+02 0.343E+00 -.291E+04   -.257E+02 -.513E+00 0.291E+04   0.148E+00 0.126E+00 0.113E+01   -.998E-03 -.172E-01 0.358E-03
   -.154E+02 0.479E+01 -.290E+04   0.154E+02 -.500E+01 0.290E+04   -.680E-01 0.251E+00 0.162E+01   0.139E-02 -.114E-01 -.246E-02
   0.289E+02 0.231E+02 -.286E+04   -.290E+02 -.230E+02 0.286E+04   0.127E-01 -.124E+00 0.173E+01   -.187E-01 -.322E-02 -.141E-01
   0.268E+02 0.164E+02 -.294E+04   -.267E+02 -.165E+02 0.294E+04   -.906E-01 0.323E-01 0.696E+00   -.472E-02 0.857E-02 0.597E-02
   -.295E+02 -.771E+01 -.288E+04   0.292E+02 0.773E+01 0.288E+04   0.271E+00 -.802E-01 0.921E+00   -.388E-02 0.227E-01 -.528E-02
   0.510E+01 -.443E+02 -.292E+04   -.500E+01 0.441E+02 0.292E+04   -.685E-01 0.272E+00 0.878E+00   0.896E-02 0.155E-01 0.305E-01
   -.493E+02 0.189E+01 -.291E+04   0.489E+02 -.198E+01 0.291E+04   0.385E+00 0.534E-01 0.778E+00   0.165E-01 0.666E-02 -.148E-01
   0.252E+02 0.533E+01 -.293E+04   -.251E+02 -.495E+01 0.293E+04   -.907E-01 -.372E+00 0.105E+01   -.860E-02 -.680E-02 -.268E-01
   -.802E+00 0.292E+02 -.290E+04   0.156E+01 -.287E+02 0.290E+04   -.728E+00 -.411E+00 0.635E+00   -.189E-01 0.257E-03 -.608E-01
   -.179E+01 -.273E+02 -.290E+04   0.180E+01 0.272E+02 0.290E+04   -.738E-01 0.556E-01 0.808E+00   0.249E-01 -.296E-02 -.126E-01
   -.283E+01 0.226E+02 -.285E+04   0.306E+01 -.237E+02 0.285E+04   -.247E+00 0.111E+01 0.994E+00   -.118E-02 0.367E-02 -.218E-01
   0.481E+02 0.478E+02 -.144E+04   -.463E+02 -.488E+02 0.144E+04   -.176E+01 0.107E+01 0.295E+01   -.627E-02 0.349E-02 0.183E-01
   -.929E+02 -.413E+02 -.142E+04   0.927E+02 0.405E+02 0.141E+04   0.157E+00 0.862E+00 0.352E+01   0.437E-02 0.668E-02 0.300E-01
   -.227E+02 -.239E+02 0.300E+04   0.228E+02 0.242E+02 -.300E+04   -.235E-01 -.274E+00 -.198E+01   0.794E-02 -.150E-01 -.377E-02
   -.734E+02 0.227E+02 0.148E+04   0.740E+02 -.223E+02 -.148E+04   -.565E+00 -.323E+00 -.103E+00   0.115E-01 0.320E-01 0.132E-01
   0.100E+03 0.265E+02 -.140E+04   -.100E+03 -.254E+02 0.140E+04   0.583E+00 -.109E+01 0.323E+01   -.781E-02 -.164E-01 0.211E-02
   0.349E+02 0.500E+02 0.303E+04   -.355E+02 -.489E+02 -.303E+04   0.689E+00 -.117E+01 -.216E+01   -.128E-01 -.238E-01 -.162E-01
   0.904E+02 0.322E+01 0.147E+04   -.906E+02 -.441E+01 -.147E+04   0.739E-01 0.124E+01 -.115E+01   -.783E-02 -.535E-01 0.401E-01
   -.151E+01 0.114E+02 -.289E+04   0.877E+00 -.111E+02 0.289E+04   0.640E+00 -.347E+00 -.100E+00   0.137E-01 0.420E-02 -.176E-01
   0.535E+02 0.649E+02 0.199E+02   -.546E+02 -.649E+02 -.216E+02   0.111E+01 -.128E+00 0.179E+01   -.887E-02 0.546E-01 0.116E-01
   -.285E+02 -.150E+02 -.292E+04   0.283E+02 0.152E+02 0.292E+04   0.287E+00 -.275E+00 0.121E+01   -.267E-01 0.162E-01 -.101E-01
   -.670E+02 -.397E+02 0.116E+03   0.674E+02 0.397E+02 -.118E+03   -.355E+00 -.783E-01 0.180E+01   0.417E-01 0.112E-01 0.101E-01
   0.173E+02 -.398E+02 -.149E+04   -.177E+02 0.398E+02 0.149E+04   0.437E+00 0.477E-02 0.237E+01   -.150E-01 0.107E-01 -.149E-01
   0.357E+02 0.620E+02 -.146E+04   -.358E+02 -.614E+02 0.145E+04   0.703E-02 -.585E+00 0.260E+01   0.521E-02 0.170E-01 -.821E-02
   -.819E+02 -.484E+02 0.790E+02   0.820E+02 0.476E+02 -.800E+02   -.110E+00 0.715E+00 0.113E+01   0.757E-02 0.489E-02 0.373E-01
   0.504E+02 0.522E+02 0.140E+02   -.497E+02 -.532E+02 -.148E+02   -.803E+00 0.106E+01 0.788E+00   -.192E-01 0.261E-01 0.137E-01
   -.748E+02 -.716E+02 -.163E+04   0.748E+02 0.712E+02 0.162E+04   0.384E-01 0.510E+00 0.106E+01   0.248E-01 0.118E-01 -.238E-02
   0.102E+02 -.907E+02 0.332E+04   -.106E+02 0.908E+02 -.332E+04   0.331E+00 -.339E-01 -.234E+01   0.294E-03 -.773E-02 0.702E-03
   -.330E+02 -.507E+02 0.329E+04   0.325E+02 0.504E+02 -.328E+04   0.636E+00 0.445E+00 -.294E+01   0.388E-02 -.602E-02 0.154E-01
   -.548E+02 0.439E+02 0.331E+04   0.550E+02 -.437E+02 -.331E+04   -.216E+00 -.270E+00 -.363E+01   -.537E-02 0.199E-01 -.111E-02
   0.518E+02 0.278E+02 0.158E+04   -.518E+02 -.278E+02 -.158E+04   -.788E-01 -.193E-01 -.138E+01   0.773E-02 -.793E-02 -.385E-02
   0.219E+02 -.662E+02 0.167E+04   -.213E+02 0.660E+02 -.167E+04   -.626E+00 0.162E+00 -.889E+00   -.177E-01 -.573E-01 0.194E-01
   0.116E+02 0.193E+02 -.162E+04   -.120E+02 -.196E+02 0.162E+04   0.387E+00 0.303E+00 0.123E+01   0.659E-03 -.714E-02 0.111E-01
   -.319E+02 0.381E+01 0.335E+04   0.304E+02 -.418E+01 -.335E+04   0.155E+01 0.362E+00 -.323E+01   -.860E-02 0.277E-01 -.248E-01
   0.409E+01 0.815E+02 0.162E+04   -.437E+01 -.812E+02 -.162E+04   0.348E+00 -.398E+00 -.112E+01   -.214E-01 -.289E-01 0.149E-01
   -.590E+02 0.182E+02 0.406E+02   0.588E+02 -.179E+02 -.408E+02   0.169E+00 -.356E+00 -.365E-03   0.681E-02 0.147E-01 0.184E-01
   -.700E+02 -.385E+02 -.163E+04   0.698E+02 0.378E+02 0.163E+04   0.201E+00 0.776E+00 0.178E+01   -.110E-01 -.169E-01 0.116E-01
   0.143E+02 0.788E+02 -.163E+04   -.142E+02 -.781E+02 0.163E+04   -.489E-01 -.819E+00 0.892E+00   -.291E-01 0.225E-01 -.107E-01
   -.374E+02 -.244E+01 0.331E+04   0.379E+02 0.198E+01 -.330E+04   -.436E+00 0.469E+00 -.278E+01   0.799E-02 -.281E-01 -.195E-01
   0.208E+02 0.217E+02 0.304E+04   -.206E+02 -.215E+02 -.304E+04   -.133E+00 -.135E+00 -.627E+00   -.433E-02 0.196E-01 0.156E-01
   -.199E+02 0.580E+01 0.297E+04   0.216E+02 -.590E+01 -.297E+04   -.166E+01 0.982E-01 -.216E+01   0.873E-02 0.881E-02 -.387E-02
   -.664E+02 -.116E+03 0.148E+04   0.665E+02 0.115E+03 -.148E+04   -.925E-01 0.536E+00 -.976E+00   0.207E-02 -.135E-01 -.821E-02
   -.652E+02 -.175E+02 -.516E+02   0.644E+02 0.181E+02 0.508E+02   0.773E+00 -.668E+00 0.629E+00   -.170E-01 -.113E-01 0.151E-01
   -.111E+03 -.352E+00 0.148E+04   0.110E+03 0.746E+00 -.148E+04   0.548E-01 -.421E+00 -.404E+00   0.157E-02 0.697E-02 -.522E-02
   0.431E+02 0.331E+02 0.148E+04   -.430E+02 -.327E+02 -.148E+04   -.539E-01 -.367E+00 0.381E-01   -.126E-01 0.334E-01 0.113E-01
   0.735E+02 0.213E+02 -.147E+04   -.731E+02 -.215E+02 0.147E+04   -.424E+00 0.220E+00 0.165E+01   -.108E-01 -.173E-01 -.275E-01
   0.457E+02 -.349E+02 0.303E+04   -.450E+02 0.337E+02 -.303E+04   -.835E+00 0.129E+01 -.193E+01   -.406E-02 -.202E-01 0.189E-01
   0.181E+02 0.360E+02 0.146E+04   -.176E+02 -.358E+02 -.146E+04   -.437E+00 -.171E+00 -.378E+00   -.268E-01 0.259E-02 0.778E-02
   0.797E+02 -.483E+02 0.415E+02   -.795E+02 0.481E+02 -.414E+02   -.166E+00 0.303E+00 -.205E+00   -.236E-01 -.641E-01 0.321E-01
   0.873E+01 0.564E+02 0.244E+04   -.845E+01 -.559E+02 -.244E+04   -.304E+00 -.539E+00 -.281E+01   0.368E-02 0.748E-02 -.749E-03
   -.201E+02 -.503E+02 0.116E+04   0.201E+02 0.507E+02 -.116E+04   -.911E-01 -.346E+00 -.745E+00   0.117E-01 -.560E-02 0.422E-02
   0.211E+02 -.149E+02 0.117E+04   -.208E+02 0.146E+02 -.117E+04   -.391E+00 0.336E+00 -.792E+00   0.241E-01 0.194E-01 0.224E-01
   -.523E+02 -.471E+02 -.211E+02   0.524E+02 0.476E+02 0.208E+02   -.155E+00 -.535E+00 0.274E+00   0.227E-01 -.935E-02 0.141E-01
   0.460E+02 0.102E+02 -.118E+04   -.458E+02 -.992E+01 0.118E+04   -.236E+00 -.343E+00 0.120E+01   0.744E-02 -.519E-02 0.108E-01
   -.754E+02 -.132E+02 -.120E+04   0.753E+02 0.134E+02 0.120E+04   0.213E+00 -.139E+00 0.150E+01   -.211E-01 -.585E-02 0.221E-02
   0.160E+02 -.147E+02 0.243E+04   -.162E+02 0.151E+02 -.243E+04   0.202E+00 -.378E+00 -.326E+01   -.195E-02 -.121E-01 0.135E-02
   -.135E+02 -.509E+02 0.245E+04   0.134E+02 0.498E+02 -.245E+04   0.133E+00 0.116E+01 -.278E+01   -.717E-03 -.133E-01 0.107E-02
   -.353E+02 0.623E+01 0.288E+02   0.359E+02 -.639E+01 -.290E+02   -.561E+00 0.914E-01 0.684E-01   0.185E-01 0.282E-01 0.153E-01
   0.263E+02 0.661E+01 0.343E+02   -.268E+02 -.720E+01 -.343E+02   0.474E+00 0.581E+00 -.312E-01   -.105E-01 -.110E-01 0.306E-01
   -.384E+02 0.542E+01 0.120E+04   0.382E+02 -.514E+01 -.120E+04   0.217E+00 -.285E+00 -.109E+01   0.169E-01 -.907E-02 0.103E-01
   0.541E+02 0.176E+02 -.702E+02   -.540E+02 -.183E+02 0.709E+02   -.202E+00 0.845E+00 -.785E+00   0.256E-02 -.485E-02 0.228E-01
   -.686E+01 -.155E+02 -.102E+02   0.699E+01 0.150E+02 0.987E+01   -.647E-01 0.534E+00 0.418E+00   0.199E-02 0.168E-01 0.218E-01
   -.405E+02 0.290E+02 0.135E+04   0.404E+02 -.289E+02 -.135E+04   0.248E-01 -.173E-01 -.124E+00   -.125E-01 0.318E-01 -.274E-03
   -.238E+02 -.723E+01 0.134E+04   0.241E+02 0.781E+01 -.134E+04   -.240E+00 -.573E+00 -.948E+00   -.515E-02 -.171E-01 0.131E-01
   -.663E+01 -.931E+00 0.272E+04   0.546E+01 0.139E+01 -.272E+04   0.113E+01 -.450E+00 -.238E+01   -.188E-02 0.123E-01 -.576E-02
   0.347E+02 0.199E+02 0.270E+04   -.339E+02 -.202E+02 -.269E+04   -.812E+00 0.315E+00 -.277E+01   0.111E-01 0.228E-01 0.180E-01
   0.715E+02 0.309E+01 0.132E+04   -.717E+02 -.330E+01 -.132E+04   0.257E+00 0.241E+00 0.250E-01   -.837E-02 0.169E-01 0.342E-01
   0.635E+02 0.293E+02 0.130E+04   -.637E+02 -.292E+02 -.130E+04   0.214E+00 -.128E+00 -.127E+00   0.131E-01 0.349E-01 0.170E-01
   0.632E+02 0.277E+02 -.129E+04   -.635E+02 -.282E+02 0.129E+04   0.386E+00 0.561E+00 0.117E+01   -.156E-01 -.105E-01 0.181E-01
   0.501E+02 0.557E+02 0.274E+04   -.507E+02 -.552E+02 -.274E+04   0.609E+00 -.556E+00 -.180E+01   -.237E-02 0.158E-01 -.506E-02
   0.481E+02 0.299E+02 -.139E+01   -.486E+02 -.293E+02 0.136E+01   0.587E+00 -.632E+00 -.277E-01   0.148E-01 -.349E-01 0.170E-01
   0.231E+02 0.763E+02 -.160E+02   -.230E+02 -.753E+02 0.163E+02   -.607E-01 -.104E+01 -.394E+00   -.417E-01 -.117E-01 0.861E-02
   0.100E+03 0.466E+02 0.308E+02   -.995E+02 -.463E+02 -.311E+02   -.593E+00 -.267E+00 0.157E+00   0.155E-01 0.279E-02 0.351E-02
   -.771E+02 -.107E+03 0.114E+02   0.775E+02 0.107E+03 -.116E+02   -.399E+00 0.355E+00 0.193E+00   -.201E-01 -.236E-01 0.191E-01
   -.242E+01 0.403E+01 -.344E+03   0.257E+01 -.422E+01 0.346E+03   -.159E+00 0.216E+00 -.168E+01   -.178E-02 -.583E-03 -.238E-02
 -----------------------------------------------------------------------------------------------
   0.401E+00 -.814E+00 -.336E+01   0.862E-13 -.157E-12 -.807E-11   -.314E+00 0.743E+00 0.303E+01   -.683E-01 0.437E-01 0.344E+00
 
 
 POSITION                                       TOTAL-FORCE (eV/Angst)
 -----------------------------------------------------------------------------------
     12.97236      8.01980      6.94606         0.002926      0.002268      0.021086
      5.12755      8.06007      6.95475         0.006680     -0.000036     -0.009086
      5.03931      3.46230      7.04630        -0.004896     -0.000114      0.018156
     14.31529      8.76997      9.31957        -0.015994      0.011098     -0.000941
      3.74291      4.19783      9.39337        -0.004067     -0.001118      0.002257
      6.41136      8.78211      9.30047        -0.005289     -0.003830     -0.008659
     11.67436      4.19404      9.28706         0.005168     -0.013861     -0.001921
      9.03602      8.77188      9.22204        -0.003786     -0.015366      0.000597
     10.36832      1.91839      9.25881         0.015977     -0.004437      0.011851
      2.44043      1.91647      9.30558        -0.007231     -0.000965     -0.007529
     11.65310      8.76963      9.34082         0.012058     -0.006801     -0.000028
     12.99205      6.47643      9.34328         0.018866      0.000467     -0.002149
      5.04334      1.90592      9.37875        -0.014775     -0.017251      0.004094
      7.72499      6.51943      9.34931         0.002711      0.014705      0.008767
      9.06576      4.22683      9.40552         0.014965     -0.006016      0.018938
      5.07281      6.49716      9.35698         0.000145     -0.023641     -0.004852
      7.70885      1.87957      9.39406         0.002046     -0.018901     -0.009101
      7.81960      3.39422      7.01290        -0.002116      0.010046     -0.017753
      6.33224      1.12072      6.93377        -0.005053     -0.001987      0.008123
      6.42748      1.11951      0.84379         0.000276      0.034677      0.003851
      3.74457      4.22498      2.80295         0.003103      0.011831     -0.017904
      1.14624      1.22494      6.89301         0.010088      0.001160      0.006225
      1.05351      1.23301      0.75714         0.008354      0.011530      0.004758
      6.37970      8.73232      2.89580         0.007667      0.008482      0.023054
      6.36964      4.22863      9.47232        -0.006595      0.006627     -0.023168
      7.71519      4.98986      4.84188         0.017700     -0.096956      0.042204
     10.34072      6.50279      9.31953        -0.006766     -0.004983      0.008740
     14.36690      7.24966      4.78751         0.024564     -0.011608     -0.028091
     11.63386      5.70034      7.00888         0.003039     -0.010690      0.014148
      6.43702      5.76947      7.02654        -0.009489      0.008067      0.014936
      3.72880      2.59487      4.89932         0.017672     -0.020310     -0.026829
     10.40714      4.90964      4.85294        -0.007434      0.004997     -0.033136
      3.73588      5.71389      7.05818         0.004851     -0.005250     -0.000364
     13.01076      7.95414      0.82285        -0.021607      0.031947     -0.003320
      5.07062      7.97664      0.75916         0.003887      0.018022     -0.002079
      3.74725      5.77233      0.77268         0.003388      0.000543     -0.010608
      7.73906      1.95923      2.91892         0.002686     -0.000286     -0.006389
      9.04575      8.78897      2.87226        -0.002949     -0.016985      0.006159
      2.43933      3.46957      7.04913        -0.001976     -0.005280      0.011955
      2.40788      3.44595      0.73676        -0.013152      0.024821     -0.001735
     10.29842      1.96823      2.88139         0.018208     -0.012757     -0.004521
     13.01351      4.98805      4.94410         0.028232     -0.024740     -0.042625
      3.73027      1.09561      7.03077        -0.008990     -0.000586     -0.002790
      9.04382      5.75902      7.06697         0.001425      0.000405      0.008253
      3.74683      1.15285      0.81959        -0.004284      0.000604      0.004946
      9.06513      5.72471      0.92537        -0.016832      0.021210     -0.017669
      5.21212      3.41637      0.86086        -0.003152      0.010771     -0.013285
     11.65625      8.70496      2.91787        -0.016925     -0.003494      0.000071
     11.62151      7.29974      4.90178         0.010669     -0.007676     -0.035169
     12.89980      6.49745      2.82364         0.017018     -0.004651     -0.005757
      9.01343      4.18612      2.81919        -0.003761      0.008773     -0.008790
      7.80671      8.00595      6.95788        -0.002275      0.003754     -0.007271
      7.81053      7.92859      0.86888        -0.011645     -0.001442      0.017834
     10.31657      6.54831      2.89472         0.017154      0.004223     -0.010228
      2.46166      0.31661      4.92733         0.015064     -0.028847     -0.019624
      7.75154      3.52543      0.86333         0.004485      0.010806      0.006616
      5.10291      1.89984      2.87069         0.005404      0.014755     -0.002118
      5.17349      6.40557      2.77226        -0.025425      0.025592      0.005042
      7.65418      0.39388      4.89233         0.011221      0.004332     -0.019208
      9.06222      1.15700      7.10245         0.005262     -0.014730      0.002948
     10.30908      7.98961      6.99113        -0.000681     -0.005839     -0.001716
      9.02330      1.20380      0.78512        -0.021339     -0.012600      0.010366
     10.37425      7.90856      0.90129        -0.039425      0.013140      0.010999
      5.10488      4.93977      4.94140         0.021674     -0.000192     -0.011015
     11.69653      2.64892      4.87494        -0.046334     -0.009964      0.015145
     14.26247      8.83804      2.80295        -0.023206      0.002165     -0.040627
      9.09183      2.62352      4.93970        -0.051687      0.033952      0.072785
      6.39598      2.67997      4.92292         0.063523      0.013144      0.063658
     11.64052      4.17844      2.78900        -0.010601      0.012063     -0.004520
      2.34972      1.92500      2.86197         0.007981      0.007948     -0.017366
     11.59075      5.72177      0.94802        -0.019865      0.001091     -0.004481
      6.50379      5.69604      0.91052         0.005740      0.007268      0.010526
      7.71278      6.45493      2.81038        -0.013439      0.019970      0.061041
      6.43155      4.20716      2.83788         0.015232     -0.023269     -0.009090
     10.37294      3.38110      6.99472         0.006694     -0.004768      0.001869
     10.36553      3.54396      0.90454        -0.010040      0.004379     -0.020383
     10.23662      0.46679      4.91587        -0.025667      0.015015      0.028248
      9.06408      7.34028      4.95059         0.009046     -0.025927     -0.022917
      6.48344      7.27349      4.94428         0.013950     -0.018856     -0.044352
      5.04827      0.31035      4.87551         0.033219      0.029530      0.017205
      7.71097      3.48525     10.41943        -0.011270      0.020832      0.013712
 -----------------------------------------------------------------------------------
    total drift:                                0.018956     -0.027708      0.014575


--------------------------------------------------------------------------------------------------------



  FREE ENERGIE OF THE ION-ELECTRON SYSTEM (eV)
  ---------------------------------------------------
  free  energy   TOTEN  =      -514.74367327 eV

  energy  without entropy=     -514.74495964  energy(sigma->0) =     -514.74410206
 
 d Force = 0.1118194E-02[ 0.461E-03, 0.178E-02]  d Energy = 0.1054587E-02 0.636E-04
 d Force = 0.5375438E+02[ 0.538E+02, 0.537E+02]  d Ewald  = 0.5375438E+02-0.549E-05


--------------------------------------------------------------------------------------------------------


    POTLOK:  cpu time    0.4499: real time    0.4530


--------------------------------------------------------------------------------------------------------


 Conjugate gradient step on ions:
 trial-energy change:   -0.001055  1 .order   -0.001118   -0.001776   -0.000461
  (g-gl).g = 0.127E-02      g.g   = 0.127E-02  gl.gl    = 0.168E-02
 g(Force)  = 0.127E-02   g(Stress)= 0.000E+00 ortho     =-0.105E-04
 gamma     =   0.75291
 trial     =   1.40392
 opt step  =   2.36738  (harmonic =   1.89584) maximal distance =0.01421169
 next E    =  -514.743811   (d E  =  -0.00119)


--------------------------------------------------------------------------------------------------------


  
 reached required accuracy - stopping structural energy minimisation
     LOOP+:  cpu time  837.9673: real time  842.6465
    4ORBIT:  cpu time    0.0000: real time    0.0000

 total amount of memory used by VASP MPI-rank0   259158. kBytes
=======================================================================

   base      :      30000. kBytes
   nonlr-proj:      34704. kBytes
   fftplans  :      17962. kBytes
   grid      :      55536. kBytes
   one-center:        653. kBytes
   wavefun   :     120303. kBytes
 
  
  
 General timing and accounting informations for this job:
 ========================================================
  
                  Total CPU time used (sec):    20174.035
                            User time (sec):    19906.093
                          System time (sec):      267.942
                         Elapsed time (sec):    20276.736
  
                   Maximum memory used (kb):     1066540.
                   Average memory used (kb):           0.
  
                          Minor page faults:      3928935
                          Major page faults:            0
                 Voluntary context switches:         4080
