 vasp.5.4.4.18Apr17-6-g9f103f2a35 (build Nov 30 2020 22:55:02) complex          
  
 executed on             LinuxIFC date 2023.09.08  21:33:45
 running on   40 total cores
 distrk:  each k-point on   40 cores,    1 groups
 distr:  one band on NCORES_PER_BAND=   4 cores,   10 groups


--------------------------------------------------------------------------------------------------------


 INCAR:
 POTCAR:    PAW_PBE Pt 04Feb2005                  
 POTCAR:    PAW_PBE H 15Jun2001                   
 POTCAR:    PAW_PBE Pt 04Feb2005                  
   VRHFIN =Pt: s1d9                                                             
   LEXCH  = PE                                                                  
   EATOM  =   729.1176 eV,   53.5886 Ry                                         
                                                                                
   TITEL  = PAW_PBE Pt 04Feb2005                                                
   LULTRA =        F    use ultrasoft PP ?                                      
   IUNSCR =        1    unscreen: 0-lin 1-nonlin 2-no                           
   RPACOR =    2.330    partial core radius                                     
   POMASS =  195.080; ZVAL   =   10.000    mass and valenz                      
   RCORE  =    2.600    outmost cutoff radius                                   
   RWIGS  =    2.750; RWIGS  =    1.455    wigner-seitz radius (au A)           
   ENMAX  =  230.283; ENMIN  =  172.712 eV                                      
   ICORE  =        3    local potential                                         
   LCOR   =        T    correct aug charges                                     
   LPAW   =        T    paw PP                                                  
   EAUG   =  358.966                                                            
   DEXC   =    0.000                                                            
   RMAX   =    2.658    core radius for proj-oper                               
   RAUG   =    1.300    factor for augmentation sphere                          
   RDEP   =    2.761    radius for radial grids                                 
   RDEPT  =    2.203    core radius for aug-charge                              
                                                                                
   Atomic configuration                                                         
   16 entries                                                                   
     n  l   j            E        occ.                                          
     1  0  0.50    -78401.1885   2.0000                                         
     2  0  0.50    -13770.7750   2.0000                                         
     2  1  1.50    -11931.0468   6.0000                                         
     3  0  0.50     -3234.7234   2.0000                                         
     3  1  1.50     -2699.2216   6.0000                                         
     3  2  2.50     -2119.5714  10.0000                                         
     4  0  0.50      -695.1528   2.0000                                         
     4  1  1.50      -519.6034   6.0000                                         
     4  2  2.50      -306.6786  10.0000                                         
     4  3  3.50       -70.1041  14.0000                                         
     5  0  0.50      -101.7747   2.0000                                         
     5  1  1.50       -55.9873   6.0000                                         
     5  2  2.50        -6.1423   9.0000                                         
     6  0  0.50        -5.6573   1.0000                                         
     6  1  1.50        -6.8029   0.0000                                         
     5  3  2.50        -1.3606   0.0000                                         
   Description                                                                  
     l       E           TYP  RCUT    TYP  RCUT                                 
     2     -6.1423404     23  2.500                                             
     2     -7.5029230     23  2.500                                             
     0     -5.6573207     23  2.500                                             
     0      0.7416693     23  2.500                                             
     1     -2.7211652     23  2.600                                             
     1     20.4087390     23  2.600                                             
     3     -1.3605826     23  2.500                                             
  local pseudopotential read in
  partial core-charges read in
  partial kinetic energy density read in
  atomic valenz-charges read in
  non local Contribution for L=           2  read in
    real space projection operators read in
  non local Contribution for L=           2  read in
    real space projection operators read in
  non local Contribution for L=           0  read in
    real space projection operators read in
  non local Contribution for L=           0  read in
    real space projection operators read in
  non local Contribution for L=           1  read in
    real space projection operators read in
  non local Contribution for L=           1  read in
    real space projection operators read in
    PAW grid and wavefunctions read in
 
   number of l-projection  operators is LMAX  =           6
   number of lm-projection operators is LMMAX =          18
 
 POTCAR:    PAW_PBE H 15Jun2001                   
   VRHFIN =H: ultrasoft test                                                    
   LEXCH  = PE                                                                  
   EATOM  =    12.4884 eV,    0.9179 Ry                                         
                                                                                
   TITEL  = PAW_PBE H 15Jun2001                                                 
   LULTRA =        F    use ultrasoft PP ?                                      
   IUNSCR =        0    unscreen: 0-lin 1-nonlin 2-no                           
   RPACOR =    0.000    partial core radius                                     
   POMASS =    1.000; ZVAL   =    1.000    mass and valenz                      
   RCORE  =    1.100    outmost cutoff radius                                   
   RWIGS  =    0.700; RWIGS  =    0.370    wigner-seitz radius (au A)           
   ENMAX  =  250.000; ENMIN  =  200.000 eV                                      
   RCLOC  =    0.701    cutoff for local pot                                    
   LCOR   =        T    correct aug charges                                     
   LPAW   =        T    paw PP                                                  
   EAUG   =  400.000                                                            
   RMAX   =    1.123    core radius for proj-oper                               
   RAUG   =    1.200    factor for augmentation sphere                          
   RDEP   =    1.112    radius for radial grids                                 
   RDEPT  =    0.926    core radius for aug-charge                              
                                                                                
   Atomic configuration                                                         
    2 entries                                                                   
     n  l   j            E        occ.                                          
     1  0  0.50        -6.4927   1.0000                                         
     2  1  0.50        -3.4015   0.0000                                         
   Description                                                                  
     l       E           TYP  RCUT    TYP  RCUT                                 
     0     -6.4927494     23  1.100                                             
     0      6.8029130     23  1.100                                             
     1     -4.0817478     23  1.100                                             
  local pseudopotential read in
  atomic valenz-charges read in
  non local Contribution for L=           0  read in
    real space projection operators read in
  non local Contribution for L=           0  read in
    real space projection operators read in
  non local Contribution for L=           1  read in
    real space projection operators read in
    PAW grid and wavefunctions read in
 
   number of l-projection  operators is LMAX  =           3
   number of lm-projection operators is LMMAX =           5
 
 Optimization of the real space projectors (new method)

 maximal supplied QI-value         = 14.36
 optimisation between [QCUT,QGAM] = [ 11.92, 23.98] = [ 39.79,161.09] Ry 
 Optimized for a Real-space Cutoff    1.49 Angstroem

   l    n(q)    QCUT    max X(q) W(low)/X(q) W(high)/X(q)  e(spline) 
   2     10    11.920    66.195    0.79E-04    0.18E-03    0.24E-06
   2     10    11.920    64.643    0.81E-04    0.19E-03    0.24E-06
   0     11    11.920    95.520    0.28E-04    0.54E-04    0.18E-06
   0     11    11.920    63.403    0.27E-04    0.52E-04    0.17E-06
   1     10    11.920    19.961    0.18E-04    0.11E-03    0.23E-06
   1     10    11.920    13.289    0.25E-04    0.87E-04    0.19E-06
 Optimization of the real space projectors (new method)

 maximal supplied QI-value         = 34.20
 optimisation between [QCUT,QGAM] = [ 11.97, 23.94] = [ 40.13,160.53] Ry 
 Optimized for a Real-space Cutoff    1.18 Angstroem

   l    n(q)    QCUT    max X(q) W(low)/X(q) W(high)/X(q)  e(spline) 
   0      8    11.971    19.460    0.15E-03    0.31E-03    0.25E-06
   0      8    11.971    12.209    0.13E-03    0.29E-03    0.25E-06
   1      8    11.971     4.655    0.22E-03    0.24E-03    0.21E-06
  PAW_PBE Pt 04Feb2005                  :
 energy of atom  1       EATOM= -729.1176
 kinetic energy error for atom=    0.0021 (will be added to EATOM!!)
  PAW_PBE H 15Jun2001                   :
 energy of atom  2       EATOM=  -12.4884
 kinetic energy error for atom=    0.0008 (will be added to EATOM!!)
 
 
 POSCAR: Pt111                                   
  positions in direct lattice
  velocities in cartesian coordinates
 exchange correlation table for  LEXCH =        8
   RHO(1)=    0.500       N(1)  =     2000
   RHO(2)=  100.500       N(2)  =     4000
 


--------------------------------------------------------------------------------------------------------


 ion  position               nearest neighbor table
   1  0.785  0.869  0.330-  56 2.74   2 2.74  73 2.74   3 2.74  72 2.74  43 2.74  71 2.77  20 2.77
                            55 2.77  35 2.81  27 2.81  34 2.82
   2  0.035  0.870  0.330-  72 2.74   1 2.74  23 2.74  47 2.74   3 2.74  57 2.74  65 2.76  55 2.76
                            68 2.77  39 2.80  29 2.81  27 2.82
   3  0.035  0.619  0.330-  15 2.74   9 2.74   1 2.74   2 2.74  56 2.74  57 2.74  55 2.76  12 2.76
                            76 2.77  39 2.80  28 2.81  35 2.82
   4  0.787  0.868  0.018-   5 2.74  58 2.74  75 2.74   6 2.74  74 2.74  44 2.74  21 2.81  78 2.81
                            19 2.82
   5  0.037  0.868  0.018-  74 2.74  48 2.74   4 2.74  24 2.74   6 2.74  59 2.75  49 2.81  70 2.81
                            78 2.82
   6  0.037  0.618  0.018-  18 2.74  59 2.74   4 2.74  58 2.74   5 2.74  10 2.74  70 2.81  46 2.81
                            21 2.82
   7  0.619  0.202  0.123-  78 2.74  19 2.74  11 2.74  53 2.74  61 2.74  22 2.74  71 2.76  79 2.77
                            80 2.77  42 2.81  44 2.81  74 2.82
   8  0.369  0.952  0.123-  54 2.74  25 2.74  49 2.74  19 2.74  60 2.74  53 2.74  66 2.77  69 2.77
                            26 2.77  16 2.81  24 2.81  75 2.82
   9  0.035  0.369  0.330-  13 2.74  47 2.74   3 2.74  56 2.74  15 2.75  63 2.75  12 2.76  77 2.77
                            62 2.77  33 2.81  28 2.81  30 2.81
  10  0.037  0.368  0.018-  64 2.74  48 2.74  18 2.74  16 2.74  58 2.74   6 2.74  54 2.81  46 2.81
                            45 2.82
  11  0.869  0.202  0.123-  22 2.74   7 2.74  54 2.74  78 2.74  49 2.74  45 2.74  65 2.76  77 2.77
                            79 2.77  64 2.81  74 2.81  48 2.82
  12  0.952  0.536  0.227-  62 2.74  77 2.74  55 2.74  20 2.74  76 2.74  67 2.74   3 2.76   9 2.76
                            21 2.77  45 2.77  56 2.77  46 2.77
  13  0.285  0.120  0.330-   9 2.74  43 2.74  47 2.74  73 2.74  15 2.74  23 2.75  62 2.76  26 2.77
                            69 2.77  31 2.80  36 2.81  33 2.81
  14  0.534  0.619  0.331-  57 2.73  41 2.73  23 2.73  63 2.74  73 2.74  56 2.74  51 2.77  66 2.78
                            67 2.78  52 2.81  38 2.84  37 2.85
  15  0.285  0.370  0.330-  41 2.73  57 2.74   3 2.74  43 2.74  13 2.74   9 2.75  76 2.77  80 2.77
                            62 2.78  36 2.80  28 2.81  50 2.82
  16  0.287  0.118  0.018-  44 2.74  75 2.74  18 2.74  24 2.74  48 2.74  10 2.74   8 2.81  53 2.81
                            54 2.82
  17  0.537  0.618  0.018-  24 2.74  59 2.74  42 2.74  64 2.74  58 2.74  75 2.74  22 2.81  25 2.81
                            60 2.82
  18  0.287  0.368  0.018-   6 2.74  59 2.74  10 2.74  44 2.74  16 2.74  42 2.74  53 2.81  61 2.81
                            46 2.82
  19  0.619  0.952  0.123-  78 2.74  21 2.74  25 2.74   7 2.74   8 2.74  53 2.74  20 2.76  71 2.77
                            69 2.77  44 2.81  75 2.81   4 2.82
  20  0.702  0.786  0.227-  71 2.74  69 2.74  55 2.74  12 2.74  66 2.74  67 2.74  56 2.76  19 2.76
                            25 2.77  73 2.77  21 2.77   1 2.77
  21  0.869  0.702  0.123-  19 2.74  45 2.74  25 2.74  78 2.74  46 2.74  70 2.74  12 2.77  55 2.77
                            20 2.77   4 2.81  58 2.81   6 2.82
  22  0.619  0.452  0.123-  45 2.74  61 2.74  11 2.74  25 2.74   7 2.74  60 2.74  79 2.76  67 2.77
                            51 2.78  17 2.81  42 2.81  64 2.82
  23  0.285  0.869  0.330-  14 2.73  57 2.73  73 2.74   2 2.74  13 2.75  47 2.75  68 2.77  26 2.77
                            66 2.77  31 2.81  29 2.81  37 2.81
  24  0.287  0.868  0.018-  17 2.74  59 2.74  48 2.74   5 2.74  16 2.74  75 2.74  60 2.81   8 2.81
                            49 2.82
  25  0.619  0.702  0.123-  21 2.74  45 2.74  19 2.74   8 2.74  22 2.74  60 2.74  20 2.77  67 2.77
                            66 2.77  17 2.81  75 2.81  58 2.82
  26  0.202  0.036  0.227-  62 2.74  77 2.74  69 2.74  65 2.74  66 2.74  68 2.74  54 2.76  49 2.77
                            13 2.77   8 2.77  47 2.77  23 2.77
  27  0.867  0.954  0.436-  39 2.72  40 2.72  29 2.73  32 2.74  34 2.74  35 2.75  72 2.81   1 2.81
                             2 2.82
  28  0.117  0.454  0.436-  50 2.71  35 2.73  30 2.73  33 2.74  39 2.74  36 2.74   3 2.81   9 2.81
                            15 2.81
  29  0.117  0.954  0.435-  37 2.71  32 2.73  27 2.73  33 2.74  39 2.74  31 2.75  47 2.80   2 2.81
                            23 2.81
  30  0.868  0.454  0.436-  38 2.71  35 2.73  28 2.73  33 2.74  52 2.74  32 2.75  63 2.81  56 2.81
                             9 2.81
  31  0.367  0.954  0.435-  37 2.71  36 2.73  34 2.73  33 2.74  52 2.74  29 2.75  13 2.80  23 2.81
                            73 2.82
  32  0.867  0.203  0.435-  38 2.71  29 2.73  27 2.74  40 2.74  33 2.74  30 2.75  63 2.80  72 2.81
                            47 2.82
  33  0.117  0.204  0.435-  29 2.74  31 2.74  30 2.74  28 2.74  32 2.74  36 2.74   9 2.81  47 2.81
                            13 2.81
  34  0.617  0.954  0.436-  52 2.72  40 2.72  31 2.73  36 2.73  27 2.74  35 2.75  43 2.81   1 2.82
                            73 2.82
  35  0.868  0.703  0.436-  52 2.72  39 2.72  30 2.73  28 2.73  27 2.75  34 2.75   1 2.81  56 2.82
                             3 2.82
  36  0.368  0.203  0.436-  50 2.71  31 2.73  34 2.73  40 2.74  33 2.74  28 2.74  15 2.80  13 2.81
                            43 2.82
  37  0.365  0.709  0.438-  81 1.84  29 2.71  31 2.71  39 2.76  52 2.76  50 2.81  38 2.81  23 2.81
                            57 2.85  14 2.85
  38  0.621  0.452  0.438-  81 1.86  30 2.71  32 2.71  52 2.76  40 2.76  50 2.81  37 2.81  63 2.82
                            14 2.84  41 2.85
  39  0.115  0.705  0.435-  27 2.72  35 2.72  28 2.74  29 2.74  50 2.76  37 2.76   2 2.80   3 2.80
                            57 2.81
  40  0.618  0.201  0.435-  27 2.72  34 2.72  32 2.74  36 2.74  38 2.76  50 2.76  43 2.80  41 2.80
                            72 2.81
  41  0.534  0.370  0.331-  63 2.73  15 2.73  14 2.73  57 2.73  72 2.74  43 2.74  51 2.77  80 2.78
                            79 2.78  40 2.80  38 2.85  50 2.85
  42  0.537  0.368  0.018-  74 2.74  44 2.74  64 2.74  17 2.74  59 2.74  18 2.74   7 2.81  22 2.81
                            61 2.82
  43  0.535  0.120  0.330-  15 2.74  73 2.74  13 2.74  72 2.74   1 2.74  41 2.74  80 2.76  69 2.77
                            71 2.77  40 2.80  34 2.81  36 2.82
  44  0.537  0.118  0.018-  16 2.74  42 2.74  75 2.74  74 2.74  18 2.74   4 2.74  19 2.81   7 2.81
                            53 2.82
  45  0.869  0.452  0.123-  22 2.74  21 2.74  25 2.74  46 2.74  11 2.74  54 2.74  77 2.76  12 2.77
                            67 2.77  58 2.81  64 2.81  10 2.82
  46  0.119  0.452  0.124-  53 2.74  45 2.74  54 2.74  21 2.74  70 2.74  61 2.74  62 2.76  76 2.77
                            12 2.77   6 2.81  10 2.81  18 2.82
  47  0.035  0.120  0.330-   9 2.74  72 2.74  13 2.74   2 2.74  63 2.74  23 2.75  77 2.76  65 2.77
                            26 2.77  29 2.80  33 2.81  32 2.82
  48  0.037  0.118  0.018-   5 2.74  10 2.74  24 2.74  74 2.74  16 2.74  64 2.74  49 2.81  54 2.81
                            11 2.82
  49  0.119  0.952  0.123-  70 2.74  60 2.74  54 2.74   8 2.74  11 2.74  78 2.74  26 2.77  68 2.77
                            65 2.77  48 2.81   5 2.81  24 2.82
  50  0.365  0.452  0.438-  81 1.88  28 2.71  36 2.71  39 2.76  40 2.76  38 2.81  37 2.81  15 2.82
                            57 2.84  41 2.85
  51  0.452  0.536  0.227-  67 2.74  76 2.74  80 2.74  79 2.74  66 2.74  68 2.74  41 2.77  14 2.77
                            60 2.77  61 2.77  57 2.78  22 2.78
  52  0.618  0.705  0.435-  34 2.72  35 2.72  31 2.74  30 2.74  38 2.76  37 2.76  73 2.80  56 2.80
                            14 2.81
  53  0.369  0.202  0.124-  46 2.74  54 2.74   7 2.74  61 2.74   8 2.74  19 2.74  69 2.76  80 2.77
                            62 2.77  18 2.81  16 2.81  44 2.82
  54  0.119  0.202  0.123-   8 2.74  49 2.74  53 2.74  11 2.74  46 2.74  45 2.74  26 2.76  62 2.77
                            77 2.77  10 2.81  48 2.81  16 2.82
  55  0.952  0.786  0.227-  71 2.74  65 2.74  12 2.74  20 2.74  68 2.74  76 2.74   2 2.76   3 2.76
                            78 2.77  21 2.77  70 2.77   1 2.77
  56  0.785  0.619  0.330-  63 2.74   9 2.74   1 2.74  73 2.74   3 2.74  14 2.74  67 2.76  20 2.76
                            12 2.77  52 2.80  30 2.81  35 2.82
  57  0.285  0.620  0.331-  14 2.73  41 2.73  23 2.73  15 2.74   3 2.74   2 2.74  68 2.78  51 2.78
                            76 2.78  39 2.81  50 2.84  37 2.85
  58  0.787  0.618  0.018-   4 2.74  75 2.74  64 2.74  17 2.74   6 2.74  10 2.74  21 2.81  45 2.81
                            25 2.82
  59  0.287  0.618  0.018-  18 2.74  17 2.74   6 2.74  24 2.74  42 2.74   5 2.75  61 2.81  60 2.81
                            70 2.82
  60  0.369  0.702  0.123-  70 2.74  61 2.74  49 2.74   8 2.74  22 2.74  25 2.74  66 2.77  68 2.77
                            51 2.77  24 2.81  59 2.81  17 2.82
  61  0.369  0.452  0.123-  60 2.74  22 2.74   7 2.74  53 2.74  70 2.74  46 2.74  80 2.76  76 2.77
                            51 2.77  59 2.81  18 2.81  42 2.82
  62  0.202  0.286  0.227-  26 2.74  77 2.74  12 2.74  69 2.74  76 2.74  80 2.74  13 2.76  46 2.76
                            54 2.77  53 2.77   9 2.77  15 2.78
  63  0.784  0.370  0.330-  41 2.73  14 2.74  56 2.74  72 2.74  47 2.74   9 2.75  67 2.77  79 2.77
                            77 2.78  32 2.80  30 2.81  38 2.82
  64  0.787  0.368  0.018-  10 2.74  42 2.74  58 2.74  17 2.74  48 2.74  74 2.74  11 2.81  45 2.81
                            22 2.82
  65  0.952  0.036  0.227-  77 2.74  71 2.74  55 2.74  26 2.74  79 2.74  68 2.74   2 2.76  11 2.76
                            78 2.77  47 2.77  49 2.77  72 2.77
  66  0.452  0.786  0.227-  68 2.74  51 2.74  67 2.74  20 2.74  26 2.74  69 2.74  73 2.76   8 2.77
                            60 2.77  23 2.77  25 2.77  14 2.78
  67  0.702  0.536  0.227-  79 2.74  51 2.74  66 2.74  77 2.74  20 2.74  12 2.74  56 2.76  22 2.77
                            25 2.77  63 2.77  45 2.77  14 2.78
  68  0.202  0.786  0.227-  66 2.74  51 2.74  76 2.74  55 2.74  26 2.74  65 2.74  49 2.77  23 2.77
                             2 2.77  70 2.77  60 2.77  57 2.78
  69  0.452  0.036  0.227-  71 2.74  20 2.74  62 2.74  26 2.74  66 2.74  80 2.74  73 2.76  53 2.76
                            43 2.77   8 2.77  19 2.77  13 2.77
  70  0.119  0.702  0.123-  60 2.74  49 2.74  61 2.74  46 2.74  78 2.74  21 2.74  76 2.77  68 2.77
                            55 2.77   6 2.81   5 2.81  59 2.82
  71  0.702  0.036  0.227-  20 2.74  69 2.74  55 2.74  65 2.74  80 2.74  79 2.74   7 2.76  72 2.77
                            19 2.77   1 2.77  78 2.77  43 2.77
  72  0.785  0.120  0.330-   2 2.74  63 2.74  47 2.74  43 2.74   1 2.74  41 2.74  79 2.76  71 2.77
                            65 2.77  40 2.81  32 2.81  27 2.81
  73  0.535  0.870  0.330-  43 2.74  23 2.74   1 2.74  13 2.74  56 2.74  14 2.74  69 2.76  66 2.76
                            20 2.77  52 2.80  31 2.82  34 2.82
  74  0.787  0.118  0.018-  42 2.74   5 2.74  44 2.74   4 2.74  48 2.74  64 2.74  78 2.81  11 2.81
                             7 2.82
  75  0.537  0.868  0.018-  16 2.74  58 2.74   4 2.74  44 2.74  17 2.74  24 2.74  19 2.81  25 2.81
                             8 2.82
  76  0.202  0.536  0.227-  80 2.74  51 2.74  68 2.74  62 2.74  55 2.74  12 2.74  70 2.77  15 2.77
                            46 2.77   3 2.77  61 2.77  57 2.78
  77  0.952  0.286  0.227-  26 2.74  62 2.74  12 2.74  65 2.74  79 2.74  67 2.74  47 2.76  45 2.76
                            11 2.77   9 2.77  54 2.77  63 2.78
  78  0.869  0.952  0.123-   7 2.74  19 2.74  21 2.74  11 2.74  70 2.74  49 2.74  55 2.77  65 2.77
                            71 2.77  74 2.81   4 2.81   5 2.82
  79  0.702  0.286  0.227-  67 2.74  51 2.74  80 2.74  77 2.74  65 2.74  71 2.74  72 2.76  22 2.76
                             7 2.77  63 2.77  11 2.77  41 2.78
  80  0.452  0.286  0.227-  76 2.74  51 2.74  79 2.74  62 2.74  71 2.74  69 2.74  43 2.76  61 2.76
                            53 2.77   7 2.77  15 2.77  41 2.78
  81  0.450  0.540  0.479-  37 1.84  38 1.86  50 1.88
 
  LATTYP: Found a hexagonal cell.
 ALAT       =    10.9600000166
 C/A-ratio  =     2.0072992670
  
  Lattice vectors:
  
 A1 = (   5.4799999760,  -9.4916384585,   0.0000000000)
 A2 = ( -10.9600000060,   0.0000000000,   0.0000000000)
 A3 = (   0.0000000000,   0.0000000000, -22.0000000000)


Analysis of symmetry for initial positions (statically):
=====================================================================
 Subroutine PRICEL returns:
 Original cell was already a primitive cell.
 

 Routine SETGRP: Setting up the symmetry group for a 
 hexagonal supercell.


 Subroutine GETGRP returns: Found  1 space group operations
 (whereof  1 operations were pure point group operations)
 out of a pool of 24 trial point group operations.


The static configuration has the point symmetry C_1 .


Analysis of symmetry for dynamics (positions and initial velocities):
=====================================================================
 Subroutine PRICEL returns:
 Original cell was already a primitive cell.
 

 Routine SETGRP: Setting up the symmetry group for a 
 hexagonal supercell.


 Subroutine GETGRP returns: Found  1 space group operations
 (whereof  1 operations were pure point group operations)
 out of a pool of 24 trial point group operations.


The dynamic configuration has the point symmetry C_1 .


Analysis of constrained symmetry for selective dynamics:
=====================================================================
 Subroutine PRICEL returns:
 Original cell was already a primitive cell.
 

 Routine SETGRP: Setting up the symmetry group for a 
 hexagonal supercell.


 Subroutine GETGRP returns: Found  1 space group operations
 (whereof  1 operations were pure point group operations)
 out of a pool of 24 trial point group operations.


The constrained configuration has the point symmetry C_1 .


 Subroutine INISYM returns: Found  1 space group operations
 (whereof  1 operations are pure point group operations),
 and found     1 'primitive' translations

 
 
 KPOINTS: mesh auto                               

Automatic generation of k-mesh.
Space group operators:
 irot       det(A)        alpha          n_x          n_y          n_z        tau_x        tau_y        tau_z
    1     1.000000     0.000000     1.000000     0.000000     0.000000     0.000000     0.000000     0.000000
 
 Subroutine IBZKPT returns following result:
 ===========================================
 
 Found      4 irreducible k-points:
 
 Following reciprocal coordinates:
            Coordinates               Weight
  0.000000  0.000000  0.000000      1.000000
  0.500000  0.000000  0.000000      1.000000
  0.000000  0.500000  0.000000      1.000000
  0.500000  0.500000  0.000000      1.000000
 
 Following cartesian coordinates:
            Coordinates               Weight
  0.000000  0.000000  0.000000      1.000000
  0.045620 -0.026339  0.000000      1.000000
  0.000000  0.052678  0.000000      1.000000
  0.045620  0.026339  0.000000      1.000000
 


--------------------------------------------------------------------------------------------------------




 Dimension of arrays:
   k-points           NKPTS =      4   k-points in BZ     NKDIM =      4   number of bands    NBANDS=    480
   number of dos      NEDOS =    301   number of ions     NIONS =     81
   non local maximal  LDIM  =      6   non local SUM 2l+1 LMDIM =     18
   total plane-waves  NPLWV = ******
   max r-space proj   IRMAX =   7247   max aug-charges    IRDMAX=  31567
   dimension x,y,z NGX =    84 NGY =   84 NGZ =  168
   dimension x,y,z NGXF=   168 NGYF=  168 NGZF=  336
   support grid    NGXF=   168 NGYF=  168 NGZF=  336
   ions per type =              80   1
   NGX,Y,Z   is equivalent  to a cutoff of  12.74, 12.74, 12.70 a.u.
   NGXF,Y,Z  is equivalent  to a cutoff of  25.48, 25.48, 25.39 a.u.

 SYSTEM =  Pt111                                   
 POSCAR =  Pt111                                   

 Startparameter for this run:
   NWRITE =      2    write-flag & timer
   PREC   = accura    normal or accurate (medium, high low for compatibility)
   ISTART =      0    job   : 0-new  1-cont  2-samecut
   ICHARG =      2    charge: 1-file 2-atom 10-const
   ISPIN  =      1    spin polarized calculation?
   LNONCOLLINEAR =      F non collinear calculations
   LSORBIT =      F    spin-orbit coupling
   INIWAV =      1    electr: 0-lowe 1-rand  2-diag
   LASPH  =      F    aspherical Exc in radial PAW
   METAGGA=      F    non-selfconsistent MetaGGA calc.

 Electronic Relaxation 1
   ENCUT  =  550.0 eV  40.42 Ry    6.36 a.u.  20.96 20.96 42.07*2*pi/ulx,y,z
   ENINI  =  550.0     initial cutoff
   ENAUG  =  400.0 eV  augmentation charge cutoff
   NELM   =    200;   NELMIN=  2; NELMDL= -5     # of ELM steps 
   EDIFF  = 0.1E-04   stopping-criterion for ELM
   LREAL  =      T    real-space projection
   NLSPLINE    = F    spline interpolate recip. space projectors
   LCOMPAT=      F    compatible to vasp.4.4
   GGA_COMPAT  = T    GGA compatible to vasp.4.4-vasp.4.6
   LMAXPAW     = -100 max onsite density
   LMAXMIX     =    2 max onsite mixed and CHGCAR
   VOSKOWN=      0    Vosko Wilk Nusair interpolation
   ROPT   =   -0.00025  -0.00025
 Ionic relaxation
   EDIFFG = -.5E-01   stopping-criterion for IOM
   NSW    =    300    number of steps for IOM
   NBLOCK =      1;   KBLOCK =    300    inner block; outer block 
   IBRION =      2    ionic relax: 0-MD 1-quasi-New 2-CG
   NFREE  =      1    steps in history (QN), initial steepest desc. (CG)
   ISIF   =      2    stress and relaxation
   IWAVPR =     11    prediction:  0-non 1-charg 2-wave 3-comb
   ISYM   =      2    0-nonsym 1-usesym 2-fastsym
   LCORR  =      T    Harris-Foulkes like correction to forces

   POTIM  = 0.5000    time-step for ionic-motion
   TEIN   =    0.0    initial temperature
   TEBEG  =    0.0;   TEEND  =   0.0 temperature during run
   SMASS  =  -3.00    Nose mass-parameter (am)
   estimated Nose-frequenzy (Omega)   =  0.10E-29 period in steps =****** mass=  -0.275E-26a.u.
   SCALEE = 1.0000    scale energy and forces
   NPACO  =    256;   APACO  = 16.0  distance and # of slots for P.C.
   PSTRESS=    0.0 pullay stress

  Mass of Ions in am
   POMASS = 195.08  1.00
  Ionic Valenz
   ZVAL   =  10.00  1.00
  Atomic Wigner-Seitz radii
   RWIGS  =  -1.00 -1.00
  virtual crystal weights 
   VCA    =   1.00  1.00
   NELECT =     801.0000    total number of electrons
   NUPDOWN=      -1.0000    fix difference up-down

 DOS related values:
   EMIN   =  10.00;   EMAX   =-10.00  energy-range for DOS
   EFERMI =   0.00
   ISMEAR =     1;   SIGMA  =   0.10  broadening in eV -4-tet -1-fermi 0-gaus

 Electronic relaxation 2 (details)
   IALGO  =     68    algorithm
   LDIAG  =      T    sub-space diagonalisation (order eigenvalues)
   LSUBROT=      F    optimize rotation matrix (better conditioning)
   TURBO    =      0    0=normal 1=particle mesh
   IRESTART =      0    0=no restart 2=restart with 2 vectors
   NREBOOT  =      0    no. of reboots
   NMIN     =      0    reboot dimension
   EREF     =   0.00    reference energy to select bands
   IMIX   =      4    mixing-type and parameters
     AMIX     =   0.40;   BMIX     =  1.00
     AMIX_MAG =   1.60;   BMIX_MAG =  1.00
     AMIN     =   0.10
     WC   =   100.;   INIMIX=   1;  MIXPRE=   1;  MAXMIX= -45

 Intra band minimization:
   WEIMIN = 0.0010     energy-eigenvalue tresh-hold
   EBREAK =  0.52E-08  absolut break condition
   DEPER  =   0.30     relativ break condition  

   TIME   =   0.40     timestep for ELM

  volume/ion in A,a.u.               =      28.25       190.67
  Fermi-wavevector in a.u.,A,eV,Ry     =   1.153703  2.180183 18.109785  1.331032
  Thomas-Fermi vector in A             =   2.290345
 
 Write flags
   LWAVE        =      F    write WAVECAR
   LDOWNSAMPLE  =      F    k-point downsampling of WAVECAR
   LCHARG       =      F    write CHGCAR
   LVTOT        =      F    write LOCPOT, total local potential
   LVHAR        =      F    write LOCPOT, Hartree potential only
   LELF         =      F    write electronic localiz. function (ELF)
   LORBIT       =      0    0 simple, 1 ext, 2 COOP (PROOUT), +10 PAW based schemes


 Dipole corrections
   LMONO  =      F    monopole corrections only (constant potential shift)
   LDIPOL =      F    correct potential (dipole corrections)
   IDIPOL =      0    1-x, 2-y, 3-z, 4-all directions 
   EPSILON=  1.0000000 bulk dielectric constant

 Exchange correlation treatment:
   GGA     =    --    GGA type
   LEXCH   =     8    internal setting for exchange type
   VOSKOWN=      0    Vosko Wilk Nusair interpolation
   LHFCALC =     F    Hartree Fock is set to
   LHFONE  =     F    Hartree Fock one center treatment
   AEXX    =    0.0000 exact exchange contribution

 Linear response parameters
   LEPSILON=     F    determine dielectric tensor
   LRPA    =     F    only Hartree local field effects (RPA)
   LNABLA  =     F    use nabla operator in PAW spheres
   LVEL    =     F    velocity operator in full k-point grid
   LINTERFAST=   F  fast interpolation
   KINTER  =     0    interpolate to denser k-point grid
   CSHIFT  =0.1000    complex shift for real part using Kramers Kronig
   OMEGAMAX=  -1.0    maximum frequency
   DEG_THRESHOLD= 0.2000000E-02 threshold for treating states as degnerate
   RTIME   =   -0.100 relaxation time in fs
  (WPLASMAI=    0.000 imaginary part of plasma frequency in eV, 0.658/RTIME)
   DFIELD  = 0.0000000 0.0000000 0.0000000 field for delta impulse in time
 
 Orbital magnetization related:
   ORBITALMAG=     F  switch on orbital magnetization
   LCHIMAG   =     F  perturbation theory with respect to B field
   DQ        =  0.001000  dq finite difference perturbation B field
   LLRAUG    =     F  two centre corrections for induced B field



--------------------------------------------------------------------------------------------------------


 conjugate gradient relaxation of ions
   using selective dynamics as specified on POSCAR
 charge density and potential will be updated during run
 non-spin polarized calculation
 RMM-DIIS sequential band-by-band and
  variant of blocked Davidson during initial phase
 perform sub-space diagonalisation
    before iterative eigenvector-optimisation
 modified Broyden-mixing scheme, WC =      100.0
 initial mixing is a Kerker type mixing with AMIX =  0.4000 and BMIX =      1.0000
 Hartree-type preconditioning will be used
 using additional bands           79
 real space projection scheme for non local part
 use partial core corrections
 calculate Harris-corrections to forces 
   (improved forces if not selfconsistent)
 use gradient corrections 
 use of overlap-Matrix (Vanderbilt PP)
 Methfessel and Paxton  Order N= 1 SIGMA  =   0.10


--------------------------------------------------------------------------------------------------------


  energy-cutoff  :      550.00
  volume of cell :     2288.62
      direct lattice vectors                 reciprocal lattice vectors
    10.960000006  0.000000000  0.000000000     0.091240876 -0.052677944  0.000000000
     5.480000030  9.491638459  0.000000000     0.000000000  0.105355888  0.000000000
     0.000000000  0.000000000 22.000000000     0.000000000  0.000000000  0.045454545

  length of vectors
    10.960000006 10.960000044 22.000000000     0.105355889  0.105355888  0.045454545


 
 k-points in units of 2pi/SCALE and weight: mesh auto                               
   0.00000000  0.00000000  0.00000000       0.250
   0.04562044 -0.02633897  0.00000000       0.250
   0.00000000  0.05267794  0.00000000       0.250
   0.04562044  0.02633897  0.00000000       0.250
 
 k-points in reciprocal lattice and weights: mesh auto                               
   0.00000000  0.00000000  0.00000000       0.250
   0.50000000  0.00000000  0.00000000       0.250
   0.00000000  0.50000000  0.00000000       0.250
   0.50000000  0.50000000  0.00000000       0.250
 
 position of ions in fractional coordinates (direct lattice) 
   0.78479924  0.86930166  0.32995047
   0.03460193  0.86964179  0.32964443
   0.03487902  0.61934736  0.32977333
   0.78712625  0.86765186  0.01757050
   0.03656860  0.86828275  0.01768104
   0.03711578  0.61779823  0.01780441
   0.61937703  0.20173626  0.12337051
   0.36932558  0.95178754  0.12339779
   0.03471590  0.36947788  0.32988885
   0.03681824  0.36766148  0.01784212
   0.86932555  0.20182459  0.12331703
   0.95210921  0.53560574  0.22665902
   0.28454322  0.11981594  0.32981896
   0.53429145  0.61949584  0.33050480
   0.28516238  0.36992049  0.33026002
   0.28721285  0.11769600  0.01776764
   0.53673156  0.61793039  0.01772424
   0.28671580  0.36806524  0.01784719
   0.61934139  0.95176790  0.12332604
   0.70203630  0.78566163  0.22653819
   0.86925911  0.70183525  0.12341632
   0.61938527  0.45180406  0.12339238
   0.28492935  0.86904192  0.33002482
   0.28696344  0.86767941  0.01772950
   0.61931520  0.70181950  0.12333580
   0.20202055  0.03578648  0.22656278
   0.86741406  0.95363508  0.43569086
   0.11711768  0.45355951  0.43562857
   0.11656550  0.95437695  0.43526489
   0.86772061  0.45353275  0.43553460
   0.36736413  0.95433763  0.43525479
   0.86730593  0.20327006  0.43546461
   0.11727290  0.20363052  0.43547440
   0.61709454  0.95366649  0.43565778
   0.86766925  0.70288458  0.43566844
   0.36767734  0.20332020  0.43552885
   0.36475072  0.70857043  0.43755543
   0.62122868  0.45195769  0.43763143
   0.11489340  0.70493404  0.43513526
   0.61844038  0.20145249  0.43523260
   0.53445976  0.37000483  0.33060205
   0.53736055  0.36754416  0.01770149
   0.53466467  0.11956170  0.32975469
   0.53685025  0.11798701  0.01763958
   0.86928508  0.45187049  0.12348232
   0.11934801  0.45178846  0.12355861
   0.03452078  0.11982351  0.32977253
   0.03704964  0.11771626  0.01763222
   0.11933606  0.95179737  0.12344715
   0.36514216  0.45207421  0.43761996
   0.45210647  0.53560424  0.22700100
   0.61846069  0.70493216  0.43502494
   0.36930342  0.20185650  0.12350703
   0.11939157  0.20170824  0.12345346
   0.95209922  0.78563898  0.22659560
   0.78470195  0.61938175  0.32969611
   0.28506420  0.61951615  0.33054333
   0.78683119  0.61803579  0.01767071
   0.28697629  0.61776354  0.01777784
   0.36922066  0.70181489  0.12348052
   0.36941860  0.45183514  0.12346855
   0.20203981  0.28563079  0.22666805
   0.78381747  0.36992835  0.33019197
   0.78700048  0.36805132  0.01760750
   0.95202708  0.03568330  0.22654598
   0.45200232  0.78556036  0.22664483
   0.70186151  0.53559703  0.22667552
   0.20223641  0.78556973  0.22671859
   0.45206940  0.03567568  0.22656664
   0.11933917  0.70187797  0.12345593
   0.70209065  0.03555964  0.22657311
   0.78468180  0.11954852  0.32971761
   0.53463251  0.86962277  0.32956710
   0.78685379  0.11787722  0.01751774
   0.53707225  0.86795273  0.01756385
   0.20233945  0.53558443  0.22674153
   0.95212423  0.28562702  0.22657020
   0.86917343  0.95188563  0.12338506
   0.70196295  0.28582173  0.22667442
   0.45206792  0.28584208  0.22674619
   0.45034794  0.54020814  0.47893594
 
 position of ions in cartesian coordinates  (Angst):
  13.36517282  8.25109705  7.25891035
   5.14487420  8.25432548  7.25217738
   3.77629766  5.87862122  7.25501315
  13.38163597  8.23543777  0.38655104
   5.15898138  8.24142595  0.38898290
   3.79232328  5.86391745  0.39169709
   7.89388690  1.91480761  2.71415123
   9.26360412  9.03402321  2.71475133
   2.40522505  3.50695046  7.25755467
   2.41831281  3.48970981  0.39252655
  10.63380686  1.91564607  2.71297457
  13.37023645  5.08377607  4.98649854
   3.77518504  1.13724958  7.25601709
   9.25067159  5.88003059  7.27110560
   5.15254401  3.51115156  7.26572040
   3.79282696  1.11712786  0.39088799
   9.26883648  5.86517187  0.38993338
   5.15940268  3.49354222  0.39263811
  12.00366976  9.03383680  2.71317294
  11.99974361  7.45721617  4.98384014
  13.37313708  6.66156643  2.71515902
   9.26434884  4.28836077  2.71463240
   7.88517537  8.24863171  7.26054613
   7.90000245  8.23569922  0.39004907
  10.63366554  6.66141700  2.71338753
   2.41025518  0.33967237  4.98438111
  14.73277838  9.05155943  9.58519883
   3.76911588  4.30502289  9.58382857
   6.50754359  9.05860100  9.57582752
  11.99557736  4.30476890  9.58176127
   9.25608113  9.05822777  9.57560528
  10.61959292  1.92936596  9.58022141
   2.40120623  1.93278725  9.58043669
  11.98944859  9.05185751  9.58447116
  13.36146246  6.67152627  9.58470574
   5.14393829  1.92984180  9.58163463
   7.88063385  6.72549431  9.62621937
   9.28539451  4.28981904  9.62789154
   5.12227019  6.69097901  9.57297570
   7.88206626  1.91211421  9.57511727
   7.88530538  3.51195204  7.27324515
   7.90361365  3.48859632  0.38943288
   6.51512298  1.13483647  7.25460310
   6.53044757  1.11989004  0.38807067
  12.00361474  4.28899128  2.71661101
   3.78385491  4.28821268  2.71828937
   1.03498064  1.13732145  7.25499566
   1.05114913  1.11732018  0.38790892
   6.52377280  9.03411651  2.71583730
   6.47932473  4.29092492  9.62763908
   7.89019815  5.08376183  4.99402198
  10.64135748  6.69096120  9.57054861
   5.15373915  1.91594889  2.71715465
   2.41389275  1.91454169  2.71597607
  14.74030908  7.45700111  4.98510314
  11.99454543  5.87894765  7.25331432
   6.51925217  5.88022335  7.27195328
  12.01050599  5.86617227  0.38875561
   6.53060439  5.86358820  0.39111241
   7.89260402  6.66137321  2.71657152
   6.52488440  4.28865576  2.71630803
   3.77961310  2.71110420  4.98669707
  10.61784682  3.51122616  7.26422344
  10.64244655  3.49341010  0.38736489
  10.62976130  0.33869297  4.98401164
   9.25881621  7.45625497  4.98618635
  10.62747388  5.08369338  4.98686147
   6.52143315  7.45634387  4.98780909
   5.15018340  0.33862069  4.98446605
   5.15424856  6.66197189  2.71603035
   7.88978034  0.33751928  4.98460850
   9.25523836  1.13471131  7.25378752
  10.62510515  8.25414490  7.25047624
   9.26988468  1.11884799  0.38539038
  10.64269286  8.23829351  0.38640475
   5.15264306  5.08357381  4.98831359
  12.00051770  2.71106845  4.98454436
  14.74247409  9.03495421  2.71447143
   9.25981707  2.71291653  4.98683715
   6.52107897  2.71310966  4.98841614
   7.89615403  5.12746036 10.53659066
 


--------------------------------------------------------------------------------------------------------


 k-point  1 :   0.0000 0.0000 0.0000  plane waves:   66973
 k-point  2 :   0.5000 0.0000 0.0000  plane waves:   67000
 k-point  3 :   0.0000 0.5000 0.0000  plane waves:   67000
 k-point  4 :   0.5000 0.5000 0.0000  plane waves:   67000

 maximum and minimum number of plane-waves per node :     16772    16723

 maximum number of plane-waves:     67000
 maximum index in each direction: 
   IXMAX=   20   IYMAX=   20   IZMAX=   42
   IXMIN=  -21   IYMIN=  -21   IZMIN=  -42


 real space projection operators:
  total allocation   :      78573.38 KBytes
  max/ min on nodes  :      19649.24      19640.20


 parallel 3D FFT for wavefunctions:
    minimum data exchange during FFTs selected (reduces bandwidth)
 parallel 3D FFT for charge:
    minimum data exchange during FFTs selected (reduces bandwidth)


 total amount of memory used by VASP MPI-rank0   162845. kBytes
=======================================================================

   base      :      30000. kBytes
   nonlr-proj:      34104. kBytes
   fftplans  :      17977. kBytes
   grid      :      27754. kBytes
   one-center:        326. kBytes
   wavefun   :      52684. kBytes
 
     INWAV:  cpu time    0.0000: real time    0.0000
 Broyden mixing: mesh for mixing (old mesh)
   NGX = 41   NGY = 41   NGZ = 85
  (NGX  =168   NGY  =168   NGZ  =336)
  gives a total of 142885 points

 initial charge density was supplied:
 charge density of overlapping atoms calculated
 number of electron     801.0000000 magnetization 
 keeping initial charge density in first step


--------------------------------------------------------------------------------------------------------


 Maximum index for non-local projection operator         1764
 Maximum index for augmentation-charges         1992 (set IRDMAX)


--------------------------------------------------------------------------------------------------------


 First call to EWALD:  gamma=   0.134
 Maximum number of real-space cells 4x 4x 2
 Maximum number of reciprocal cells 2x 2x 4

    FEWALD:  cpu time    0.0039: real time    0.0039


--------------------------------------- Iteration      1(   1)  ---------------------------------------


    POTLOK:  cpu time    0.1863: real time    0.1894
    SETDIJ:  cpu time    0.0169: real time    0.0174
     EDDAV:  cpu time   27.8078: real time   27.8985
       DOS:  cpu time    0.0011: real time    0.0011
    --------------------------------------------
      LOOP:  cpu time   28.0122: real time   28.1064

 eigenvalue-minimisations  :  3840
 total energy-change (2. order) : 0.5673200E+04  (-0.3941946E+05)
 number of electron     801.0000000 magnetization 
 augmentation part      801.0000000 magnetization 

 Free energy of the ion-electron system (eV)
  ---------------------------------------------------
  alpha Z        PSCENC =      2662.42313081
  Ewald energy   TEWEN  =    176388.04522772
  -Hartree energ DENC   =   -240840.23397886
  -exchange      EXHF   =         0.00000000
  -V(xc)+E(xc)   XCENC  =       290.91457710
  PAW double counting   =     55692.01686169   -53429.36650374
  entropy T*S    EENTRO =         0.00629803
  eigenvalues    EBANDS =      6567.66301218
  atomic energy  EATOM  =     58341.73154849
  Solvation  Ediel_sol  =         0.00000000
  ---------------------------------------------------
  free energy    TOTEN  =      5673.20017342 eV

  energy without entropy =     5673.19387540  energy(sigma->0) =     5673.19807408


--------------------------------------------------------------------------------------------------------




--------------------------------------- Iteration      1(   2)  ---------------------------------------


     EDDAV:  cpu time   30.1969: real time   30.2807
       DOS:  cpu time    0.0011: real time    0.0011
    --------------------------------------------
      LOOP:  cpu time   30.1980: real time   30.2818

 eigenvalue-minimisations  :  4260
 total energy-change (2. order) :-0.5816505E+04  (-0.5405717E+04)
 number of electron     801.0000000 magnetization 
 augmentation part      801.0000000 magnetization 

 Free energy of the ion-electron system (eV)
  ---------------------------------------------------
  alpha Z        PSCENC =      2662.42313081
  Ewald energy   TEWEN  =    176388.04522772
  -Hartree energ DENC   =   -240840.23397886
  -exchange      EXHF   =         0.00000000
  -V(xc)+E(xc)   XCENC  =       290.91457710
  PAW double counting   =     55692.01686169   -53429.36650374
  entropy T*S    EENTRO =        -0.00182398
  eigenvalues    EBANDS =       751.16571594
  atomic energy  EATOM  =     58341.73154849
  Solvation  Ediel_sol  =         0.00000000
  ---------------------------------------------------
  free energy    TOTEN  =      -143.30524483 eV

  energy without entropy =     -143.30342085  energy(sigma->0) =     -143.30463683


--------------------------------------------------------------------------------------------------------




--------------------------------------- Iteration      1(   3)  ---------------------------------------


     EDDAV:  cpu time   32.1079: real time   32.1841
       DOS:  cpu time    0.0012: real time    0.0012
    --------------------------------------------
      LOOP:  cpu time   32.1091: real time   32.1853

 eigenvalue-minimisations  :  4630
 total energy-change (2. order) :-0.3423853E+03  (-0.3080705E+03)
 number of electron     801.0000000 magnetization 
 augmentation part      801.0000000 magnetization 

 Free energy of the ion-electron system (eV)
  ---------------------------------------------------
  alpha Z        PSCENC =      2662.42313081
  Ewald energy   TEWEN  =    176388.04522772
  -Hartree energ DENC   =   -240840.23397886
  -exchange      EXHF   =         0.00000000
  -V(xc)+E(xc)   XCENC  =       290.91457710
  PAW double counting   =     55692.01686169   -53429.36650374
  entropy T*S    EENTRO =        -0.09323294
  eigenvalues    EBANDS =       408.87185792
  atomic energy  EATOM  =     58341.73154849
  Solvation  Ediel_sol  =         0.00000000
  ---------------------------------------------------
  free energy    TOTEN  =      -485.69051180 eV

  energy without entropy =     -485.59727887  energy(sigma->0) =     -485.65943416


--------------------------------------------------------------------------------------------------------




--------------------------------------- Iteration      1(   4)  ---------------------------------------


     EDDAV:  cpu time   32.9010: real time   32.9791
       DOS:  cpu time    0.0011: real time    0.0011
    --------------------------------------------
      LOOP:  cpu time   32.9021: real time   32.9802

 eigenvalue-minimisations  :  4750
 total energy-change (2. order) :-0.1557247E+02  (-0.1480834E+02)
 number of electron     801.0000000 magnetization 
 augmentation part      801.0000000 magnetization 

 Free energy of the ion-electron system (eV)
  ---------------------------------------------------
  alpha Z        PSCENC =      2662.42313081
  Ewald energy   TEWEN  =    176388.04522772
  -Hartree energ DENC   =   -240840.23397886
  -exchange      EXHF   =         0.00000000
  -V(xc)+E(xc)   XCENC  =       290.91457710
  PAW double counting   =     55692.01686169   -53429.36650374
  entropy T*S    EENTRO =        -0.13284411
  eigenvalues    EBANDS =       393.33899711
  atomic energy  EATOM  =     58341.73154849
  Solvation  Ediel_sol  =         0.00000000
  ---------------------------------------------------
  free energy    TOTEN  =      -501.26298379 eV

  energy without entropy =     -501.13013968  energy(sigma->0) =     -501.21870242


--------------------------------------------------------------------------------------------------------




--------------------------------------- Iteration      1(   5)  ---------------------------------------


     EDDAV:  cpu time   32.8071: real time   32.8851
       DOS:  cpu time    0.0011: real time    0.0011
    CHARGE:  cpu time    2.1837: real time    2.1890
    MIXING:  cpu time    0.0067: real time    0.0073
    --------------------------------------------
      LOOP:  cpu time   34.9987: real time   35.0826

 eigenvalue-minimisations  :  4760
 total energy-change (2. order) :-0.4397258E+00  (-0.4380681E+00)
 number of electron     801.0000083 magnetization 
 augmentation part      232.0286191 magnetization 

 Broyden mixing:
  rms(total) = 0.10658E+02    rms(broyden)= 0.10658E+02
  rms(prec ) = 0.10804E+02
  weight for this iteration     100.00

 Free energy of the ion-electron system (eV)
  ---------------------------------------------------
  alpha Z        PSCENC =      2662.42313081
  Ewald energy   TEWEN  =    176388.04522772
  -Hartree energ DENC   =   -240840.23397886
  -exchange      EXHF   =         0.00000000
  -V(xc)+E(xc)   XCENC  =       290.91457710
  PAW double counting   =     55692.01686169   -53429.36650374
  entropy T*S    EENTRO =        -0.13348721
  eigenvalues    EBANDS =       392.89991439
  atomic energy  EATOM  =     58341.73154849
  Solvation  Ediel_sol  =         0.00000000
  ---------------------------------------------------
  free energy    TOTEN  =      -501.70270961 eV

  energy without entropy =     -501.56922240  energy(sigma->0) =     -501.65821387


--------------------------------------------------------------------------------------------------------




--------------------------------------- Iteration      1(   6)  ---------------------------------------


    POTLOK:  cpu time    0.1740: real time    0.1744
    SETDIJ:  cpu time    0.0152: real time    0.0153
    EDDIAG:  cpu time    4.8485: real time    4.8601
  RMM-DIIS:  cpu time   16.8048: real time   16.8567
    ORTHCH:  cpu time    0.4766: real time    0.4779
       DOS:  cpu time    0.0011: real time    0.0011
    CHARGE:  cpu time    2.1524: real time    2.1587
    MIXING:  cpu time    0.0076: real time    0.0079
    --------------------------------------------
      LOOP:  cpu time   24.4802: real time   24.5520

 eigenvalue-minimisations  :  3861
 total energy-change (2. order) :-0.1710797E+01  (-0.8622339E+01)
 number of electron     801.0000092 magnetization 
 augmentation part      245.3343970 magnetization 

 Broyden mixing:
  rms(total) = 0.87288E+01    rms(broyden)= 0.87288E+01
  rms(prec ) = 0.98089E+01
  weight for this iteration     100.00

 eigenvalues of (default mixing * dielectric matrix)
  average eigenvalue GAMMA=   1.0233
  1.0233

 Free energy of the ion-electron system (eV)
  ---------------------------------------------------
  alpha Z        PSCENC =      2662.42313081
  Ewald energy   TEWEN  =    176388.04522772
  -Hartree energ DENC   =   -239758.32259734
  -exchange      EXHF   =         0.00000000
  -V(xc)+E(xc)   XCENC  =       270.58583595
  PAW double counting   =     62624.54823088   -60490.04508359
  entropy T*S    EENTRO =        -0.18930365
  eigenvalues    EBANDS =      -542.19049601
  atomic energy  EATOM  =     58341.73154849
  Solvation  Ediel_sol  =         0.00000000
  ---------------------------------------------------
  free energy    TOTEN  =      -503.41350674 eV

  energy without entropy =     -503.22420309  energy(sigma->0) =     -503.35040552


--------------------------------------------------------------------------------------------------------




--------------------------------------- Iteration      1(   7)  ---------------------------------------


    POTLOK:  cpu time    0.1669: real time    0.1672
    SETDIJ:  cpu time    0.0154: real time    0.0155
    EDDIAG:  cpu time    4.8490: real time    4.8633
  RMM-DIIS:  cpu time   16.5248: real time   16.5733
    ORTHCH:  cpu time    0.4788: real time    0.4801
       DOS:  cpu time    0.0011: real time    0.0011
    CHARGE:  cpu time    2.2299: real time    2.2365
    MIXING:  cpu time    0.0067: real time    0.0067
    --------------------------------------------
      LOOP:  cpu time   24.2725: real time   24.3437

 eigenvalue-minimisations  :  3858
 total energy-change (2. order) :-0.1026998E+03  (-0.1929028E+02)
 number of electron     801.0000087 magnetization 
 augmentation part      240.0465452 magnetization 

 Broyden mixing:
  rms(total) = 0.96727E+01    rms(broyden)= 0.96727E+01
  rms(prec ) = 0.12486E+02
  weight for this iteration     100.00

 eigenvalues of (default mixing * dielectric matrix)
  average eigenvalue GAMMA=   1.2107
  2.2049  0.2165

 Free energy of the ion-electron system (eV)
  ---------------------------------------------------
  alpha Z        PSCENC =      2662.42313081
  Ewald energy   TEWEN  =    176388.04522772
  -Hartree energ DENC   =   -240759.40035437
  -exchange      EXHF   =         0.00000000
  -V(xc)+E(xc)   XCENC  =       266.60561063
  PAW double counting   =     65803.86182084   -63703.39963508
  entropy T*S    EENTRO =         0.03517742
  eigenvalues    EBANDS =       393.98413908
  atomic energy  EATOM  =     58341.73154849
  Solvation  Ediel_sol  =         0.00000000
  ---------------------------------------------------
  free energy    TOTEN  =      -606.11333446 eV

  energy without entropy =     -606.14851188  energy(sigma->0) =     -606.12506027


--------------------------------------------------------------------------------------------------------




--------------------------------------- Iteration      1(   8)  ---------------------------------------


    POTLOK:  cpu time    0.1685: real time    0.1689
    SETDIJ:  cpu time    0.0153: real time    0.0154
    EDDIAG:  cpu time    4.8476: real time    4.8621
  RMM-DIIS:  cpu time   16.6137: real time   16.6640
    ORTHCH:  cpu time    0.4752: real time    0.4767
       DOS:  cpu time    0.0011: real time    0.0011
    CHARGE:  cpu time    2.1979: real time    2.2042
    MIXING:  cpu time    0.0063: real time    0.0064
    --------------------------------------------
      LOOP:  cpu time   24.3257: real time   24.3987

 eigenvalue-minimisations  :  3853
 total energy-change (2. order) : 0.4676492E+01  (-0.8300128E+01)
 number of electron     801.0000089 magnetization 
 augmentation part      247.4718197 magnetization 

 Broyden mixing:
  rms(total) = 0.84777E+01    rms(broyden)= 0.84777E+01
  rms(prec ) = 0.12367E+02
  weight for this iteration     100.00

 eigenvalues of (default mixing * dielectric matrix)
  average eigenvalue GAMMA=   0.9375
  2.3454  0.2336  0.2336

 Free energy of the ion-electron system (eV)
  ---------------------------------------------------
  alpha Z        PSCENC =      2662.42313081
  Ewald energy   TEWEN  =    176388.04522772
  -Hartree energ DENC   =   -240156.04862726
  -exchange      EXHF   =         0.00000000
  -V(xc)+E(xc)   XCENC  =       258.75502541
  PAW double counting   =     72853.05842475   -70840.37542970
  entropy T*S    EENTRO =         0.01185453
  eigenvalues    EBANDS =      -109.03799731
  atomic energy  EATOM  =     58341.73154849
  Solvation  Ediel_sol  =         0.00000000
  ---------------------------------------------------
  free energy    TOTEN  =      -601.43684254 eV

  energy without entropy =     -601.44869707  energy(sigma->0) =     -601.44079405


--------------------------------------------------------------------------------------------------------




--------------------------------------- Iteration      1(   9)  ---------------------------------------


    POTLOK:  cpu time    0.1687: real time    0.1692
    SETDIJ:  cpu time    0.0153: real time    0.0153
    EDDIAG:  cpu time    4.8450: real time    4.8592
  RMM-DIIS:  cpu time   16.4986: real time   16.5470
    ORTHCH:  cpu time    0.4793: real time    0.4806
       DOS:  cpu time    0.0012: real time    0.0012
    CHARGE:  cpu time    2.1682: real time    2.1744
    MIXING:  cpu time    0.0069: real time    0.0069
    --------------------------------------------
      LOOP:  cpu time   24.1832: real time   24.2539

 eigenvalue-minimisations  :  3846
 total energy-change (2. order) : 0.8554062E+02  (-0.6008982E+01)
 number of electron     801.0000092 magnetization 
 augmentation part      248.2265168 magnetization 

 Broyden mixing:
  rms(total) = 0.50359E+01    rms(broyden)= 0.50359E+01
  rms(prec ) = 0.84117E+01
  weight for this iteration     100.00

 eigenvalues of (default mixing * dielectric matrix)
  average eigenvalue GAMMA=   0.8227
  2.2704  0.6349  0.2500  0.1354

 Free energy of the ion-electron system (eV)
  ---------------------------------------------------
  alpha Z        PSCENC =      2662.42313081
  Ewald energy   TEWEN  =    176388.04522772
  -Hartree energ DENC   =   -239932.89491050
  -exchange      EXHF   =         0.00000000
  -V(xc)+E(xc)   XCENC  =       258.42031763
  PAW double counting   =     73981.96986170   -71981.02707196
  entropy T*S    EENTRO =        -0.20165911
  eigenvalues    EBANDS =      -234.36267102
  atomic energy  EATOM  =     58341.73154849
  Solvation  Ediel_sol  =         0.00000000
  ---------------------------------------------------
  free energy    TOTEN  =      -515.89622623 eV

  energy without entropy =     -515.69456712  energy(sigma->0) =     -515.82900653


--------------------------------------------------------------------------------------------------------




--------------------------------------- Iteration      1(  10)  ---------------------------------------


    POTLOK:  cpu time    0.1687: real time    0.1691
    SETDIJ:  cpu time    0.0153: real time    0.0154
    EDDIAG:  cpu time    4.8558: real time    4.8673
  RMM-DIIS:  cpu time   16.6338: real time   16.6732
    ORTHCH:  cpu time    0.4778: real time    0.4789
       DOS:  cpu time    0.0015: real time    0.0015
    CHARGE:  cpu time    2.2205: real time    2.2258
    MIXING:  cpu time    0.0061: real time    0.0061
    --------------------------------------------
      LOOP:  cpu time   24.3795: real time   24.4372

 eigenvalue-minimisations  :  3862
 total energy-change (2. order) : 0.1508878E+02  (-0.4164066E+01)
 number of electron     801.0000089 magnetization 
 augmentation part      248.0368185 magnetization 

 Broyden mixing:
  rms(total) = 0.49060E+01    rms(broyden)= 0.49060E+01
  rms(prec ) = 0.65255E+01
  weight for this iteration     100.00

 eigenvalues of (default mixing * dielectric matrix)
  average eigenvalue GAMMA=   0.7521
  2.1782  0.9959  0.2672  0.2125  0.1066

 Free energy of the ion-electron system (eV)
  ---------------------------------------------------
  alpha Z        PSCENC =      2662.42313081
  Ewald energy   TEWEN  =    176388.04522772
  -Hartree energ DENC   =   -239958.55329741
  -exchange      EXHF   =         0.00000000
  -V(xc)+E(xc)   XCENC  =       259.63424233
  PAW double counting   =     74054.65825687   -72051.33692170
  entropy T*S    EENTRO =        -0.01661758
  eigenvalues    EBANDS =      -197.39301599
  atomic energy  EATOM  =     58341.73154849
  Solvation  Ediel_sol  =         0.00000000
  ---------------------------------------------------
  free energy    TOTEN  =      -500.80744646 eV

  energy without entropy =     -500.79082889  energy(sigma->0) =     -500.80190727


--------------------------------------------------------------------------------------------------------




--------------------------------------- Iteration      1(  11)  ---------------------------------------


    POTLOK:  cpu time    0.1705: real time    0.1709
    SETDIJ:  cpu time    0.0150: real time    0.0151
    EDDIAG:  cpu time    4.8740: real time    4.8856
  RMM-DIIS:  cpu time   16.6673: real time   16.7068
    ORTHCH:  cpu time    0.4806: real time    0.4818
       DOS:  cpu time    0.0012: real time    0.0012
    CHARGE:  cpu time    2.1568: real time    2.1619
    MIXING:  cpu time    0.0075: real time    0.0075
    --------------------------------------------
      LOOP:  cpu time   24.3730: real time   24.4307

 eigenvalue-minimisations  :  3860
 total energy-change (2. order) : 0.2583031E+02  (-0.1175590E+01)
 number of electron     801.0000089 magnetization 
 augmentation part      248.2105385 magnetization 

 Broyden mixing:
  rms(total) = 0.24323E+01    rms(broyden)= 0.24323E+01
  rms(prec ) = 0.33868E+01
  weight for this iteration     100.00

 eigenvalues of (default mixing * dielectric matrix)
  average eigenvalue GAMMA=   0.6787
  2.0877  1.0240  0.3106  0.3106  0.2258  0.1134

 Free energy of the ion-electron system (eV)
  ---------------------------------------------------
  alpha Z        PSCENC =      2662.42313081
  Ewald energy   TEWEN  =    176388.04522772
  -Hartree energ DENC   =   -239914.14520451
  -exchange      EXHF   =         0.00000000
  -V(xc)+E(xc)   XCENC  =       261.18615839
  PAW double counting   =     73902.93370504   -71893.60890226
  entropy T*S    EENTRO =         0.01080979
  eigenvalues    EBANDS =      -223.55361203
  atomic energy  EATOM  =     58341.73154849
  Solvation  Ediel_sol  =         0.00000000
  ---------------------------------------------------
  free energy    TOTEN  =      -474.97713856 eV

  energy without entropy =     -474.98794835  energy(sigma->0) =     -474.98074182


--------------------------------------------------------------------------------------------------------




--------------------------------------- Iteration      1(  12)  ---------------------------------------


    POTLOK:  cpu time    0.1703: real time    0.1707
    SETDIJ:  cpu time    0.0152: real time    0.0152
    EDDIAG:  cpu time    4.8578: real time    4.8693
  RMM-DIIS:  cpu time   16.6488: real time   16.6882
    ORTHCH:  cpu time    0.4832: real time    0.4843
       DOS:  cpu time    0.0011: real time    0.0012
    CHARGE:  cpu time    2.1642: real time    2.1694
    MIXING:  cpu time    0.0072: real time    0.0072
    --------------------------------------------
      LOOP:  cpu time   24.3478: real time   24.4055

 eigenvalue-minimisations  :  3860
 total energy-change (2. order) : 0.2760630E+01  (-0.4098657E+00)
 number of electron     801.0000088 magnetization 
 augmentation part      248.0818196 magnetization 

 Broyden mixing:
  rms(total) = 0.16452E+01    rms(broyden)= 0.16452E+01
  rms(prec ) = 0.19712E+01
  weight for this iteration     100.00

 eigenvalues of (default mixing * dielectric matrix)
  average eigenvalue GAMMA=   0.6369
  2.0332  0.7930  0.7930  0.1124  0.2862  0.2468  0.1940

 Free energy of the ion-electron system (eV)
  ---------------------------------------------------
  alpha Z        PSCENC =      2662.42313081
  Ewald energy   TEWEN  =    176388.04522772
  -Hartree energ DENC   =   -239914.41256828
  -exchange      EXHF   =         0.00000000
  -V(xc)+E(xc)   XCENC  =       261.68345342
  PAW double counting   =     73705.60247426   -71693.14777022
  entropy T*S    EENTRO =        -0.09788745
  eigenvalues    EBANDS =      -224.04411702
  atomic energy  EATOM  =     58341.73154849
  Solvation  Ediel_sol  =         0.00000000
  ---------------------------------------------------
  free energy    TOTEN  =      -472.21650828 eV

  energy without entropy =     -472.11862082  energy(sigma->0) =     -472.18387913


--------------------------------------------------------------------------------------------------------




--------------------------------------- Iteration      1(  13)  ---------------------------------------


    POTLOK:  cpu time    0.1724: real time    0.1729
    SETDIJ:  cpu time    0.0150: real time    0.0151
    EDDIAG:  cpu time    4.8547: real time    4.8662
  RMM-DIIS:  cpu time   16.6083: real time   16.6477
    ORTHCH:  cpu time    0.4840: real time    0.4851
       DOS:  cpu time    0.0012: real time    0.0012
    CHARGE:  cpu time    2.1602: real time    2.1653
    MIXING:  cpu time    0.0080: real time    0.0080
    --------------------------------------------
      LOOP:  cpu time   24.3040: real time   24.3615

 eigenvalue-minimisations  :  3862
 total energy-change (2. order) : 0.1042358E+01  (-0.1162292E+00)
 number of electron     801.0000088 magnetization 
 augmentation part      248.0279849 magnetization 

 Broyden mixing:
  rms(total) = 0.11170E+01    rms(broyden)= 0.11170E+01
  rms(prec ) = 0.13514E+01
  weight for this iteration     100.00

 eigenvalues of (default mixing * dielectric matrix)
  average eigenvalue GAMMA=   0.5997
  2.0125  0.8819  0.8819  0.2765  0.1126  0.2188  0.2068  0.2068

 Free energy of the ion-electron system (eV)
  ---------------------------------------------------
  alpha Z        PSCENC =      2662.42313081
  Ewald energy   TEWEN  =    176388.04522772
  -Hartree energ DENC   =   -239925.22555222
  -exchange      EXHF   =         0.00000000
  -V(xc)+E(xc)   XCENC  =       261.97453255
  PAW double counting   =     73583.09608286   -71568.30262122
  entropy T*S    EENTRO =        -0.16011426
  eigenvalues    EBANDS =      -214.75638527
  atomic energy  EATOM  =     58341.73154849
  Solvation  Ediel_sol  =         0.00000000
  ---------------------------------------------------
  free energy    TOTEN  =      -471.17415054 eV

  energy without entropy =     -471.01403627  energy(sigma->0) =     -471.12077912


--------------------------------------------------------------------------------------------------------




--------------------------------------- Iteration      1(  14)  ---------------------------------------


    POTLOK:  cpu time    0.1720: real time    0.1724
    SETDIJ:  cpu time    0.0151: real time    0.0151
    EDDIAG:  cpu time    4.8531: real time    4.8646
  RMM-DIIS:  cpu time   16.7278: real time   16.7674
    ORTHCH:  cpu time    0.4856: real time    0.4868
       DOS:  cpu time    0.0011: real time    0.0011
    CHARGE:  cpu time    2.1644: real time    2.1695
    MIXING:  cpu time    0.0088: real time    0.0088
    --------------------------------------------
      LOOP:  cpu time   24.4278: real time   24.4856

 eigenvalue-minimisations  :  3869
 total energy-change (2. order) : 0.6279967E+00  (-0.4280033E-01)
 number of electron     801.0000088 magnetization 
 augmentation part      248.0090944 magnetization 

 Broyden mixing:
  rms(total) = 0.73142E+00    rms(broyden)= 0.73141E+00
  rms(prec ) = 0.82298E+00
  weight for this iteration     100.00

 eigenvalues of (default mixing * dielectric matrix)
  average eigenvalue GAMMA=   0.6098
  2.0002  0.9986  0.9986  0.4436  0.2875  0.2875  0.2060  0.1122  0.1542

 Free energy of the ion-electron system (eV)
  ---------------------------------------------------
  alpha Z        PSCENC =      2662.42313081
  Ewald energy   TEWEN  =    176388.04522772
  -Hartree energ DENC   =   -239927.12333415
  -exchange      EXHF   =         0.00000000
  -V(xc)+E(xc)   XCENC  =       262.10905284
  PAW double counting   =     73542.79269953   -71526.99448844
  entropy T*S    EENTRO =        -0.16927649
  eigenvalues    EBANDS =      -213.36071412
  atomic energy  EATOM  =     58341.73154849
  Solvation  Ediel_sol  =         0.00000000
  ---------------------------------------------------
  free energy    TOTEN  =      -470.54615382 eV

  energy without entropy =     -470.37687733  energy(sigma->0) =     -470.48972832


--------------------------------------------------------------------------------------------------------




--------------------------------------- Iteration      1(  15)  ---------------------------------------


    POTLOK:  cpu time    0.1726: real time    0.1730
    SETDIJ:  cpu time    0.0152: real time    0.0152
    EDDIAG:  cpu time    4.8565: real time    4.8680
  RMM-DIIS:  cpu time   16.7169: real time   16.7564
    ORTHCH:  cpu time    0.4835: real time    0.4847
       DOS:  cpu time    0.0011: real time    0.0011
    CHARGE:  cpu time    2.1583: real time    2.1634
    MIXING:  cpu time    0.0082: real time    0.0082
    --------------------------------------------
      LOOP:  cpu time   24.4123: real time   24.4701

 eigenvalue-minimisations  :  3864
 total energy-change (2. order) : 0.1834127E+00  (-0.3537682E-01)
 number of electron     801.0000089 magnetization 
 augmentation part      247.9854424 magnetization 

 Broyden mixing:
  rms(total) = 0.59577E+00    rms(broyden)= 0.59577E+00
  rms(prec ) = 0.67405E+00
  weight for this iteration     100.00

 eigenvalues of (default mixing * dielectric matrix)
  average eigenvalue GAMMA=   0.6438
  1.9885  1.2502  1.2502  0.6756  0.2672  0.2672  0.2614  0.2215  0.1124  0.1439

 Free energy of the ion-electron system (eV)
  ---------------------------------------------------
  alpha Z        PSCENC =      2662.42313081
  Ewald energy   TEWEN  =    176388.04522772
  -Hartree energ DENC   =   -239933.37831327
  -exchange      EXHF   =         0.00000000
  -V(xc)+E(xc)   XCENC  =       262.26415845
  PAW double counting   =     73514.16976967   -71497.38924452
  entropy T*S    EENTRO =        -0.19080613
  eigenvalues    EBANDS =      -208.03821232
  atomic energy  EATOM  =     58341.73154849
  Solvation  Ediel_sol  =         0.00000000
  ---------------------------------------------------
  free energy    TOTEN  =      -470.36274109 eV

  energy without entropy =     -470.17193496  energy(sigma->0) =     -470.29913905


--------------------------------------------------------------------------------------------------------




--------------------------------------- Iteration      1(  16)  ---------------------------------------


    POTLOK:  cpu time    0.1733: real time    0.1737
    SETDIJ:  cpu time    0.0151: real time    0.0152
    EDDIAG:  cpu time    4.9370: real time    4.9487
  RMM-DIIS:  cpu time   16.7043: real time   16.7438
    ORTHCH:  cpu time    0.4818: real time    0.4829
       DOS:  cpu time    0.0012: real time    0.0012
    CHARGE:  cpu time    2.1603: real time    2.1654
    MIXING:  cpu time    0.0080: real time    0.0080
    --------------------------------------------
      LOOP:  cpu time   24.4809: real time   24.5389

 eigenvalue-minimisations  :  3865
 total energy-change (2. order) : 0.2800022E-01  (-0.3810898E-01)
 number of electron     801.0000089 magnetization 
 augmentation part      247.9392801 magnetization 

 Broyden mixing:
  rms(total) = 0.66708E+00    rms(broyden)= 0.66708E+00
  rms(prec ) = 0.88534E+00
  weight for this iteration     100.00

 eigenvalues of (default mixing * dielectric matrix)
  average eigenvalue GAMMA=   0.6669
  2.0124  1.4371  1.4371  0.8548  0.3153  0.3153  0.3070  0.2209  0.1123  0.1803
  0.1433

 Free energy of the ion-electron system (eV)
  ---------------------------------------------------
  alpha Z        PSCENC =      2662.42313081
  Ewald energy   TEWEN  =    176388.04522772
  -Hartree energ DENC   =   -239939.38332943
  -exchange      EXHF   =         0.00000000
  -V(xc)+E(xc)   XCENC  =       262.46327288
  PAW double counting   =     73501.24367722   -71483.44853084
  entropy T*S    EENTRO =        -0.21790933
  eigenvalues    EBANDS =      -203.19182839
  atomic energy  EATOM  =     58341.73154849
  Solvation  Ediel_sol  =         0.00000000
  ---------------------------------------------------
  free energy    TOTEN  =      -470.33474087 eV

  energy without entropy =     -470.11683154  energy(sigma->0) =     -470.26210443


--------------------------------------------------------------------------------------------------------




--------------------------------------- Iteration      1(  17)  ---------------------------------------


    POTLOK:  cpu time    0.1745: real time    0.1749
    SETDIJ:  cpu time    0.0152: real time    0.0152
    EDDIAG:  cpu time    4.8549: real time    4.8665
  RMM-DIIS:  cpu time   16.6761: real time   16.7156
    ORTHCH:  cpu time    0.4812: real time    0.4823
       DOS:  cpu time    0.0012: real time    0.0012
    CHARGE:  cpu time    2.1605: real time    2.1657
    MIXING:  cpu time    0.0089: real time    0.0089
    --------------------------------------------
      LOOP:  cpu time   24.3725: real time   24.4304

 eigenvalue-minimisations  :  3863
 total energy-change (2. order) : 0.2036867E-01  (-0.1588838E-01)
 number of electron     801.0000089 magnetization 
 augmentation part      247.8827638 magnetization 

 Broyden mixing:
  rms(total) = 0.64411E+00    rms(broyden)= 0.64411E+00
  rms(prec ) = 0.90807E+00
  weight for this iteration     100.00

 eigenvalues of (default mixing * dielectric matrix)
  average eigenvalue GAMMA=   0.6628
  2.0433  1.5368  1.5368  0.8831  0.3850  0.3850  0.2591  0.2591  0.2054  0.2054
  0.1123  0.1426

 Free energy of the ion-electron system (eV)
  ---------------------------------------------------
  alpha Z        PSCENC =      2662.42313081
  Ewald energy   TEWEN  =    176388.04522772
  -Hartree energ DENC   =   -239948.09850060
  -exchange      EXHF   =         0.00000000
  -V(xc)+E(xc)   XCENC  =       262.67042647
  PAW double counting   =     73523.68055841   -71505.14924244
  entropy T*S    EENTRO =        -0.20884027
  eigenvalues    EBANDS =      -195.40868079
  atomic energy  EATOM  =     58341.73154849
  Solvation  Ediel_sol  =         0.00000000
  ---------------------------------------------------
  free energy    TOTEN  =      -470.31437221 eV

  energy without entropy =     -470.10553194  energy(sigma->0) =     -470.24475879


--------------------------------------------------------------------------------------------------------




--------------------------------------- Iteration      1(  18)  ---------------------------------------


    POTLOK:  cpu time    0.1754: real time    0.1758
    SETDIJ:  cpu time    0.0156: real time    0.0157
    EDDIAG:  cpu time    4.8536: real time    4.8651
  RMM-DIIS:  cpu time   16.6624: real time   16.7063
    ORTHCH:  cpu time    0.4804: real time    0.4815
       DOS:  cpu time    0.0012: real time    0.0012
    CHARGE:  cpu time    2.1550: real time    2.1615
    MIXING:  cpu time    0.0090: real time    0.0090
    --------------------------------------------
      LOOP:  cpu time   24.3527: real time   24.4162

 eigenvalue-minimisations  :  3865
 total energy-change (2. order) : 0.1368848E+00  (-0.1212511E-01)
 number of electron     801.0000089 magnetization 
 augmentation part      247.8438387 magnetization 

 Broyden mixing:
  rms(total) = 0.38739E+00    rms(broyden)= 0.38739E+00
  rms(prec ) = 0.46370E+00
  weight for this iteration     100.00

 eigenvalues of (default mixing * dielectric matrix)
  average eigenvalue GAMMA=   0.6559
  2.0924  1.5784  1.5784  0.7013  0.7013  0.4522  0.2894  0.2894  0.2146  0.2146
  0.1123  0.1425  0.1603

 Free energy of the ion-electron system (eV)
  ---------------------------------------------------
  alpha Z        PSCENC =      2662.42313081
  Ewald energy   TEWEN  =    176388.04522772
  -Hartree energ DENC   =   -239957.35629279
  -exchange      EXHF   =         0.00000000
  -V(xc)+E(xc)   XCENC  =       262.81100588
  PAW double counting   =     73547.12935922   -71528.17436033
  entropy T*S    EENTRO =        -0.21325354
  eigenvalues    EBANDS =      -186.57385291
  atomic energy  EATOM  =     58341.73154849
  Solvation  Ediel_sol  =         0.00000000
  ---------------------------------------------------
  free energy    TOTEN  =      -470.17748745 eV

  energy without entropy =     -469.96423391  energy(sigma->0) =     -470.10640294


--------------------------------------------------------------------------------------------------------




--------------------------------------- Iteration      1(  19)  ---------------------------------------


    POTLOK:  cpu time    0.1745: real time    0.1749
    SETDIJ:  cpu time    0.0152: real time    0.0153
    EDDIAG:  cpu time    4.8529: real time    4.8672
  RMM-DIIS:  cpu time   16.6543: real time   16.7032
    ORTHCH:  cpu time    0.4790: real time    0.4807
       DOS:  cpu time    0.0014: real time    0.0014
    CHARGE:  cpu time    2.1611: real time    2.1674
    MIXING:  cpu time    0.0097: real time    0.0097
    --------------------------------------------
      LOOP:  cpu time   24.3481: real time   24.4197

 eigenvalue-minimisations  :  3860
 total energy-change (2. order) : 0.2398391E-02  (-0.8031795E-02)
 number of electron     801.0000089 magnetization 
 augmentation part      247.7931479 magnetization 

 Broyden mixing:
  rms(total) = 0.34350E+00    rms(broyden)= 0.34350E+00
  rms(prec ) = 0.45137E+00
  weight for this iteration     100.00

 eigenvalues of (default mixing * dielectric matrix)
  average eigenvalue GAMMA=   0.6548
  2.1709  1.5763  1.5763  0.8791  0.8791  0.4319  0.2982  0.2982  0.2622  0.2132
  0.1123  0.1804  0.1409  0.1479

 Free energy of the ion-electron system (eV)
  ---------------------------------------------------
  alpha Z        PSCENC =      2662.42313081
  Ewald energy   TEWEN  =    176388.04522772
  -Hartree energ DENC   =   -239965.42520648
  -exchange      EXHF   =         0.00000000
  -V(xc)+E(xc)   XCENC  =       262.91590388
  PAW double counting   =     73568.93208774   -71549.68466938
  entropy T*S    EENTRO =        -0.21737092
  eigenvalues    EBANDS =      -178.89574092
  atomic energy  EATOM  =     58341.73154849
  Solvation  Ediel_sol  =         0.00000000
  ---------------------------------------------------
  free energy    TOTEN  =      -470.17508906 eV

  energy without entropy =     -469.95771814  energy(sigma->0) =     -470.10263208


--------------------------------------------------------------------------------------------------------




--------------------------------------- Iteration      1(  20)  ---------------------------------------


    POTLOK:  cpu time    0.1748: real time    0.1753
    SETDIJ:  cpu time    0.0152: real time    0.0152
    EDDIAG:  cpu time    4.8509: real time    4.8653
  RMM-DIIS:  cpu time   16.6954: real time   16.7437
    ORTHCH:  cpu time    0.4794: real time    0.4808
       DOS:  cpu time    0.0012: real time    0.0012
    CHARGE:  cpu time    2.1681: real time    2.1745
    MIXING:  cpu time    0.0093: real time    0.0093
    --------------------------------------------
      LOOP:  cpu time   24.3943: real time   24.4653

 eigenvalue-minimisations  :  3860
 total energy-change (2. order) : 0.6052170E-01  (-0.3124211E-02)
 number of electron     801.0000089 magnetization 
 augmentation part      247.7633078 magnetization 

 Broyden mixing:
  rms(total) = 0.16868E+00    rms(broyden)= 0.16868E+00
  rms(prec ) = 0.19980E+00
  weight for this iteration     100.00

 eigenvalues of (default mixing * dielectric matrix)
  average eigenvalue GAMMA=   0.6460
  2.1819  1.5741  1.5741  0.9723  0.9723  0.4374  0.3283  0.3283  0.2616  0.2616
  0.1123  0.2008  0.2008  0.1420  0.1420

 Free energy of the ion-electron system (eV)
  ---------------------------------------------------
  alpha Z        PSCENC =      2662.42313081
  Ewald energy   TEWEN  =    176388.04522772
  -Hartree energ DENC   =   -239971.15367326
  -exchange      EXHF   =         0.00000000
  -V(xc)+E(xc)   XCENC  =       262.98662643
  PAW double counting   =     73590.76071515   -71571.35961456
  entropy T*S    EENTRO =        -0.22309619
  eigenvalues    EBANDS =      -173.32543195
  atomic energy  EATOM  =     58341.73154849
  Solvation  Ediel_sol  =         0.00000000
[...]
   0.631E-01 -.259E+00 0.264E+04   -.293E-01 0.156E+00 -.264E+04   -.259E-01 0.512E-01 -.966E+00   -.134E-01 0.582E-01 0.323E-01
   -.991E+00 0.179E+01 0.264E+04   0.905E+00 -.176E+01 -.264E+04   0.309E-01 -.669E-01 -.908E+00   0.804E-01 0.288E-01 0.275E-01
   -.554E-01 0.590E+00 0.264E+04   0.213E-01 -.536E+00 -.264E+04   -.259E-01 0.134E-01 -.921E+00   0.648E-01 -.836E-01 0.430E-01
   0.270E-01 -.221E+01 0.134E+04   -.965E-01 0.202E+01 -.134E+04   -.109E-02 0.265E-01 -.577E+00   0.721E-01 0.194E+00 0.128E+00
   -.117E+00 0.165E+01 0.134E+04   0.108E+00 -.158E+01 -.134E+04   0.606E-02 -.436E-01 -.567E+00   0.197E-02 -.390E-01 0.431E-02
   0.106E-01 -.344E-01 -.132E+04   0.388E-01 -.170E+00 0.132E+04   0.284E-02 0.153E-01 0.608E+00   -.527E-01 0.199E+00 -.795E-01
   -.108E+01 -.600E+00 0.264E+04   0.111E+01 0.598E+00 -.264E+04   0.311E-01 0.556E-01 -.837E+00   -.574E-01 -.323E-01 0.606E-01
   0.123E+01 -.902E+00 0.134E+04   -.106E+01 0.731E+00 -.134E+04   -.325E-01 0.157E-01 -.572E+00   -.121E+00 0.158E+00 0.103E+00
   0.727E-01 0.199E+00 0.610E+01   -.186E-01 -.162E+00 -.607E+01   -.259E-02 -.630E-02 -.335E-01   -.526E-01 -.249E-01 0.182E-01
   0.272E-02 0.127E+00 -.133E+04   -.883E-01 -.180E+00 0.132E+04   0.157E-01 -.163E-01 0.611E+00   0.736E-01 0.616E-01 -.342E-01
   0.214E+01 0.130E+01 -.135E+04   -.221E+01 -.117E+01 0.135E+04   0.776E-01 0.419E-01 0.474E+00   0.110E-02 -.167E+00 -.126E+00
   -.138E+00 -.139E+00 -.133E+04   0.214E+00 0.108E+00 0.133E+04   -.221E+00 -.129E+00 0.377E+00   0.147E+00 0.165E+00 -.932E-01
   0.635E+00 -.899E+00 0.264E+04   -.600E+00 0.839E+00 -.264E+04   -.438E-01 0.369E-01 -.845E+00   0.657E-02 0.272E-01 0.213E-01
   0.390E+00 0.344E+00 0.264E+04   -.352E+00 -.231E+00 -.264E+04   0.127E-01 0.107E-01 -.930E+00   -.457E-01 -.122E+00 0.843E-01
   -.364E+00 0.998E-01 0.264E+04   0.233E+00 -.864E-01 -.264E+04   0.325E-02 -.202E-01 -.834E+00   0.114E+00 -.566E-02 0.741E-01
   0.473E+00 -.453E+00 0.134E+04   -.508E+00 0.367E+00 -.134E+04   0.983E-02 0.321E-02 -.601E+00   0.193E-01 0.862E-01 0.775E-01
   0.621E+00 0.419E+00 0.609E+01   -.622E+00 -.294E+00 -.610E+01   0.295E-01 0.171E-01 0.752E-02   -.183E-01 -.138E+00 0.145E-01
   -.406E+00 0.553E+00 0.134E+04   0.447E+00 -.490E+00 -.134E+04   0.108E-01 0.109E-01 -.606E+00   -.334E-01 -.877E-01 0.141E+00
   0.218E+01 -.118E+01 0.134E+04   -.214E+01 0.126E+01 -.134E+04   -.323E-01 0.195E-01 -.484E+00   -.374E-01 -.861E-01 0.150E+00
   -.506E-01 0.851E-01 -.133E+04   0.111E+00 -.133E+00 0.133E+04   0.341E-02 0.255E+00 0.379E+00   -.637E-01 -.205E+00 -.339E-01
   0.461E-01 0.161E+00 0.264E+04   -.516E-01 -.112E+00 -.264E+04   -.529E-02 0.408E-01 -.822E+00   0.102E-01 -.634E-01 0.107E-01
   0.194E+01 0.968E+00 0.134E+04   -.187E+01 -.796E+00 -.134E+04   -.190E-01 -.926E-02 -.567E+00   -.822E-01 -.177E+00 0.974E-01
   0.101E+00 0.198E+01 0.545E+01   -.253E-01 -.199E+01 -.539E+01   0.144E-02 0.656E-02 0.325E-01   -.771E-01 -.262E-02 -.885E-01
   0.120E+01 0.823E+00 -.264E+04   -.117E+01 -.713E+00 0.264E+04   -.492E-01 -.494E-01 0.792E+00   0.976E-02 -.616E-01 -.816E-02
   0.507E+01 0.137E+01 -.263E+04   -.506E+01 -.153E+01 0.263E+04   -.750E-01 0.198E-01 0.809E+00   0.527E-01 0.159E+00 -.255E-01
   0.140E+01 -.541E+01 -.263E+04   -.122E+01 0.546E+01 0.263E+04   -.578E-01 0.564E-01 0.809E+00   -.134E+00 -.982E-01 0.249E-01
   -.483E+01 0.158E+01 -.263E+04   0.480E+01 -.170E+01 0.263E+04   0.776E-01 0.140E-01 0.813E+00   -.449E-01 0.113E+00 -.464E-01
   -.120E+01 -.522E+01 -.263E+04   0.110E+01 0.528E+01 0.263E+04   0.662E-01 0.538E-01 0.808E+00   0.453E-01 -.101E+00 0.579E-01
   -.366E+01 0.361E+01 -.263E+04   0.376E+01 -.356E+01 0.263E+04   0.544E-02 -.866E-01 0.814E+00   -.106E+00 0.294E-01 -.295E-01
   0.183E+00 0.103E+00 -.263E+04   -.149E+00 -.166E+00 0.263E+04   0.529E-02 -.133E-01 0.855E+00   -.438E-01 0.784E-01 0.626E-01
   -.166E+01 0.107E+01 -.264E+04   0.152E+01 -.950E+00 0.264E+04   0.695E-01 -.575E-01 0.788E+00   0.752E-01 -.644E-01 0.260E-01
   -.469E-01 -.145E+01 -.264E+04   -.417E-03 0.143E+01 0.264E+04   0.454E-02 0.569E-01 0.794E+00   0.400E-01 -.211E-01 -.199E-01
   0.351E+01 0.364E+01 -.263E+04   -.363E+01 -.364E+01 0.263E+04   0.984E-02 -.919E-01 0.812E+00   0.107E+00 0.911E-01 0.262E-01
   -.126E+00 -.827E+01 -.263E+04   0.156E+00 0.915E+01 0.263E+04   0.127E-01 -.816E+00 0.396E+00   -.453E-01 -.884E-01 -.421E-01
   -.807E+01 0.441E+01 -.263E+04   0.870E+01 -.479E+01 0.263E+04   -.663E+00 0.392E+00 0.378E+00   -.132E-02 0.332E-02 -.106E+00
   -.459E+01 0.287E+01 -.263E+04   0.421E+01 -.258E+01 0.263E+04   0.434E+00 -.259E+00 0.975E+00   -.455E-01 -.342E-01 -.359E-01
   -.310E+00 -.515E+01 -.263E+04   0.257E+00 0.465E+01 0.263E+04   0.118E-01 0.466E+00 0.968E+00   0.394E-01 0.451E-01 -.509E-01
   -.135E+00 -.250E+01 -.135E+04   0.794E-01 0.253E+01 0.135E+04   0.582E-02 -.897E-01 0.475E+00   0.507E-01 0.565E-01 -.189E+00
   0.126E+01 -.175E+01 0.264E+04   -.126E+01 0.166E+01 -.264E+04   -.639E-01 0.700E-01 -.933E+00   0.535E-01 0.298E-01 0.130E+00
   -.157E+00 -.869E+00 -.133E+04   0.111E-01 0.780E+00 0.132E+04   -.904E-02 -.444E-01 0.618E+00   0.152E+00 0.138E+00 -.624E-01
   0.420E+00 -.877E+00 0.264E+04   -.462E+00 0.731E+00 -.264E+04   -.915E-02 0.231E-01 -.909E+00   0.365E-01 0.147E+00 0.685E-01
   0.131E+01 -.503E+00 0.134E+04   -.113E+01 0.516E+00 -.134E+04   -.251E-01 0.172E-01 -.583E+00   -.155E+00 -.519E-01 0.131E+00
   -.137E+01 -.822E+00 0.134E+04   0.129E+01 0.814E+00 -.134E+04   0.312E-01 0.258E-01 -.578E+00   0.533E-01 -.295E-01 0.123E+00
   0.986E-01 0.172E+00 -.132E+04   0.100E+00 -.213E+00 0.132E+04   -.121E-01 -.189E-01 0.608E+00   -.196E+00 0.530E-01 -.567E-01
   -.484E+00 -.460E+00 0.264E+04   0.546E+00 0.362E+00 -.264E+04   -.194E-01 0.317E-01 -.840E+00   -.529E-01 0.672E-01 0.479E-01
   0.115E+00 0.135E+01 0.134E+04   -.604E-01 -.133E+01 -.134E+04   -.340E-02 -.379E-01 -.574E+00   -.411E-01 0.229E-01 0.380E-01
   0.753E+01 0.426E+01 -.263E+04   -.820E+01 -.469E+01 0.263E+04   0.700E+00 0.399E+00 0.413E+00   -.117E-01 0.487E-01 -.829E-01
   -.224E+00 0.213E+00 -.939E+01   0.168E+00 -.453E-01 0.955E+01   0.298E-02 -.440E-03 -.142E+00   0.528E-01 -.170E+00 -.142E-01
   0.454E+01 0.316E+01 -.263E+04   -.418E+01 -.283E+01 0.263E+04   -.416E+00 -.262E+00 0.978E+00   0.513E-01 -.760E-01 -.242E-01
   -.149E+01 -.884E+00 0.134E+04   0.133E+01 0.752E+00 -.134E+04   0.412E-01 0.102E-01 -.581E+00   0.122E+00 0.124E+00 0.599E-01
   0.109E+00 -.265E+00 0.134E+04   -.378E-01 0.163E+00 -.134E+04   0.215E-02 0.118E-01 -.523E+00   -.723E-01 0.908E-01 0.314E-01
   -.635E+00 0.266E+00 0.564E+01   0.615E+00 -.218E+00 -.569E+01   -.316E-01 0.196E-01 0.472E-02   0.393E-01 -.600E-01 0.512E-01
   0.864E+00 0.404E+00 -.132E+04   -.862E+00 -.351E+00 0.132E+04   0.381E-01 0.896E-02 0.616E+00   -.484E-01 -.655E-01 -.349E-01
   -.208E+01 0.128E+01 -.135E+04   0.215E+01 -.120E+01 0.135E+04   -.715E-01 0.384E-01 0.471E+00   -.760E-02 -.106E+00 -.810E-01
   0.324E-01 0.102E+01 0.264E+04   0.108E+00 -.920E+00 -.264E+04   -.266E-01 -.218E-01 -.915E+00   -.130E+00 -.108E+00 0.604E-01
   -.381E-01 0.204E+00 0.264E+04   -.602E-01 -.127E+00 -.264E+04   -.178E-01 0.302E-01 -.941E+00   0.111E+00 -.982E-01 0.671E-01
   -.412E+00 0.257E+01 0.134E+04   0.379E+00 -.238E+01 -.134E+04   0.191E-01 -.304E-01 -.485E+00   0.304E-01 -.193E+00 0.829E-01
   -.209E+01 -.955E+00 0.134E+04   0.197E+01 0.101E+01 -.134E+04   0.201E-01 0.110E-01 -.483E+00   0.139E+00 -.611E-01 0.138E+00
   -.164E+01 -.105E+01 0.488E+01   0.157E+01 0.890E+00 -.482E+01   -.971E-02 -.593E-02 0.242E-01   0.791E-01 0.171E+00 -.786E-01
   0.127E+00 -.986E-01 -.133E+04   -.217E+00 0.144E+00 0.133E+04   0.228E+00 -.129E+00 0.373E+00   -.145E+00 0.874E-01 -.167E+00
   0.548E+00 -.277E+00 0.264E+04   -.393E+00 0.271E+00 -.264E+04   -.380E-01 -.611E-02 -.828E+00   -.111E+00 0.231E-02 0.117E+00
   -.424E-01 -.176E+00 0.688E+01   0.149E+00 0.434E-01 -.680E+01   0.449E-02 0.625E-02 -.342E-01   -.117E+00 0.125E+00 -.347E-01
   0.904E+00 0.240E+01 0.815E+00   -.953E+00 -.216E+01 -.816E+00   0.627E-01 0.716E-02 0.270E-01   -.115E-01 -.254E+00 -.221E-01
   0.247E+01 -.304E+00 0.837E+00   -.240E+01 0.392E+00 -.843E+00   0.462E-01 0.573E-01 0.228E-01   -.120E+00 -.140E+00 -.122E-01
   -.839E+00 0.217E+01 -.195E+00   0.911E+00 -.200E+01 0.165E+00   -.639E-01 0.938E-02 0.191E-01   -.119E-01 -.179E+00 0.139E-01
   0.160E+00 -.102E+00 0.648E+01   -.264E+00 0.292E-01 -.636E+01   -.866E-02 0.961E-02 -.399E-01   0.114E+00 0.621E-01 -.693E-01
   -.132E+01 0.979E+00 0.134E+04   0.125E+01 -.886E+00 -.134E+04   0.881E-02 -.116E-01 -.576E+00   0.850E-01 -.986E-01 0.121E+00
   -.157E+00 -.813E+00 0.615E+01   0.803E-01 0.636E+00 -.613E+01   -.717E-03 -.315E-01 0.152E-01   0.785E-01 0.197E+00 -.321E-01
   0.878E-01 -.774E+00 -.132E+04   -.629E-01 0.694E+00 0.132E+04   0.587E-02 -.486E-01 0.616E+00   -.325E-01 0.130E+00 -.890E-01
   0.798E+00 0.563E+00 -.133E+04   -.890E+00 -.414E+00 0.132E+04   0.274E-01 0.235E-01 0.612E+00   0.542E-01 -.174E+00 0.102E-02
   -.170E+00 -.722E+00 0.264E+04   0.169E+00 0.522E+00 -.264E+04   0.186E-02 0.379E-01 -.909E+00   0.101E-01 0.188E+00 0.956E-01
   0.127E+01 0.341E+00 0.264E+04   -.116E+01 -.295E+00 -.264E+04   -.674E-01 -.119E-01 -.919E+00   -.773E-01 -.361E-01 0.185E-01
   -.236E+01 -.269E+00 -.323E+00   0.229E+01 0.273E+00 0.290E+00   -.426E-01 0.514E-01 0.777E-02   0.119E+00 -.545E-01 0.254E-01
   0.182E+01 -.102E+01 0.595E+01   -.163E+01 0.868E+00 -.589E+01   0.137E-01 -.427E-02 0.249E-01   -.209E+00 0.156E+00 -.832E-01
   -.663E+00 -.135E+00 0.134E+04   0.656E+00 -.833E-02 -.134E+04   0.548E-02 -.118E-01 -.612E+00   0.197E-01 0.149E+00 0.114E+00
   0.159E+01 -.197E+01 0.155E+01   -.151E+01 0.188E+01 -.151E+01   -.285E-01 -.577E-01 0.230E-01   -.545E-01 0.149E+00 -.537E-01
   -.170E+01 -.209E+01 0.645E+00   0.150E+01 0.198E+01 -.612E+00   0.251E-01 -.554E-01 0.209E-01   0.184E+00 0.167E+00 -.518E-01
   0.930E-01 -.175E-01 -.311E+03   -.106E+00 0.149E-01 0.313E+03   0.128E-01 -.117E-03 -.146E+01   -.364E-02 -.254E-02 -.441E-02
 -----------------------------------------------------------------------------------------------
   -.152E-01 -.392E-01 0.308E+01   0.111E-12 -.567E-12 -.330E-11   -.356E-01 0.571E-01 -.385E+01   -.219E-01 0.320E-01 0.804E+00
 
 
 POSITION                                       TOTAL-FORCE (eV/Angst)
 -----------------------------------------------------------------------------------
     13.36509      8.25621      7.28144        -0.000053      0.002141      0.008750
      5.14610      8.25676      7.27329         0.004833     -0.003958      0.006859
      3.77459      5.88198      7.27345         0.011358     -0.003695      0.009375
     13.38164      8.23544      0.38655        -0.004567      0.005348     -0.017411
      5.15898      8.24143      0.38898         0.025539     -0.012130     -0.012720
      3.79232      5.86392      0.39170         0.005776     -0.015901     -0.022060
      7.89389      1.91481      2.71415         0.002730      0.032737      0.001229
      9.26360      9.03402      2.71475        -0.000278     -0.010439     -0.005944
      2.40519      3.50832      7.26794         0.000302      0.008868      0.015351
      2.41831      3.48971      0.39253         0.003742      0.021131     -0.023282
     10.63381      1.91565      2.71297         0.017510      0.002854     -0.005764
     13.36997      5.08635      4.99491        -0.000253      0.004151      0.012783
      3.77406      1.13805      7.26834         0.004045     -0.007552      0.019659
      9.25069      5.88005      7.31687         0.002032      0.000717     -0.013875
      5.15474      3.51541      7.29198         0.005076      0.005158      0.004434
      3.79283      1.11713      0.39089        -0.001054      0.003534     -0.026893
      9.26884      5.86517      0.38993         0.005682      0.001860      0.003723
      5.15940      3.49354      0.39264        -0.013537     -0.012308     -0.005772
     12.00367      9.03384      2.71317        -0.005110      0.003485     -0.019946
     11.99858      7.45776      4.99282         0.007540      0.002176      0.004455
     13.37314      6.66157      2.71516         0.018830     -0.015593     -0.023866
      9.26435      4.28836      2.71463        -0.025784      0.012471      0.072681
      7.88545      8.24531      7.29102         0.001228     -0.001604      0.000328
      7.90000      8.23570      0.39005        -0.000271      0.025678     -0.001149
     10.63367      6.66142      2.71339        -0.033473     -0.016146      0.009013
      2.41020      0.33676      4.99277         0.000185     -0.000245      0.002240
     14.73438      9.05668      9.61272        -0.005336     -0.000830     -0.003146
      3.76462      4.30723      9.60269        -0.004727      0.008836     -0.005249
      6.50817      9.05817      9.60269        -0.010805      0.014414     -0.005727
     11.99821      4.30748      9.60093         0.000520      0.006689     -0.001469
      9.25390      9.05828      9.60340         0.005178      0.014546     -0.004995
     10.62575      1.92859      9.60183        -0.004049     -0.006044     -0.003590
      2.40104      1.93450      9.59712        -0.003373      0.000565     -0.002211
     11.98631      9.05711      9.61383         0.002892     -0.001653     -0.003870
     13.36058      6.67648      9.61318        -0.001796      0.005979     -0.003605
      5.13620      1.92927      9.60332         0.001788     -0.006116     -0.003574
      7.88073      6.72721      9.66580        -0.001075     -0.012289      0.011124
      9.29153      4.28325      9.66643        -0.010310      0.011716      0.006801
      5.10780      6.69965      9.59925         0.004770     -0.005479     -0.000335
      7.88076      1.89779      9.59684        -0.000599      0.004167      0.005690
      7.88518      3.51598      7.31622         0.001637      0.002766     -0.012886
      7.90361      3.48860      0.38943        -0.010437      0.006909      0.004475
      6.51438      1.13777      7.27234        -0.001203      0.005567      0.010869
      6.53045      1.11989      0.38807        -0.014207      0.024236     -0.010641
     12.00361      4.28899      2.71661         0.001163     -0.022749     -0.016454
      3.78385      4.28821      2.71829         0.005182     -0.012825     -0.013155
      1.03701      1.13829      7.26761        -0.007725     -0.007198      0.018684
      1.05115      1.11732      0.38791        -0.009505      0.000158     -0.020363
      6.52377      9.03412      2.71584         0.011403      0.002362     -0.011739
      6.47126      4.28416      9.66745         0.002515      0.010044      0.006913
      7.88960      5.08564      5.02154         0.000798     -0.002464     -0.003440
     10.65378      6.69951      9.59786        -0.004643     -0.004278      0.004249
      5.15374      1.91595      2.71715         0.001027      0.002318     -0.013450
      2.41389      1.91454      2.71598         0.001949      0.000022     -0.089615
     14.74093      7.45780      4.99359        -0.008780      0.005597      0.004520
     11.99543      5.88186      7.27209        -0.009194     -0.004775      0.007887
      6.52005      5.88028      7.31812        -0.000245     -0.001213     -0.010444
     12.01051      5.86617      0.38876        -0.015624     -0.025227     -0.015980
      6.53060      5.86359      0.39111        -0.004590      0.008469     -0.003257
      7.89260      6.66137      2.71657         0.017454     -0.039518      0.071114
      6.52488      4.28866      2.71631         0.031396      0.003820      0.074964
      3.78262      2.71398      4.99387        -0.001293      0.000513     -0.000754
     10.61584      3.51523      7.29034        -0.007183      0.004566      0.003146
     10.64245      3.49341      0.38736         0.007455     -0.009841      0.003509
     10.62930      0.33937      4.99380        -0.004477     -0.001432      0.013743
      9.25755      7.45314      5.00084         0.000397     -0.003009      0.000892
     10.62350      5.08576      5.00098        -0.001690      0.002400      0.001296
      6.52247      7.45323      5.00244        -0.000410     -0.001950      0.000169
      5.15070      0.33874      4.99468         0.001291     -0.001452      0.012896
      5.15425      6.66197      2.71603         0.026541     -0.018693      0.003074
      7.88954      0.34065      4.99255         0.001954     -0.008836      0.005788
      9.25679      1.13810      7.27153        -0.001194      0.002894      0.009143
     10.62478      8.25658      7.27299        -0.010017     -0.002915      0.006127
      9.26988      1.11885      0.38539         0.011560      0.024453     -0.009010
     10.64269      8.23829      0.38640        -0.035258     -0.002096     -0.015567
      5.15618      5.08609      5.00318         0.002598     -0.000894     -0.002307
     11.99708      2.71384      4.99229         0.000531     -0.001321     -0.001929
     14.74247      9.03495      2.71447         0.019832     -0.005808     -0.027293
      9.25702      2.71733      4.99995        -0.004322      0.003976      0.000049
      6.52323      2.71712      5.00140         0.003568      0.006008     -0.000667
      7.88688      5.09943     10.56184        -0.003359     -0.005820      0.037402
 -----------------------------------------------------------------------------------
    total drift:                               -0.072657      0.049906      0.030888


--------------------------------------------------------------------------------------------------------



  FREE ENERGIE OF THE ION-ELECTRON SYSTEM (eV)
  ---------------------------------------------------
  free  energy   TOTEN  =      -519.25758048 eV

  energy  without entropy=     -519.05382355  energy(sigma->0) =     -519.18966151
 
 d Force = 0.9020245E-03[ 0.505E-03, 0.130E-02]  d Energy = 0.8948471E-03 0.718E-05
 d Force = 0.8111912E+02[ 0.811E+02, 0.811E+02]  d Ewald  = 0.8111912E+02-0.153E-05


--------------------------------------------------------------------------------------------------------


    POTLOK:  cpu time    0.2512: real time    0.2518


--------------------------------------------------------------------------------------------------------


 Conjugate gradient step on ions:
 trial-energy change:   -0.000895  1 .order   -0.000902   -0.001299   -0.000505
  (g-gl).g = 0.709E-03      g.g   = 0.763E-03  gl.gl    = 0.234E-02
 g(Force)  = 0.763E-03   g(Stress)= 0.000E+00 ortho     = 0.971E-04
 gamma     =   0.30335
 trial     =   1.63816
 opt step  =   2.68150  (harmonic =   2.68150) maximal distance =0.01136866
 next E    =  -519.257749   (d E  =  -0.00106)


--------------------------------------------------------------------------------------------------------


  
 reached required accuracy - stopping structural energy minimisation
     LOOP+:  cpu time  206.5624: real time  207.0603
    4ORBIT:  cpu time    0.0000: real time    0.0000

 total amount of memory used by VASP MPI-rank0   162845. kBytes
=======================================================================

   base      :      30000. kBytes
   nonlr-proj:      34104. kBytes
   fftplans  :      17977. kBytes
   grid      :      27754. kBytes
   one-center:        326. kBytes
   wavefun   :      52684. kBytes
 
  
  
 General timing and accounting informations for this job:
 ========================================================
  
                  Total CPU time used (sec):     3761.073
                            User time (sec):     3755.722
                          System time (sec):        5.350
                         Elapsed time (sec):     3771.638
  
                   Maximum memory used (kb):      602876.
                   Average memory used (kb):           0.
  
                          Minor page faults:      1161993
                          Major page faults:            0
                 Voluntary context switches:         4487
