 vasp.5.4.4.18Apr17-6-g9f103f2a35 (build Nov 30 2020 22:55:02) complex          
  
 executed on             LinuxIFC date 2023.09.10  22:39:30
 running on   40 total cores
 distrk:  each k-point on   40 cores,    1 groups
 distr:  one band on NCORES_PER_BAND=   4 cores,   10 groups


--------------------------------------------------------------------------------------------------------


 INCAR:
 POTCAR:    PAW_PBE Cu 22Jun2005                  
 POTCAR:    PAW_PBE Pt 04Feb2005                  
 POTCAR:    PAW_PBE H 15Jun2001                   
 POTCAR:    PAW_PBE Cu 22Jun2005                  
   VRHFIN =Cu: d10 p1                                                           
   LEXCH  = PE                                                                  
   EATOM  =  1390.9808 eV,  102.2342 Ry                                         
                                                                                
   TITEL  = PAW_PBE Cu 22Jun2005                                                
   LULTRA =        F    use ultrasoft PP ?                                      
   IUNSCR =        1    unscreen: 0-lin 1-nonlin 2-no                           
   RPACOR =    2.000    partial core radius                                     
   POMASS =   63.546; ZVAL   =   11.000    mass and valenz                      
   RCORE  =    2.300    outmost cutoff radius                                   
   RWIGS  =    2.200; RWIGS  =    1.164    wigner-seitz radius (au A)           
   ENMAX  =  295.446; ENMIN  =  221.585 eV                                      
   ICORE  =        3    local potential                                         
   LCOR   =        T    correct aug charges                                     
   LPAW   =        T    paw PP                                                  
   EAUG   =  586.980                                                            
   DEXC   =    0.000                                                            
   RMAX   =    2.344    core radius for proj-oper                               
   RAUG   =    1.300    factor for augmentation sphere                          
   RDEP   =    2.302    radius for radial grids                                 
   RDEPT  =    1.771    core radius for aug-charge                              
                                                                                
   Atomic configuration                                                         
    9 entries                                                                   
     n  l   j            E        occ.                                          
     1  0  0.50     -8850.2468   2.0000                                         
     2  0  0.50     -1062.3498   2.0000                                         
     2  1  1.50      -916.8226   6.0000                                         
     3  0  0.50      -114.6929   2.0000                                         
     3  1  1.50       -72.1325   6.0000                                         
     3  2  2.50        -5.0394  10.0000                                         
     4  0  0.50        -4.6097   1.0000                                         
     4  1  0.50        -4.0817   0.0000                                         
     4  3  2.50        -1.3606   0.0000                                         
   Description                                                                  
     l       E           TYP  RCUT    TYP  RCUT                                 
     2     -5.0393973     23  2.200                                             
     2     10.8846608     23  2.200                                             
     0     -4.6097109     23  2.200                                             
     0      8.2520465     23  2.200                                             
     1     -2.7211652     23  2.200                                             
     1     21.7055443     23  2.200                                             
     3      2.7211652     23  2.300                                             
  local pseudopotential read in
  partial core-charges read in
  partial kinetic energy density read in
  atomic valenz-charges read in
  non local Contribution for L=           2  read in
    real space projection operators read in
  non local Contribution for L=           2  read in
    real space projection operators read in
  non local Contribution for L=           0  read in
    real space projection operators read in
  non local Contribution for L=           0  read in
    real space projection operators read in
  non local Contribution for L=           1  read in
    real space projection operators read in
  non local Contribution for L=           1  read in
    real space projection operators read in
    PAW grid and wavefunctions read in
 
   number of l-projection  operators is LMAX  =           6
   number of lm-projection operators is LMMAX =          18
 
 POTCAR:    PAW_PBE Pt 04Feb2005                  
   VRHFIN =Pt: s1d9                                                             
   LEXCH  = PE                                                                  
   EATOM  =   729.1176 eV,   53.5886 Ry                                         
                                                                                
   TITEL  = PAW_PBE Pt 04Feb2005                                                
   LULTRA =        F    use ultrasoft PP ?                                      
   IUNSCR =        1    unscreen: 0-lin 1-nonlin 2-no                           
   RPACOR =    2.330    partial core radius                                     
   POMASS =  195.080; ZVAL   =   10.000    mass and valenz                      
   RCORE  =    2.600    outmost cutoff radius                                   
   RWIGS  =    2.750; RWIGS  =    1.455    wigner-seitz radius (au A)           
   ENMAX  =  230.283; ENMIN  =  172.712 eV                                      
   ICORE  =        3    local potential                                         
   LCOR   =        T    correct aug charges                                     
   LPAW   =        T    paw PP                                                  
   EAUG   =  358.966                                                            
   DEXC   =    0.000                                                            
   RMAX   =    2.658    core radius for proj-oper                               
   RAUG   =    1.300    factor for augmentation sphere                          
   RDEP   =    2.761    radius for radial grids                                 
   RDEPT  =    2.203    core radius for aug-charge                              
                                                                                
   Atomic configuration                                                         
   16 entries                                                                   
     n  l   j            E        occ.                                          
     1  0  0.50    -78401.1885   2.0000                                         
     2  0  0.50    -13770.7750   2.0000                                         
     2  1  1.50    -11931.0468   6.0000                                         
     3  0  0.50     -3234.7234   2.0000                                         
     3  1  1.50     -2699.2216   6.0000                                         
     3  2  2.50     -2119.5714  10.0000                                         
     4  0  0.50      -695.1528   2.0000                                         
     4  1  1.50      -519.6034   6.0000                                         
     4  2  2.50      -306.6786  10.0000                                         
     4  3  3.50       -70.1041  14.0000                                         
     5  0  0.50      -101.7747   2.0000                                         
     5  1  1.50       -55.9873   6.0000                                         
     5  2  2.50        -6.1423   9.0000                                         
     6  0  0.50        -5.6573   1.0000                                         
     6  1  1.50        -6.8029   0.0000                                         
     5  3  2.50        -1.3606   0.0000                                         
   Description                                                                  
     l       E           TYP  RCUT    TYP  RCUT                                 
     2     -6.1423404     23  2.500                                             
     2     -7.5029230     23  2.500                                             
     0     -5.6573207     23  2.500                                             
     0      0.7416693     23  2.500                                             
     1     -2.7211652     23  2.600                                             
     1     20.4087390     23  2.600                                             
     3     -1.3605826     23  2.500                                             
  local pseudopotential read in
  partial core-charges read in
  partial kinetic energy density read in
  atomic valenz-charges read in
  non local Contribution for L=           2  read in
    real space projection operators read in
  non local Contribution for L=           2  read in
    real space projection operators read in
  non local Contribution for L=           0  read in
    real space projection operators read in
  non local Contribution for L=           0  read in
    real space projection operators read in
  non local Contribution for L=           1  read in
    real space projection operators read in
  non local Contribution for L=           1  read in
    real space projection operators read in
    PAW grid and wavefunctions read in
 
   number of l-projection  operators is LMAX  =           6
   number of lm-projection operators is LMMAX =          18
 
 POTCAR:    PAW_PBE H 15Jun2001                   
   VRHFIN =H: ultrasoft test                                                    
   LEXCH  = PE                                                                  
   EATOM  =    12.4884 eV,    0.9179 Ry                                         
                                                                                
   TITEL  = PAW_PBE H 15Jun2001                                                 
   LULTRA =        F    use ultrasoft PP ?                                      
   IUNSCR =        0    unscreen: 0-lin 1-nonlin 2-no                           
   RPACOR =    0.000    partial core radius                                     
   POMASS =    1.000; ZVAL   =    1.000    mass and valenz                      
   RCORE  =    1.100    outmost cutoff radius                                   
   RWIGS  =    0.700; RWIGS  =    0.370    wigner-seitz radius (au A)           
   ENMAX  =  250.000; ENMIN  =  200.000 eV                                      
   RCLOC  =    0.701    cutoff for local pot                                    
   LCOR   =        T    correct aug charges                                     
   LPAW   =        T    paw PP                                                  
   EAUG   =  400.000                                                            
   RMAX   =    1.123    core radius for proj-oper                               
   RAUG   =    1.200    factor for augmentation sphere                          
   RDEP   =    1.112    radius for radial grids                                 
   RDEPT  =    0.926    core radius for aug-charge                              
                                                                                
   Atomic configuration                                                         
    2 entries                                                                   
     n  l   j            E        occ.                                          
     1  0  0.50        -6.4927   1.0000                                         
     2  1  0.50        -3.4015   0.0000                                         
   Description                                                                  
     l       E           TYP  RCUT    TYP  RCUT                                 
     0     -6.4927494     23  1.100                                             
     0      6.8029130     23  1.100                                             
     1     -4.0817478     23  1.100                                             
  local pseudopotential read in
  atomic valenz-charges read in
  non local Contribution for L=           0  read in
    real space projection operators read in
  non local Contribution for L=           0  read in
    real space projection operators read in
  non local Contribution for L=           1  read in
    real space projection operators read in
    PAW grid and wavefunctions read in
 
   number of l-projection  operators is LMAX  =           3
   number of lm-projection operators is LMMAX =           5
 
 Optimization of the real space projectors (new method)

 maximal supplied QI-value         = 16.25
 optimisation between [QCUT,QGAM] = [ 11.86, 23.89] = [ 39.41,159.82] Ry 
 Optimized for a Real-space Cutoff    1.49 Angstroem

   l    n(q)    QCUT    max X(q) W(low)/X(q) W(high)/X(q)  e(spline) 
   2     10    11.864     4.610    0.10E-03    0.20E-03    0.29E-06
   2     10    11.864     8.522    0.17E-03    0.33E-03    0.50E-06
   0     11    11.864    51.609    0.52E-04    0.55E-04    0.33E-06
   0     11    11.864    27.747    0.46E-04    0.52E-04    0.31E-06
   1     10    11.864    20.408    0.54E-04    0.25E-04    0.21E-06
   1     10    11.864    13.425    0.48E-04    0.22E-04    0.18E-06
 Optimization of the real space projectors (new method)

 maximal supplied QI-value         = 14.36
 optimisation between [QCUT,QGAM] = [ 11.92, 23.98] = [ 39.79,161.09] Ry 
 Optimized for a Real-space Cutoff    1.49 Angstroem

   l    n(q)    QCUT    max X(q) W(low)/X(q) W(high)/X(q)  e(spline) 
   2     10    11.920    66.195    0.79E-04    0.18E-03    0.24E-06
   2     10    11.920    64.643    0.81E-04    0.19E-03    0.24E-06
   0     11    11.920    95.520    0.28E-04    0.54E-04    0.18E-06
   0     11    11.920    63.403    0.27E-04    0.52E-04    0.17E-06
   1     10    11.920    19.961    0.18E-04    0.11E-03    0.23E-06
   1     10    11.920    13.289    0.25E-04    0.87E-04    0.19E-06
 Optimization of the real space projectors (new method)

 maximal supplied QI-value         = 34.20
 optimisation between [QCUT,QGAM] = [ 11.97, 23.94] = [ 40.13,160.53] Ry 
 Optimized for a Real-space Cutoff    1.18 Angstroem

   l    n(q)    QCUT    max X(q) W(low)/X(q) W(high)/X(q)  e(spline) 
   0      8    11.971    19.460    0.15E-03    0.31E-03    0.25E-06
   0      8    11.971    12.209    0.13E-03    0.29E-03    0.25E-06
   1      8    11.971     4.655    0.22E-03    0.24E-03    0.21E-06
  PAW_PBE Cu 22Jun2005                  :
 energy of atom  1       EATOM=-1390.9808
 kinetic energy error for atom=    0.0036 (will be added to EATOM!!)
  PAW_PBE Pt 04Feb2005                  :
 energy of atom  2       EATOM= -729.1176
 kinetic energy error for atom=    0.0021 (will be added to EATOM!!)
  PAW_PBE H 15Jun2001                   :
 energy of atom  3       EATOM=  -12.4884
 kinetic energy error for atom=    0.0008 (will be added to EATOM!!)
 
 
 POSCAR: PtM\(2)                                 
  positions in direct lattice
  velocities in cartesian coordinates
 exchange correlation table for  LEXCH =        8
   RHO(1)=    0.500       N(1)  =     2000
   RHO(2)=  100.500       N(2)  =     4000
 


--------------------------------------------------------------------------------------------------------


 ion  position               nearest neighbor table
   1  0.785  0.869  0.314-  55 2.49  20 2.49  39 2.49  57 2.64  40 2.64  56 2.64  29 2.64   2 2.64
                             3 2.64  73 2.65  72 2.66  65 2.66
   2  0.035  0.870  0.314-  52 2.48  49 2.48  39 2.49  33 2.63  56 2.63  23 2.64   1 2.64   3 2.64
                            77 2.64  41 2.65  65 2.66  67 2.67
   3  0.035  0.619  0.314-  60 2.48  39 2.48  12 2.49  40 2.64  15 2.64   1 2.64   2 2.64   9 2.64
                            77 2.65  41 2.65  73 2.65  66 2.66
   4  0.786  0.868  0.045-  21 2.50  62 2.50  19 2.51  30 2.64  59 2.64  58 2.64  42 2.64   6 2.64
                             5 2.64
   5  0.036  0.868  0.045-  54 2.50  35 2.50  62 2.51  43 2.64   6 2.64  34 2.64  24 2.64  58 2.64
                             4 2.64
   6  0.036  0.618  0.045-  32 2.50  54 2.50  21 2.51   5 2.64  10 2.64  43 2.64   4 2.64  42 2.64
                            18 2.64
   7  0.619  0.202  0.135-  55 2.48  64 2.50  63 2.50  28 2.50  30 2.50  58 2.51  45 2.64  22 2.64
                            37 2.64  11 2.64  19 2.64  62 2.64
   8  0.369  0.952  0.135-  53 2.48  26 2.49  16 2.50  24 2.50  50 2.51  59 2.51  19 2.64  35 2.64
                            44 2.64  37 2.64  25 2.64  38 2.64
   9  0.035  0.369  0.314-  61 2.48  12 2.49  46 2.49  15 2.63  40 2.64  13 2.64  68 2.64  33 2.64
                             3 2.64  47 2.65  66 2.65  71 2.66
  10  0.036  0.368  0.045-  38 2.50  32 2.50  31 2.51  16 2.64   6 2.64  34 2.64  18 2.64  42 2.64
                            48 2.64
  11  0.869  0.202  0.135-  49 2.48  61 2.49  63 2.50  48 2.50  58 2.50  34 2.51  31 2.64  38 2.64
                            22 2.64  62 2.64   7 2.64  35 2.64
  12  0.952  0.535  0.225-  21 2.48  31 2.48   9 2.49  32 2.49   3 2.49  40 2.49  46 2.64  61 2.64
                            20 2.64  39 2.64  51 2.65  60 2.65
  13  0.285  0.119  0.314-  26 2.48  46 2.49  53 2.49  15 2.63  57 2.64  69 2.64   9 2.64  33 2.64
                            29 2.65  23 2.65  74 2.65  71 2.66
  14  0.535  0.619  0.317-  36 2.52  50 2.52  51 2.53  41 2.62  27 2.62  47 2.63  23 2.63  40 2.65
                            57 2.65  80 2.68  76 2.72  75 2.73
  15  0.284  0.369  0.314-  60 2.48  46 2.48  64 2.49  13 2.63   9 2.63   3 2.64  29 2.64  27 2.66
                            74 2.66  41 2.66  66 2.66  79 2.66
  16  0.286  0.118  0.045-   8 2.50  37 2.50  38 2.51  24 2.64  10 2.64  34 2.64  59 2.64  18 2.64
                            30 2.64
  17  0.536  0.618  0.045-  22 2.50  25 2.50  44 2.51  42 2.64  48 2.64  59 2.64  28 2.64  24 2.64
                            43 2.64
  18  0.286  0.368  0.045-  37 2.50  45 2.50  32 2.51  28 2.64  30 2.64  43 2.64  10 2.64  16 2.64
                             6 2.64
  19  0.619  0.952  0.135-  55 2.49  20 2.49  53 2.49  30 2.50  59 2.50   4 2.51  25 2.64   8 2.64
                            37 2.64  21 2.64   7 2.64  62 2.64
  20  0.702  0.786  0.225-  25 2.49  40 2.49  19 2.49   1 2.49  57 2.49  21 2.49  50 2.64  51 2.64
                            12 2.64  53 2.64  39 2.64  55 2.64
  21  0.869  0.702  0.135-  12 2.48  39 2.49  20 2.49   4 2.50  42 2.50   6 2.51  32 2.64  31 2.64
                            25 2.64  62 2.64  54 2.64  19 2.64
  22  0.619  0.452  0.135-  63 2.49  51 2.50  17 2.50  28 2.50  48 2.51  36 2.51  44 2.64  45 2.64
                             7 2.64  25 2.64  11 2.64  31 2.64
  23  0.286  0.868  0.315-  52 2.49  50 2.49  26 2.51  41 2.62  14 2.63   2 2.64  57 2.64  69 2.64
                            13 2.65  33 2.65  67 2.65  75 2.71
  24  0.286  0.868  0.045-  44 2.50   8 2.50  35 2.51  59 2.64  16 2.64  17 2.64  43 2.64   5 2.64
                            34 2.64
  25  0.619  0.702  0.135-  20 2.49  51 2.50  50 2.50  59 2.50  17 2.50  42 2.51  19 2.64  44 2.64
                             8 2.64  22 2.64  21 2.64  31 2.64
  26  0.202  0.035  0.225-  13 2.48  35 2.49  33 2.49   8 2.49  38 2.50  23 2.51  52 2.63  49 2.64
                            53 2.64  50 2.64  46 2.64  61 2.65
  27  0.535  0.371  0.316-  36 2.49  63 2.51  64 2.51  47 2.62  14 2.62  41 2.63  78 2.64  29 2.65
                            56 2.65  15 2.66  79 2.69  76 2.73
  28  0.536  0.368  0.045-   7 2.50  22 2.50  45 2.51  48 2.64  18 2.64  43 2.64  17 2.64  58 2.64
                            30 2.64
  29  0.535  0.120  0.314-  64 2.48  55 2.49  53 2.49  57 2.64  15 2.64   1 2.64  56 2.64  13 2.65
                            78 2.65  72 2.65  27 2.65  74 2.66
  30  0.536  0.118  0.045-  19 2.50   7 2.50  37 2.51   4 2.64  18 2.64  58 2.64  59 2.64  16 2.64
                            28 2.64
  31  0.869  0.452  0.135-  12 2.48  61 2.49  42 2.50  48 2.50  10 2.51  51 2.51  38 2.64  11 2.64
                            21 2.64  32 2.64  22 2.64  25 2.64
  32  0.119  0.452  0.135-  46 2.48  12 2.49  60 2.50   6 2.50  10 2.50  18 2.51  54 2.64  45 2.64
                            21 2.64  37 2.64  38 2.64  31 2.64
  33  0.035  0.119  0.314-  49 2.49  61 2.49  26 2.49   2 2.63  56 2.63  13 2.64   9 2.64  71 2.65
                            23 2.65  47 2.65  67 2.66  70 2.66
  34  0.036  0.118  0.045-  35 2.50  38 2.50  11 2.51  58 2.64  16 2.64   5 2.64  10 2.64  24 2.64
                            48 2.64
  35  0.119  0.952  0.135-  49 2.49  26 2.49  52 2.50  34 2.50   5 2.50  24 2.51   8 2.64  44 2.64
                            62 2.64  54 2.64  11 2.64  38 2.64
  36  0.452  0.536  0.226-  27 2.49  41 2.49  44 2.50  22 2.51  45 2.51  14 2.52  50 2.62  51 2.62
                            63 2.63  52 2.63  60 2.64  64 2.64
  37  0.369  0.202  0.135-  53 2.48  46 2.49  64 2.50  18 2.50  16 2.50  30 2.51  38 2.64  32 2.64
                             7 2.64   8 2.64  19 2.64  45 2.64
  38  0.119  0.202  0.135-  46 2.48  26 2.50  61 2.50  10 2.50  34 2.50  16 2.51  31 2.64  37 2.64
                            32 2.64  11 2.64   8 2.64  35 2.64
  39  0.952  0.786  0.225-   3 2.48  62 2.48  21 2.49   2 2.49  54 2.49   1 2.49  55 2.64  12 2.64
                            49 2.64  20 2.64  52 2.64  60 2.64
  40  0.786  0.619  0.314-  51 2.48  20 2.49  12 2.49   9 2.64   3 2.64   1 2.64  47 2.64  57 2.65
                            14 2.65  68 2.65  73 2.66  80 2.67
  41  0.286  0.619  0.316-  36 2.49  52 2.51  60 2.51  23 2.62  14 2.62  27 2.63  77 2.64   3 2.65
                             2 2.65  15 2.66  79 2.68  75 2.73
  42  0.786  0.618  0.045-  31 2.50  21 2.50  25 2.51  17 2.64  59 2.64  48 2.64   4 2.64   6 2.64
                            10 2.64
  43  0.286  0.618  0.045-  45 2.50  44 2.50  54 2.51  28 2.64   5 2.64  18 2.64  17 2.64  24 2.64
                             6 2.64
  44  0.369  0.702  0.135-  52 2.50  50 2.50  24 2.50  43 2.50  36 2.50  17 2.51  22 2.64  25 2.64
                            35 2.64   8 2.64  54 2.64  45 2.64
  45  0.369  0.452  0.135-  64 2.49  60 2.49  43 2.50  18 2.50  28 2.51  36 2.51  54 2.64  32 2.64
                             7 2.64  22 2.64  37 2.64  44 2.64
  46  0.202  0.286  0.224-  38 2.48  32 2.48  15 2.48  13 2.49  37 2.49   9 2.49  12 2.64  53 2.64
                            61 2.64  26 2.64  60 2.65  64 2.65
  47  0.783  0.370  0.315-  51 2.49  63 2.49  61 2.51  27 2.62  14 2.63  56 2.64  40 2.64  68 2.64
                            70 2.65   9 2.65  33 2.65  76 2.71
  48  0.786  0.368  0.045-  11 2.50  31 2.50  22 2.51  28 2.64  17 2.64  42 2.64  58 2.64  34 2.64
                            10 2.64
  49  0.952  0.036  0.225-  11 2.48   2 2.48  33 2.49  35 2.49  56 2.49  62 2.49  26 2.64  61 2.64
                            55 2.64  39 2.64  63 2.65  52 2.65
  50  0.452  0.785  0.225-  57 2.48  23 2.49  44 2.50  25 2.50   8 2.51  14 2.52  36 2.62  51 2.63
                            52 2.63  20 2.64  26 2.64  53 2.65
  51  0.701  0.536  0.225-  40 2.48  47 2.49  22 2.50  25 2.50  31 2.51  14 2.53  36 2.62  50 2.63
                            63 2.63  20 2.64  61 2.64  12 2.65
  52  0.203  0.785  0.225-   2 2.48  23 2.49  44 2.50  35 2.50  54 2.50  41 2.51  60 2.63  50 2.63
                            36 2.63  26 2.63  39 2.64  49 2.65
  53  0.452  0.036  0.224-  37 2.48   8 2.48  57 2.49  29 2.49  19 2.49  13 2.49  46 2.64  26 2.64
                            20 2.64  55 2.64  64 2.65  50 2.65
  54  0.119  0.702  0.135-  39 2.49  60 2.49  52 2.50   5 2.50   6 2.50  43 2.51  45 2.64  32 2.64
                            44 2.64  35 2.64  62 2.64  21 2.64
  55  0.702  0.036  0.225-   7 2.48  29 2.49  19 2.49   1 2.49  56 2.49  62 2.49  39 2.64  53 2.64
                            49 2.64  20 2.64  63 2.64  64 2.64
  56  0.785  0.119  0.314-  63 2.48  49 2.49  55 2.49  33 2.63   2 2.63  47 2.64   1 2.64  29 2.64
                            78 2.65  27 2.65  65 2.65  70 2.67
  57  0.535  0.870  0.314-  50 2.48  53 2.49  20 2.49  13 2.64  29 2.64   1 2.64  23 2.64  40 2.65
                            14 2.65  72 2.66  69 2.66  80 2.67
  58  0.786  0.118  0.045-  62 2.50  11 2.50   7 2.51  34 2.64  30 2.64   4 2.64  48 2.64  28 2.64
                             5 2.64
  59  0.536  0.868  0.045-  25 2.50  19 2.50   8 2.51  24 2.64  17 2.64  42 2.64   4 2.64  16 2.64
                            30 2.64
  60  0.203  0.536  0.225-   3 2.48  15 2.48  45 2.49  54 2.49  32 2.50  41 2.51  64 2.63  52 2.63
                            36 2.64  39 2.64  46 2.65  12 2.65
  61  0.951  0.286  0.225-   9 2.48  33 2.49  31 2.49  11 2.49  38 2.50  47 2.51  63 2.63  49 2.64
                            12 2.64  51 2.64  46 2.64  26 2.65
  62  0.869  0.952  0.135-  39 2.48  49 2.49  55 2.49  58 2.50   4 2.50   5 2.51  35 2.64  54 2.64
                            11 2.64  21 2.64  19 2.64   7 2.64
  63  0.701  0.286  0.225-  56 2.48  22 2.49  47 2.49   7 2.50  11 2.50  27 2.51  64 2.63  51 2.63
                            36 2.63  61 2.63  55 2.64  49 2.65
  64  0.452  0.287  0.225-  29 2.48  15 2.49  45 2.49   7 2.50  37 2.50  27 2.51  60 2.63  63 2.63
                            36 2.64  55 2.64  46 2.65  53 2.65
  65  0.869  0.954  0.413-  77 2.62  78 2.62  67 2.63  70 2.63  73 2.65  72 2.65  56 2.65   2 2.66
                             1 2.66
  66  0.116  0.454  0.413-  79 2.59  68 2.60  73 2.62  77 2.64  71 2.65   9 2.65   3 2.66  74 2.66
                            15 2.66
  67  0.117  0.954  0.413-  75 2.60  65 2.63  71 2.63  70 2.63  69 2.64  77 2.64  23 2.65  33 2.66
                             2 2.67
  68  0.871  0.452  0.413-  66 2.60  71 2.62  76 2.64   9 2.64  73 2.64  70 2.64  47 2.64  40 2.65
                            80 2.66
  69  0.367  0.956  0.413-  74 2.61  71 2.62  13 2.64  75 2.64  72 2.64  67 2.64  23 2.64  57 2.66
                            80 2.66
  70  0.868  0.203  0.413-  76 2.60  71 2.63  65 2.63  67 2.63  68 2.64  78 2.64  47 2.65  33 2.66
                            56 2.67
  71  0.117  0.203  0.413-  68 2.62  69 2.62  67 2.63  70 2.63  74 2.65  66 2.65  33 2.65   9 2.66
                            13 2.66
  72  0.617  0.955  0.413-  80 2.59  78 2.60  74 2.62  69 2.64  29 2.65  65 2.65  57 2.66   1 2.66
                            73 2.67
  73  0.870  0.702  0.413-  80 2.59  77 2.60  66 2.62  68 2.64  65 2.65   3 2.65   1 2.65  40 2.66
                            72 2.67
  74  0.368  0.202  0.413-  79 2.59  69 2.61  72 2.62  78 2.64  71 2.65  13 2.65  15 2.66  66 2.66
                            29 2.66
  75  0.363  0.708  0.419-  67 2.60  69 2.64  77 2.64  23 2.71  14 2.73  41 2.73  80 2.73  79 2.73
                            76 2.74
  76  0.623  0.449  0.419-  70 2.60  68 2.64  78 2.64  47 2.71  14 2.72  27 2.73  79 2.73  80 2.73
                            75 2.74
  77  0.115  0.705  0.413-  73 2.60  65 2.62   2 2.64  67 2.64  75 2.64  41 2.64  66 2.64   3 2.65
                            79 2.67
  78  0.619  0.200  0.413-  72 2.60  65 2.62  27 2.64  70 2.64  76 2.64  74 2.64  29 2.65  56 2.65
                            79 2.66
  79  0.364  0.449  0.415-  74 2.59  66 2.59  15 2.66  78 2.66  77 2.67  41 2.68  27 2.69  76 2.73
                            75 2.73
  80  0.622  0.708  0.415-  72 2.59  73 2.59  68 2.66  69 2.66  57 2.67  40 2.67  14 2.68  76 2.73
                            75 2.73
  81  0.474  0.555  0.546-  82 0.75
  82  0.517  0.595  0.547-  81 0.75
 
  LATTYP: Found a hexagonal cell.
 ALAT       =    10.5600004196
 C/A-ratio  =     2.0833332505
  
  Lattice vectors:
  
 A1 = (   5.2800002098,  -9.1452286274,   0.0000000000)
 A2 = ( -10.5600004196,   0.0000000000,   0.0000000000)
 A3 = (   0.0000000000,   0.0000000000, -22.0000000000)


Analysis of symmetry for initial positions (statically):
=====================================================================
 Subroutine PRICEL returns:
 Original cell was already a primitive cell.
 

 Routine SETGRP: Setting up the symmetry group for a 
 hexagonal supercell.


 Subroutine GETGRP returns: Found  1 space group operations
 (whereof  1 operations were pure point group operations)
 out of a pool of 24 trial point group operations.


The static configuration has the point symmetry C_1 .


Analysis of symmetry for dynamics (positions and initial velocities):
=====================================================================
 Subroutine PRICEL returns:
 Original cell was already a primitive cell.
 

 Routine SETGRP: Setting up the symmetry group for a 
 hexagonal supercell.


 Subroutine GETGRP returns: Found  1 space group operations
 (whereof  1 operations were pure point group operations)
 out of a pool of 24 trial point group operations.


The dynamic configuration has the point symmetry C_1 .


Analysis of constrained symmetry for selective dynamics:
=====================================================================
 Subroutine PRICEL returns:
 Original cell was already a primitive cell.
 

 Routine SETGRP: Setting up the symmetry group for a 
 hexagonal supercell.


 Subroutine GETGRP returns: Found  1 space group operations
 (whereof  1 operations were pure point group operations)
 out of a pool of 24 trial point group operations.


The constrained configuration has the point symmetry C_1 .


Analysis of structural, dynamic, and magnetic symmetry:
=====================================================================
 Subroutine PRICEL returns:
 Original cell was already a primitive cell.
 

 Routine SETGRP: Setting up the symmetry group for a 
 hexagonal supercell.


 Subroutine GETGRP returns: Found  1 space group operations
 (whereof  1 operations were pure point group operations)
 out of a pool of 24 trial point group operations.


The magnetic configuration has the point symmetry C_1 .


 Subroutine INISYM returns: Found  1 space group operations
 (whereof  1 operations are pure point group operations),
 and found     1 'primitive' translations

 
 
 KPOINTS: mesh auto                               

Automatic generation of k-mesh.
Space group operators:
 irot       det(A)        alpha          n_x          n_y          n_z        tau_x        tau_y        tau_z
    1     1.000000     0.000001     1.000000     0.000000     0.000000     0.000000     0.000000     0.000000
 
 Subroutine IBZKPT returns following result:
 ===========================================
 
 Found      4 irreducible k-points:
 
 Following reciprocal coordinates:
            Coordinates               Weight
  0.000000  0.000000  0.000000      1.000000
  0.500000  0.000000  0.000000      1.000000
  0.000000  0.500000  0.000000      1.000000
  0.500000  0.500000  0.000000      1.000000
 
 Following cartesian coordinates:
            Coordinates               Weight
  0.000000  0.000000  0.000000      1.000000
  0.047348 -0.027337  0.000000      1.000000
  0.000000  0.054673  0.000000      1.000000
  0.047348  0.027337  0.000000      1.000000
 


--------------------------------------------------------------------------------------------------------




 Dimension of arrays:
   k-points           NKPTS =      4   k-points in BZ     NKDIM =      4   number of bands    NBANDS=    560
   number of dos      NEDOS =    301   number of ions     NIONS =     82
   non local maximal  LDIM  =      6   non local SUM 2l+1 LMDIM =     18
   total plane-waves  NPLWV = ******
   max r-space proj   IRMAX =   7802   max aug-charges    IRDMAX=  33988
   dimension x,y,z NGX =    84 NGY =   84 NGZ =  168
   dimension x,y,z NGXF=   168 NGYF=  168 NGZF=  336
   support grid    NGXF=   168 NGYF=  168 NGZF=  336
   ions per type =              64  16   2
   NGX,Y,Z   is equivalent  to a cutoff of  13.22, 13.22, 12.70 a.u.
   NGXF,Y,Z  is equivalent  to a cutoff of  26.45, 26.45, 25.39 a.u.

 SYSTEM =  Pt111                                   
 POSCAR =  PtM\(2)                                 

 Startparameter for this run:
   NWRITE =      2    write-flag & timer
   PREC   = accura    normal or accurate (medium, high low for compatibility)
   ISTART =      0    job   : 0-new  1-cont  2-samecut
   ICHARG =      2    charge: 1-file 2-atom 10-const
   ISPIN  =      2    spin polarized calculation?
   LNONCOLLINEAR =      F non collinear calculations
   LSORBIT =      F    spin-orbit coupling
   INIWAV =      1    electr: 0-lowe 1-rand  2-diag
   LASPH  =      F    aspherical Exc in radial PAW
   METAGGA=      F    non-selfconsistent MetaGGA calc.

 Electronic Relaxation 1
   ENCUT  =  550.0 eV  40.42 Ry    6.36 a.u.  20.19 20.19 42.07*2*pi/ulx,y,z
   ENINI  =  550.0     initial cutoff
   ENAUG  =  587.0 eV  augmentation charge cutoff
   NELM   =    200;   NELMIN=  2; NELMDL= -5     # of ELM steps 
   EDIFF  = 0.1E-04   stopping-criterion for ELM
   LREAL  =      T    real-space projection
   NLSPLINE    = F    spline interpolate recip. space projectors
   LCOMPAT=      F    compatible to vasp.4.4
   GGA_COMPAT  = T    GGA compatible to vasp.4.4-vasp.4.6
   LMAXPAW     = -100 max onsite density
   LMAXMIX     =    2 max onsite mixed and CHGCAR
   VOSKOWN=      0    Vosko Wilk Nusair interpolation
   ROPT   =   -0.00025  -0.00025  -0.00025
 Ionic relaxation
   EDIFFG = -.5E-01   stopping-criterion for IOM
   NSW    =    300    number of steps for IOM
   NBLOCK =      1;   KBLOCK =    300    inner block; outer block 
   IBRION =      2    ionic relax: 0-MD 1-quasi-New 2-CG
   NFREE  =      1    steps in history (QN), initial steepest desc. (CG)
   ISIF   =      2    stress and relaxation
   IWAVPR =     11    prediction:  0-non 1-charg 2-wave 3-comb
   ISYM   =      2    0-nonsym 1-usesym 2-fastsym
   LCORR  =      T    Harris-Foulkes like correction to forces

   POTIM  = 0.5000    time-step for ionic-motion
   TEIN   =    0.0    initial temperature
   TEBEG  =    0.0;   TEEND  =   0.0 temperature during run
   SMASS  =  -3.00    Nose mass-parameter (am)
   estimated Nose-frequenzy (Omega)   =  0.10E-29 period in steps =****** mass=  -0.255E-26a.u.
   SCALEE = 1.0000    scale energy and forces
   NPACO  =    256;   APACO  = 16.0  distance and # of slots for P.C.
   PSTRESS=    0.0 pullay stress

  Mass of Ions in am
   POMASS =  63.55195.08  1.00
  Ionic Valenz
   ZVAL   =  11.00 10.00  1.00
  Atomic Wigner-Seitz radii
   RWIGS  =  -1.00 -1.00 -1.00
  virtual crystal weights 
   VCA    =   1.00  1.00  1.00
   NELECT =     866.0000    total number of electrons
   NUPDOWN=      -1.0000    fix difference up-down

 DOS related values:
   EMIN   =  10.00;   EMAX   =-10.00  energy-range for DOS
   EFERMI =   0.00
   ISMEAR =     1;   SIGMA  =   0.10  broadening in eV -4-tet -1-fermi 0-gaus

 Electronic relaxation 2 (details)
   IALGO  =     68    algorithm
   LDIAG  =      T    sub-space diagonalisation (order eigenvalues)
   LSUBROT=      F    optimize rotation matrix (better conditioning)
   TURBO    =      0    0=normal 1=particle mesh
   IRESTART =      0    0=no restart 2=restart with 2 vectors
   NREBOOT  =      0    no. of reboots
   NMIN     =      0    reboot dimension
   EREF     =   0.00    reference energy to select bands
   IMIX   =      4    mixing-type and parameters
     AMIX     =   0.40;   BMIX     =  1.00
     AMIX_MAG =   1.60;   BMIX_MAG =  1.00
     AMIN     =   0.10
     WC   =   100.;   INIMIX=   1;  MIXPRE=   1;  MAXMIX= -45

 Intra band minimization:
   WEIMIN = 0.0010     energy-eigenvalue tresh-hold
   EBREAK =  0.45E-08  absolut break condition
   DEPER  =   0.30     relativ break condition  

   TIME   =   0.40     timestep for ELM

  volume/ion in A,a.u.               =      25.91       174.85
  Fermi-wavevector in a.u.,A,eV,Ry     =   1.213818  2.293784 20.046215  1.473355
  Thomas-Fermi vector in A             =   2.349258
 
 Write flags
   LWAVE        =      F    write WAVECAR
   LDOWNSAMPLE  =      F    k-point downsampling of WAVECAR
   LCHARG       =      F    write CHGCAR
   LVTOT        =      F    write LOCPOT, total local potential
   LVHAR        =      F    write LOCPOT, Hartree potential only
   LELF         =      F    write electronic localiz. function (ELF)
   LORBIT       =      0    0 simple, 1 ext, 2 COOP (PROOUT), +10 PAW based schemes


 Dipole corrections
   LMONO  =      F    monopole corrections only (constant potential shift)
   LDIPOL =      F    correct potential (dipole corrections)
   IDIPOL =      0    1-x, 2-y, 3-z, 4-all directions 
   EPSILON=  1.0000000 bulk dielectric constant

 Exchange correlation treatment:
   GGA     =    --    GGA type
   LEXCH   =     8    internal setting for exchange type
   VOSKOWN=      0    Vosko Wilk Nusair interpolation
   LHFCALC =     F    Hartree Fock is set to
   LHFONE  =     F    Hartree Fock one center treatment
   AEXX    =    0.0000 exact exchange contribution

 Linear response parameters
   LEPSILON=     F    determine dielectric tensor
   LRPA    =     F    only Hartree local field effects (RPA)
   LNABLA  =     F    use nabla operator in PAW spheres
   LVEL    =     F    velocity operator in full k-point grid
   LINTERFAST=   F  fast interpolation
   KINTER  =     0    interpolate to denser k-point grid
   CSHIFT  =0.1000    complex shift for real part using Kramers Kronig
   OMEGAMAX=  -1.0    maximum frequency
   DEG_THRESHOLD= 0.2000000E-02 threshold for treating states as degnerate
   RTIME   =   -0.100 relaxation time in fs
  (WPLASMAI=    0.000 imaginary part of plasma frequency in eV, 0.658/RTIME)
   DFIELD  = 0.0000000 0.0000000 0.0000000 field for delta impulse in time
 
 Orbital magnetization related:
   ORBITALMAG=     F  switch on orbital magnetization
   LCHIMAG   =     F  perturbation theory with respect to B field
   DQ        =  0.001000  dq finite difference perturbation B field
   LLRAUG    =     F  two centre corrections for induced B field



--------------------------------------------------------------------------------------------------------


 conjugate gradient relaxation of ions
   using selective dynamics as specified on POSCAR
 charge density and potential will be updated during run
 spin polarized calculation
 RMM-DIIS sequential band-by-band and
  variant of blocked Davidson during initial phase
 perform sub-space diagonalisation
    before iterative eigenvector-optimisation
 modified Broyden-mixing scheme, WC =      100.0
 initial mixing is a Kerker type mixing with AMIX =  0.4000 and BMIX =      1.0000
 Hartree-type preconditioning will be used
 using additional bands          127
 real space projection scheme for non local part
 use partial core corrections
 calculate Harris-corrections to forces 
   (improved forces if not selfconsistent)
 use gradient corrections 
 use of overlap-Matrix (Vanderbilt PP)
 Methfessel and Paxton  Order N= 1 SIGMA  =   0.10


--------------------------------------------------------------------------------------------------------


  energy-cutoff  :      550.00
  volume of cell :     2124.62
      direct lattice vectors                 reciprocal lattice vectors
    10.560000420  0.000000000  0.000000000     0.094696966 -0.054673319  0.000000000
     5.280000210  9.145228627  0.000000000     0.000000000  0.109346638  0.000000000
     0.000000000  0.000000000 22.000000000     0.000000000  0.000000000  0.045454545

  length of vectors
    10.560000420 10.560000420 22.000000000     0.109346638  0.109346638  0.045454545


 
 k-points in units of 2pi/SCALE and weight: mesh auto                               
   0.00000000  0.00000000  0.00000000       0.250
   0.04734848 -0.02733666  0.00000000       0.250
   0.00000000  0.05467332  0.00000000       0.250
   0.04734848  0.02733666  0.00000000       0.250
 
 k-points in reciprocal lattice and weights: mesh auto                               
   0.00000000  0.00000000  0.00000000       0.250
   0.50000000  0.00000000  0.00000000       0.250
   0.00000000  0.50000000  0.00000000       0.250
   0.50000000  0.50000000  0.00000000       0.250
 
 position of ions in fractional coordinates (direct lattice) 
   0.78497804  0.86935243  0.31409378
   0.03485036  0.86979338  0.31397242
   0.03526724  0.61942058  0.31374126
   0.78624900  0.86835803  0.04490293
   0.03632593  0.86831096  0.04490378
   0.03629270  0.61834538  0.04490407
   0.61900594  0.20203528  0.13527817
   0.36902872  0.95201797  0.13527936
   0.03486223  0.36916372  0.31393661
   0.03632232  0.36834008  0.04490425
   0.86903544  0.20201704  0.13528693
   0.95210483  0.53549645  0.22451854
   0.28477205  0.11925161  0.31391068
   0.53473843  0.61912960  0.31733066
   0.28430895  0.36866229  0.31399199
   0.28627437  0.11834063  0.04490500
   0.53631616  0.61834530  0.04488591
   0.28635483  0.36832902  0.04489700
   0.61901160  0.95199349  0.13527291
   0.70178841  0.78553588  0.22471312
   0.86905623  0.70197733  0.13528016
   0.61901543  0.45202163  0.13527904
   0.28568802  0.86772774  0.31518389
   0.28633138  0.86834683  0.04488814
   0.61902971  0.70201856  0.13527944
   0.20232809  0.03491603  0.22494317
   0.53480695  0.37055601  0.31571362
   0.53629100  0.36836874  0.04488825
   0.53509268  0.11961381  0.31374444
   0.53631492  0.11831875  0.04489277
   0.86908216  0.45197647  0.13527762
   0.11905660  0.45201537  0.13528985
   0.03464986  0.11899104  0.31417940
   0.03628167  0.11834476  0.04490753
   0.11906013  0.95198965  0.13527885
   0.45241348  0.53615823  0.22588357
   0.36902445  0.20201498  0.13528569
   0.11903031  0.20204112  0.13529147
   0.95203680  0.78574171  0.22461305
   0.78558727  0.61911701  0.31410483
   0.28621384  0.61919800  0.31574583
   0.78625855  0.61835147  0.04489831
   0.28631485  0.61834448  0.04489351
   0.36906041  0.70200853  0.13527467
   0.36902898  0.45201831  0.13528487
   0.20172222  0.28550047  0.22449402
   0.78332499  0.37007392  0.31516455
   0.78624559  0.36836494  0.04489780
   0.95215739  0.03592008  0.22459585
   0.45225857  0.78457146  0.22548013
   0.70085915  0.53597025  0.22546831
   0.20265813  0.78525154  0.22515773
   0.45174696  0.03587840  0.22449091
   0.11907534  0.70197617  0.13528836
   0.70200145  0.03578559  0.22460132
   0.78538258  0.11921968  0.31398366
   0.53471820  0.87003288  0.31409760
   0.78630020  0.11833290  0.04491016
   0.53626603  0.86832649  0.04487574
   0.20294060  0.53586996  0.22505714
   0.95116171  0.28609072  0.22495753
   0.86907018  0.95198510  0.13528489
   0.70149657  0.28639947  0.22514677
   0.45211939  0.28668268  0.22504242
   0.86855413  0.95386710  0.41297173
   0.11644552  0.45355031  0.41281073
   0.11737405  0.95379550  0.41342086
   0.87057730  0.45193469  0.41268874
   0.36656599  0.95589679  0.41264687
   0.86835366  0.20283610  0.41343783
   0.11728765  0.20265263  0.41284204
   0.61714382  0.95512877  0.41274286
   0.86980967  0.70247536  0.41275144
   0.36819596  0.20178296  0.41279109
   0.36320166  0.70813780  0.41875345
   0.62280656  0.44856023  0.41865839
   0.11498920  0.70474630  0.41252036
   0.61936534  0.20037534  0.41256432
   0.36388457  0.44909150  0.41511759
   0.62219756  0.70751233  0.41482486
   0.47387542  0.55543938  0.54649350
   0.51654412  0.59528735  0.54666494
 
 position of ions in cartesian coordinates  (Angst):
  12.87954947  7.95042673  6.91006305
   4.96052906  7.95445934  6.90739334
   3.64296280  5.66474280  6.90230775
  12.88772033  7.94133272  0.98786446
   4.96828393  7.94090224  0.98788306
   3.64811462  5.65490987  0.98788947
   7.60344927  1.84765881  2.97611975
   8.92359848  8.70642196  2.97614598
   2.31732968  3.37608665  6.90660536
   2.32839939  3.36855426  0.98789358
  10.24366464  1.84749206  2.97631248
  12.88164878  4.89723744  4.93940783
   3.63684154  1.09058324  6.90603493
   8.91584249  5.66208170  6.98127460
   4.94883963  3.37150091  6.90782378
   3.64789606  1.08225215  0.98791005
   8.92836215  5.65490912  0.98748999
   4.96868441  3.36845313  0.98773405
  11.56328854  8.70619814  2.97600392
  11.55851552  7.18390518  4.94368871
  12.88367467  6.41974322  2.97616357
   8.92347749  4.13384112  2.97613890
   7.59846823  7.93556855  6.93404548
   7.60853096  7.94123032  0.98753917
  10.24361217  6.42012028  2.97614778
   2.32094143  0.31931512  4.94874984
   7.60409746  3.38881945  6.94569974
   7.60822020  3.36881638  0.98754146
   6.28213990  1.09389567  6.90237773
   6.28820881  1.08205200  0.98764103
  11.56394379  4.13342813  2.97610764
   3.64387901  4.13378388  2.97637661
   0.99417527  1.08820031  6.91194676
   1.00799478  1.08228986  0.98796576
   6.28378054  8.70616301  2.97613461
   7.60840208  4.90328959  4.96943852
   4.96353744  1.84747315  2.97628524
   2.32373725  1.84771228  2.97641232
  14.20222543  7.18578761  4.94148719
  11.56473979  5.66196658  6.91030617
   6.29178381  5.66270731  6.94640820
  11.56778653  5.65496554  0.98776285
   6.28834392  5.65490162  0.98765720
   7.60388330  6.42002854  2.97604272
   6.28360299  4.13381078  2.97626705
   3.63762932  2.61096709  4.93886835
  10.22590265  3.38441065  6.93362011
  10.24772068  3.36878157  0.98775169
  10.24444053  0.32849737  4.94110869
   8.91838817  7.17508539  4.96056286
  10.23099594  4.90157051  4.96030283
   6.28619819  7.18130487  4.95347002
   4.95988601  0.32811618  4.93880006
   4.96386992  6.41973253  2.97634381
   7.60208353  0.32726742  4.94122907
   8.92312026  1.09029122  6.90764049
  10.24039821  7.95664958  6.91014715
   8.92812813  1.08218139  0.98802358
  10.24773354  7.94104423  0.98726635
   4.97244628  4.90065326  4.95125700
  11.55482708  2.61636505  4.94906576
  14.20386302  8.70612141  2.97626755
   8.91999327  2.61918861  4.95322886
   6.28806559  2.62177865  4.95093316
  14.20835051  8.72333273  9.08537806
   3.62441041  4.14782123  9.08183611
   6.27551051  8.72267795  9.09525900
  11.57951192  4.13304603  9.07915221
   8.91807221  8.74189468  9.07823114
  10.24078970  1.85498253  9.09563230
   2.30856360  1.85330466  9.08252498
  11.56011906  8.73487097  9.08034294
  12.89426052  6.42429774  9.08053169
   4.95356356  1.84535129  9.08140401
   7.57437741  6.47608211  9.21257583
   8.94523569  4.10218589  9.21048463
   4.93534665  6.44506601  9.07544781
   7.59848009  1.83247834  9.07641508
   6.21382447  4.10704444  9.13258707
  10.30607172  6.47036204  9.12614685
   7.93684469  5.07962009 12.02285699
   8.59782344  5.44403890 12.02662877
 


--------------------------------------------------------------------------------------------------------


 k-point  1 :   0.0000 0.0000 0.0000  plane waves:   62167
 k-point  2 :   0.5000 0.0000 0.0000  plane waves:   62242
 k-point  3 :   0.0000 0.5000 0.0000  plane waves:   62242
 k-point  4 :   0.5000 0.5000 0.0000  plane waves:   62242

 maximum and minimum number of plane-waves per node :     15586    15521

 maximum number of plane-waves:     62242
 maximum index in each direction: 
   IXMAX=   20   IYMAX=   20   IZMAX=   42
   IXMIN=  -20   IYMIN=  -20   IZMIN=  -42


 real space projection operators:
  total allocation   :      84962.03 KBytes
  max/ min on nodes  :      21247.12      21233.95


 parallel 3D FFT for wavefunctions:
    minimum data exchange during FFTs selected (reduces bandwidth)
 parallel 3D FFT for charge:
    minimum data exchange during FFTs selected (reduces bandwidth)


 total amount of memory used by VASP MPI-rank0   248540. kBytes
=======================================================================

   base      :      30000. kBytes
   nonlr-proj:      37017. kBytes
   fftplans  :      17962. kBytes
   grid      :      48722. kBytes
   one-center:        653. kBytes
   wavefun   :     114186. kBytes
 
     INWAV:  cpu time    0.0000: real time    0.0000
 Broyden mixing: mesh for mixing (old mesh)
   NGX = 41   NGY = 41   NGZ = 85
  (NGX  =168   NGY  =168   NGZ  =336)
  gives a total of 142885 points

 initial charge density was supplied:
 charge density of overlapping atoms calculated
 number of electron     866.0000000 magnetization      82.0000000
 keeping initial charge density in first step


--------------------------------------------------------------------------------------------------------


 Maximum index for non-local projection operator         1912
 Maximum index for augmentation-charges         1208 (set IRDMAX)


--------------------------------------------------------------------------------------------------------


 First call to EWALD:  gamma=   0.138
 Maximum number of real-space cells 4x 4x 2
 Maximum number of reciprocal cells 2x 2x 4

    FEWALD:  cpu time    0.0044: real time    0.0044


--------------------------------------- Iteration      1(   1)  ---------------------------------------


    POTLOK:  cpu time    0.4218: real time    0.4244
    SETDIJ:  cpu time    0.0307: real time    0.0311
     EDDAV:  cpu time   64.9021: real time   65.1691
       DOS:  cpu time    0.0017: real time    0.0020
    --------------------------------------------
      LOOP:  cpu time   65.3563: real time   65.6266

 eigenvalue-minimisations  :  8960
 total energy-change (2. order) : 0.9691514E+04  (-0.3656651E+05)
 number of electron     866.0000000 magnetization      82.0000000
 augmentation part      866.0000000 magnetization      82.0000000

 Free energy of the ion-electron system (eV)
  ---------------------------------------------------
  alpha Z        PSCENC =      2356.26949328
  Ewald energy   TEWEN  =    309834.75492899
  -Hartree energ DENC   =   -409466.85269068
  -exchange      EXHF   =         0.00000000
  -V(xc)+E(xc)   XCENC  =      2989.16066186
  PAW double counting   =     89738.56882376   -96058.82040362
  entropy T*S    EENTRO =         0.00254996
  eigenvalues    EBANDS =      9585.06549122
  atomic energy  EATOM  =    100713.36531073
  Solvation  Ediel_sol  =         0.00000000
  ---------------------------------------------------
  free energy    TOTEN  =      9691.51416550 eV

  energy without entropy =     9691.51161554  energy(sigma->0) =     9691.51331551


--------------------------------------------------------------------------------------------------------




--------------------------------------- Iteration      1(   2)  ---------------------------------------


     EDDAV:  cpu time   64.7560: real time   64.9094
       DOS:  cpu time    0.0018: real time    0.0018
    --------------------------------------------
      LOOP:  cpu time   64.7578: real time   64.9112

 eigenvalue-minimisations  :  8960
 total energy-change (2. order) :-0.7800969E+04  (-0.7347209E+04)
 number of electron     866.0000000 magnetization      82.0000000
 augmentation part      866.0000000 magnetization      82.0000000

 Free energy of the ion-electron system (eV)
  ---------------------------------------------------
  alpha Z        PSCENC =      2356.26949328
  Ewald energy   TEWEN  =    309834.75492899
  -Hartree energ DENC   =   -409466.85269068
  -exchange      EXHF   =         0.00000000
  -V(xc)+E(xc)   XCENC  =      2989.16066186
  PAW double counting   =     89738.56882376   -96058.82040362
  entropy T*S    EENTRO =        -0.00911586
  eigenvalues    EBANDS =      1784.10819896
  atomic energy  EATOM  =    100713.36531073
  Solvation  Ediel_sol  =         0.00000000
  ---------------------------------------------------
  free energy    TOTEN  =      1890.54520742 eV

  energy without entropy =     1890.55432329  energy(sigma->0) =     1890.54824604


--------------------------------------------------------------------------------------------------------




--------------------------------------- Iteration      1(   3)  ---------------------------------------


     EDDAV:  cpu time   65.0237: real time   65.1807
       DOS:  cpu time    0.0020: real time    0.0020
    --------------------------------------------
      LOOP:  cpu time   65.0257: real time   65.1827

 eigenvalue-minimisations  :  8990
 total energy-change (2. order) :-0.1954403E+04  (-0.1707608E+04)
 number of electron     866.0000000 magnetization      82.0000000
 augmentation part      866.0000000 magnetization      82.0000000

 Free energy of the ion-electron system (eV)
  ---------------------------------------------------
  alpha Z        PSCENC =      2356.26949328
  Ewald energy   TEWEN  =    309834.75492899
  -Hartree energ DENC   =   -409466.85269068
  -exchange      EXHF   =         0.00000000
  -V(xc)+E(xc)   XCENC  =      2989.16066186
  PAW double counting   =     89738.56882376   -96058.82040362
  entropy T*S    EENTRO =        -0.00439032
  eigenvalues    EBANDS =      -170.29998822
  atomic energy  EATOM  =    100713.36531073
  Solvation  Ediel_sol  =         0.00000000
  ---------------------------------------------------
  free energy    TOTEN  =       -63.85825422 eV

  energy without entropy =      -63.85386390  energy(sigma->0) =      -63.85679078


--------------------------------------------------------------------------------------------------------




--------------------------------------- Iteration      1(   4)  ---------------------------------------


     EDDAV:  cpu time   89.4921: real time   89.7040
       DOS:  cpu time    0.0021: real time    0.0021
    --------------------------------------------
      LOOP:  cpu time   89.4942: real time   89.7061

 eigenvalue-minimisations  : 13490
 total energy-change (2. order) :-0.2910471E+03  (-0.2501321E+03)
 number of electron     866.0000000 magnetization      82.0000000
 augmentation part      866.0000000 magnetization      82.0000000

 Free energy of the ion-electron system (eV)
  ---------------------------------------------------
  alpha Z        PSCENC =      2356.26949328
  Ewald energy   TEWEN  =    309834.75492899
  -Hartree energ DENC   =   -409466.85269068
  -exchange      EXHF   =         0.00000000
  -V(xc)+E(xc)   XCENC  =      2989.16066186
  PAW double counting   =     89738.56882376   -96058.82040362
  entropy T*S    EENTRO =         0.00420657
  eigenvalues    EBANDS =      -461.35570617
  atomic energy  EATOM  =    100713.36531073
  Solvation  Ediel_sol  =         0.00000000
  ---------------------------------------------------
  free energy    TOTEN  =      -354.90537528 eV

  energy without entropy =     -354.90958185  energy(sigma->0) =     -354.90677747


--------------------------------------------------------------------------------------------------------




--------------------------------------- Iteration      1(   5)  ---------------------------------------


     EDDAV:  cpu time   88.7313: real time   88.9481
       DOS:  cpu time    0.0023: real time    0.0049
    CHARGE:  cpu time    4.3310: real time    4.3415
    MIXING:  cpu time    0.0099: real time    0.0106
    --------------------------------------------
      LOOP:  cpu time   93.0746: real time   93.3051

 eigenvalue-minimisations  : 13360
 total energy-change (2. order) :-0.1713985E+02  (-0.1652874E+02)
 number of electron     866.0000373 magnetization      73.7931237
 augmentation part      462.4064072 magnetization      71.3219226

 Broyden mixing:
  rms(total) = 0.90288E+01    rms(broyden)= 0.90287E+01
  rms(prec ) = 0.93436E+01
  weight for this iteration     100.00

 Free energy of the ion-electron system (eV)
  ---------------------------------------------------
  alpha Z        PSCENC =      2356.26949328
  Ewald energy   TEWEN  =    309834.75492899
  -Hartree energ DENC   =   -409466.85269068
  -exchange      EXHF   =         0.00000000
  -V(xc)+E(xc)   XCENC  =      2989.16066186
  PAW double counting   =     89738.56882376   -96058.82040362
  entropy T*S    EENTRO =         0.02785292
  eigenvalues    EBANDS =      -478.51920705
  atomic energy  EATOM  =    100713.36531073
  Solvation  Ediel_sol  =         0.00000000
  ---------------------------------------------------
  free energy    TOTEN  =      -372.04522981 eV

  energy without entropy =     -372.07308273  energy(sigma->0) =     -372.05451412


--------------------------------------------------------------------------------------------------------




--------------------------------------- Iteration      1(   6)  ---------------------------------------


    POTLOK:  cpu time    0.4026: real time    0.4047
    SETDIJ:  cpu time    0.0302: real time    0.0303
    EDDIAG:  cpu time   11.2008: real time   11.2286
  RMM-DIIS:  cpu time   39.0508: real time   39.1438
    ORTHCH:  cpu time    1.2070: real time    1.2098
       DOS:  cpu time    0.0020: real time    0.0021
    CHARGE:  cpu time    4.3431: real time    4.3533
    MIXING:  cpu time    0.0097: real time    0.0100
    --------------------------------------------
      LOOP:  cpu time   56.2462: real time   56.3826

 eigenvalue-minimisations  :  8993
 total energy-change (2. order) :-0.4441736E+01  (-0.7829726E+02)
 number of electron     866.0000431 magnetization      70.5563905
 augmentation part      513.8352606 magnetization      47.8173131

 Broyden mixing:
  rms(total) = 0.62040E+01    rms(broyden)= 0.62039E+01
  rms(prec ) = 0.90282E+01
  weight for this iteration     100.00

 eigenvalues of (default mixing * dielectric matrix)
  average eigenvalue GAMMA=   0.7259
  0.7259

 Free energy of the ion-electron system (eV)
  ---------------------------------------------------
  alpha Z        PSCENC =      2356.26949328
  Ewald energy   TEWEN  =    309834.75492899
  -Hartree energ DENC   =   -407357.20999226
  -exchange      EXHF   =         0.00000000
  -V(xc)+E(xc)   XCENC  =      2909.52523856
  PAW double counting   =     92185.05401929   -98155.03830550
  entropy T*S    EENTRO =         0.04531514
  eigenvalues    EBANDS =     -2863.25297380
  atomic energy  EATOM  =    100713.36531073
  Solvation  Ediel_sol  =         0.00000000
  ---------------------------------------------------
  free energy    TOTEN  =      -376.48696558 eV

  energy without entropy =     -376.53228071  energy(sigma->0) =     -376.50207062


--------------------------------------------------------------------------------------------------------




--------------------------------------- Iteration      1(   7)  ---------------------------------------


    POTLOK:  cpu time    0.4056: real time    0.4065
    SETDIJ:  cpu time    0.0304: real time    0.0305
    EDDIAG:  cpu time   11.1095: real time   11.1358
  RMM-DIIS:  cpu time   41.3734: real time   41.4711
    ORTHCH:  cpu time    1.2037: real time    1.2066
       DOS:  cpu time    0.0022: real time    0.0022
    CHARGE:  cpu time    4.3258: real time    4.3361
    MIXING:  cpu time    0.0103: real time    0.0103
    --------------------------------------------
      LOOP:  cpu time   58.4609: real time   58.5991

 eigenvalue-minimisations  :  9543
 total energy-change (2. order) :-0.6420808E+02  (-0.2441639E+02)
 number of electron     866.0000360 magnetization      68.3210079
 augmentation part      485.8035875 magnetization      50.3159623

 Broyden mixing:
  rms(total) = 0.10587E+02    rms(broyden)= 0.10587E+02
  rms(prec ) = 0.14644E+02
  weight for this iteration     100.00

 eigenvalues of (default mixing * dielectric matrix)
  average eigenvalue GAMMA=   0.4479
  0.7882  0.1077

 Free energy of the ion-electron system (eV)
  ---------------------------------------------------
  alpha Z        PSCENC =      2356.26949328
  Ewald energy   TEWEN  =    309834.75492899
  -Hartree energ DENC   =   -408719.88351862
  -exchange      EXHF   =         0.00000000
  -V(xc)+E(xc)   XCENC  =      2935.43512229
  PAW double counting   =     93943.39790622  -100264.15496286
  entropy T*S    EENTRO =        -0.01780038
  eigenvalues    EBANDS =     -1239.86152737
  atomic energy  EATOM  =    100713.36531073
  Solvation  Ediel_sol  =         0.00000000
  ---------------------------------------------------
  free energy    TOTEN  =      -440.69504772 eV

  energy without entropy =     -440.67724734  energy(sigma->0) =     -440.68911426


--------------------------------------------------------------------------------------------------------




--------------------------------------- Iteration      1(   8)  ---------------------------------------


    POTLOK:  cpu time    0.4047: real time    0.4057
    SETDIJ:  cpu time    0.0301: real time    0.0302
    EDDIAG:  cpu time   11.1000: real time   11.1264
  RMM-DIIS:  cpu time   39.3686: real time   39.4616
    ORTHCH:  cpu time    1.2100: real time    1.2129
       DOS:  cpu time    0.0021: real time    0.0021
    CHARGE:  cpu time    4.2575: real time    4.2676
    MIXING:  cpu time    0.0102: real time    0.0102
    --------------------------------------------
      LOOP:  cpu time   56.3832: real time   56.5166

 eigenvalue-minimisations  :  9039
 total energy-change (2. order) : 0.8878864E+02  (-0.3106319E+01)
 number of electron     866.0000401 magnetization      65.7853588
 augmentation part      495.3758851 magnetization      50.5656691

 Broyden mixing:
  rms(total) = 0.65096E+01    rms(broyden)= 0.65095E+01
  rms(prec ) = 0.77759E+01
  weight for this iteration     100.00

 eigenvalues of (default mixing * dielectric matrix)
  average eigenvalue GAMMA=   0.4250
  0.8726  0.2011  0.2011

 Free energy of the ion-electron system (eV)
  ---------------------------------------------------
  alpha Z        PSCENC =      2356.26949328
  Ewald energy   TEWEN  =    309834.75492899
  -Hartree energ DENC   =   -408745.01624289
  -exchange      EXHF   =         0.00000000
  -V(xc)+E(xc)   XCENC  =      2932.90126774
  PAW double counting   =     94806.46599271  -101185.57944363
  entropy T*S    EENTRO =        -0.07426553
  eigenvalues    EBANDS =     -1064.99344870
  atomic energy  EATOM  =    100713.36531073
  Solvation  Ediel_sol  =         0.00000000
  ---------------------------------------------------
  free energy    TOTEN  =      -351.90640730 eV

  energy without entropy =     -351.83214177  energy(sigma->0) =     -351.88165212


--------------------------------------------------------------------------------------------------------




--------------------------------------- Iteration      1(   9)  ---------------------------------------


    POTLOK:  cpu time    0.4035: real time    0.4045
    SETDIJ:  cpu time    0.0304: real time    0.0305
    EDDIAG:  cpu time   11.1151: real time   11.1416
  RMM-DIIS:  cpu time   39.4828: real time   39.5761
    ORTHCH:  cpu time    1.2066: real time    1.2094
       DOS:  cpu time    0.0021: real time    0.0021
    CHARGE:  cpu time    4.2594: real time    4.2696
    MIXING:  cpu time    0.0103: real time    0.0104
    --------------------------------------------
      LOOP:  cpu time   56.5102: real time   56.6441

 eigenvalue-minimisations  :  9080
 total energy-change (2. order) : 0.3615509E+02  (-0.2869302E+01)
 number of electron     866.0000395 magnetization      59.8473735
 augmentation part      500.0255017 magnetization      44.0618259

 Broyden mixing:
  rms(total) = 0.41169E+01    rms(broyden)= 0.41169E+01
  rms(prec ) = 0.53623E+01
  weight for this iteration     100.00

 eigenvalues of (default mixing * dielectric matrix)
  average eigenvalue GAMMA=   0.5231
  0.9689  0.4711  0.4711  0.1814

 Free energy of the ion-electron system (eV)
  ---------------------------------------------------
  alpha Z        PSCENC =      2356.26949328
  Ewald energy   TEWEN  =    309834.75492899
  -Hartree energ DENC   =   -408396.21377129
  -exchange      EXHF   =         0.00000000
  -V(xc)+E(xc)   XCENC  =      2936.19033091
  PAW double counting   =     95490.70510851  -101897.22936724
  entropy T*S    EENTRO =        -0.03594295
  eigenvalues    EBANDS =     -1353.55740753
  atomic energy  EATOM  =    100713.36531073
  Solvation  Ediel_sol  =         0.00000000
  ---------------------------------------------------
  free energy    TOTEN  =      -315.75131660 eV

  energy without entropy =     -315.71537365  energy(sigma->0) =     -315.73933562


--------------------------------------------------------------------------------------------------------




--------------------------------------- Iteration      1(  10)  ---------------------------------------


    POTLOK:  cpu time    0.4051: real time    0.4060
    SETDIJ:  cpu time    0.0305: real time    0.0306
    EDDIAG:  cpu time   11.1192: real time   11.1457
  RMM-DIIS:  cpu time   39.4158: real time   39.5227
    ORTHCH:  cpu time    1.2314: real time    1.2347
       DOS:  cpu time    0.0021: real time    0.0021
    CHARGE:  cpu time    4.3342: real time    4.3462
    MIXING:  cpu time    0.0110: real time    0.0110
    --------------------------------------------
      LOOP:  cpu time   56.5493: real time   56.6990

 eigenvalue-minimisations  :  9051
 total energy-change (2. order) : 0.2655931E+02  (-0.4268476E+01)
 number of electron     866.0000394 magnetization      55.3097864
 augmentation part      495.0243724 magnetization      37.0382152

 Broyden mixing:
  rms(total) = 0.26981E+01    rms(broyden)= 0.26981E+01
  rms(prec ) = 0.30436E+01
  weight for this iteration     100.00

 eigenvalues of (default mixing * dielectric matrix)
  average eigenvalue GAMMA=   0.5750
  1.1200  0.6393  0.6393  0.2932  0.1833

 Free energy of the ion-electron system (eV)
  ---------------------------------------------------
  alpha Z        PSCENC =      2356.26949328
  Ewald energy   TEWEN  =    309834.75492899
  -Hartree energ DENC   =   -408495.94194500
  -exchange      EXHF   =         0.00000000
  -V(xc)+E(xc)   XCENC  =      2951.48925377
  PAW double counting   =     96812.61480107  -103272.02541727
  entropy T*S    EENTRO =         0.01688958
  eigenvalues    EBANDS =     -1189.73531939
  atomic energy  EATOM  =    100713.36531073
  Solvation  Ediel_sol  =         0.00000000
  ---------------------------------------------------
  free energy    TOTEN  =      -289.19200425 eV

  energy without entropy =     -289.20889383  energy(sigma->0) =     -289.19763411


--------------------------------------------------------------------------------------------------------




--------------------------------------- Iteration      1(  11)  ---------------------------------------


    POTLOK:  cpu time    0.4009: real time    0.4018
    SETDIJ:  cpu time    0.0304: real time    0.0305
    EDDIAG:  cpu time   11.1028: real time   11.1335
  RMM-DIIS:  cpu time   39.2472: real time   39.3565
    ORTHCH:  cpu time    1.2109: real time    1.2141
       DOS:  cpu time    0.0022: real time    0.0022
    CHARGE:  cpu time    4.2936: real time    4.3100
    MIXING:  cpu time    0.0115: real time    0.0115
    --------------------------------------------
      LOOP:  cpu time   56.2996: real time   56.4602

 eigenvalue-minimisations  :  9014
 total energy-change (2. order) : 0.4329786E+01  (-0.1767857E+01)
 number of electron     866.0000403 magnetization      52.1306802
 augmentation part      496.1101259 magnetization      38.7867892

 Broyden mixing:
  rms(total) = 0.19919E+01    rms(broyden)= 0.19919E+01
  rms(prec ) = 0.20903E+01
  weight for this iteration     100.00

 eigenvalues of (default mixing * dielectric matrix)
  average eigenvalue GAMMA=   0.5580
  1.3280  0.5476  0.5476  0.4705  0.1845  0.2696

 Free energy of the ion-electron system (eV)
  ---------------------------------------------------
  alpha Z        PSCENC =      2356.26949328
  Ewald energy   TEWEN  =    309834.75492899
  -Hartree energ DENC   =   -408486.42318230
  -exchange      EXHF   =         0.00000000
  -V(xc)+E(xc)   XCENC  =      2949.17667619
  PAW double counting   =     97512.02022095  -103986.40716248
  entropy T*S    EENTRO =         0.01317109
  eigenvalues    EBANDS =     -1177.63167487
  atomic energy  EATOM  =    100713.36531073
  Solvation  Ediel_sol  =         0.00000000
  ---------------------------------------------------
  free energy    TOTEN  =      -284.86221842 eV

  energy without entropy =     -284.87538951  energy(sigma->0) =     -284.86660879


--------------------------------------------------------------------------------------------------------




--------------------------------------- Iteration      1(  12)  ---------------------------------------


    POTLOK:  cpu time    0.4050: real time    0.4060
    SETDIJ:  cpu time    0.0304: real time    0.0305
    EDDIAG:  cpu time   11.1333: real time   11.1663
  RMM-DIIS:  cpu time   39.3019: real time   39.3989
    ORTHCH:  cpu time    1.2124: real time    1.2152
       DOS:  cpu time    0.0023: real time    0.0023
    CHARGE:  cpu time    4.2326: real time    4.2425
    MIXING:  cpu time    0.0124: real time    0.0124
    --------------------------------------------
      LOOP:  cpu time   56.3303: real time   56.4742

 eigenvalue-minimisations  :  9056
 total energy-change (2. order) : 0.6828598E+00  (-0.1621004E+00)
 number of electron     866.0000403 magnetization      35.7692708
 augmentation part      497.3872340 magnetization      22.3759841

 Broyden mixing:
  rms(total) = 0.16538E+01    rms(broyden)= 0.16538E+01
  rms(prec ) = 0.17174E+01
  weight for this iteration     100.00

 eigenvalues of (default mixing * dielectric matrix)
  average eigenvalue GAMMA=   0.7052
  1.4237  1.0225  0.7959  0.7959  0.1842  0.2864  0.4278

 Free energy of the ion-electron system (eV)
  ---------------------------------------------------
  alpha Z        PSCENC =      2356.26949328
  Ewald energy   TEWEN  =    309834.75492899
  -Hartree energ DENC   =   -408479.26393827
  -exchange      EXHF   =         0.00000000
  -V(xc)+E(xc)   XCENC  =      2945.65972175
  PAW double counting   =     97809.81280749  -104290.30360536
  entropy T*S    EENTRO =        -0.00424466
  eigenvalues    EBANDS =     -1174.46983260
  atomic energy  EATOM  =    100713.36531073
  Solvation  Ediel_sol  =         0.00000000
  ---------------------------------------------------
  free energy    TOTEN  =      -284.17935866 eV

  energy without entropy =     -284.17511400  energy(sigma->0) =     -284.17794377


--------------------------------------------------------------------------------------------------------




--------------------------------------- Iteration      1(  13)  ---------------------------------------


    POTLOK:  cpu time    0.4051: real time    0.4060
    SETDIJ:  cpu time    0.0305: real time    0.0306
    EDDIAG:  cpu time   11.1128: real time   11.1395
  RMM-DIIS:  cpu time   39.5470: real time   39.6404
    ORTHCH:  cpu time    1.2081: real time    1.2110
       DOS:  cpu time    0.0023: real time    0.0023
    CHARGE:  cpu time    4.2241: real time    4.2341
    MIXING:  cpu time    0.0118: real time    0.0118
    --------------------------------------------
      LOOP:  cpu time   56.5417: real time   56.6757

 eigenvalue-minimisations  :  9078
 total energy-change (2. order) :-0.1539922E+02  (-0.1333097E+01)
 number of electron     866.0000405 magnetization      30.2632983
 augmentation part      501.3822857 magnetization      16.5761388

 Broyden mixing:
  rms(total) = 0.18610E+01    rms(broyden)= 0.18610E+01
  rms(prec ) = 0.23042E+01
  weight for this iteration     100.00

 eigenvalues of (default mixing * dielectric matrix)
  average eigenvalue GAMMA=   0.7882
  1.6856  1.6856  0.7143  0.7143  0.6010  0.1842  0.4308  0.2896

 Free energy of the ion-electron system (eV)
  ---------------------------------------------------
  alpha Z        PSCENC =      2356.26949328
  Ewald energy   TEWEN  =    309834.75492899
  -Hartree energ DENC   =   -408536.08380667
  -exchange      EXHF   =         0.00000000
  -V(xc)+E(xc)   XCENC  =      2928.47317318
  PAW double counting   =     98648.14730084  -105150.06100480
  entropy T*S    EENTRO =         0.02087460
  eigenvalues    EBANDS =     -1094.46485226
  atomic energy  EATOM  =    100713.36531073
  Solvation  Ediel_sol  =         0.00000000
  ---------------------------------------------------
  free energy    TOTEN  =      -299.57858210 eV

  energy without entropy =     -299.59945670  energy(sigma->0) =     -299.58554030


--------------------------------------------------------------------------------------------------------




--------------------------------------- Iteration      1(  14)  ---------------------------------------


    POTLOK:  cpu time    0.4047: real time    0.4057
    SETDIJ:  cpu time    0.0304: real time    0.0304
    EDDIAG:  cpu time   11.0960: real time   11.1225
  RMM-DIIS:  cpu time   39.2754: real time   39.3757
    ORTHCH:  cpu time    1.1995: real time    1.2027
       DOS:  cpu time    0.0023: real time    0.0023
    CHARGE:  cpu time    4.2429: real time    4.2548
    MIXING:  cpu time    0.0124: real time    0.0124
    --------------------------------------------
      LOOP:  cpu time   56.2636: real time   56.4065

 eigenvalue-minimisations  :  9007
 total energy-change (2. order) :-0.5318529E+01  (-0.4886449E+00)
 number of electron     866.0000407 magnetization      19.8204916
 augmentation part      500.3828443 magnetization      11.4373474

 Broyden mixing:
  rms(total) = 0.10578E+01    rms(broyden)= 0.10578E+01
  rms(prec ) = 0.11536E+01
  weight for this iteration     100.00

 eigenvalues of (default mixing * dielectric matrix)
  average eigenvalue GAMMA=   0.9119
  3.3570  1.3961  0.6754  0.6754  0.7188  0.1842  0.5189  0.2909  0.3903

 Free energy of the ion-electron system (eV)
  ---------------------------------------------------
  alpha Z        PSCENC =      2356.26949328
  Ewald energy   TEWEN  =    309834.75492899
  -Hartree energ DENC   =   -408542.57026431
  -exchange      EXHF   =         0.00000000
  -V(xc)+E(xc)   XCENC  =      2924.85513671
  PAW double counting   =     98815.68480499  -105317.64208282
  entropy T*S    EENTRO =        -0.01374322
  eigenvalues    EBANDS =     -1089.60069528
  atomic energy  EATOM  =    100713.36531073
  Solvation  Ediel_sol  =         0.00000000
  ---------------------------------------------------
  free energy    TOTEN  =      -304.89711093 eV

  energy without entropy =     -304.88336771  energy(sigma->0) =     -304.89252986


--------------------------------------------------------------------------------------------------------




--------------------------------------- Iteration      1(  15)  ---------------------------------------


    POTLOK:  cpu time    0.4040: real time    0.4050
    SETDIJ:  cpu time    0.0306: real time    0.0307
    EDDIAG:  cpu time   11.1147: real time   11.1452
  RMM-DIIS:  cpu time   39.2795: real time   39.3871
    ORTHCH:  cpu time    1.1988: real time    1.2020
       DOS:  cpu time    0.0022: real time    0.0022
    CHARGE:  cpu time    4.2485: real time    4.2599
    MIXING:  cpu time    0.0126: real time    0.0127
    --------------------------------------------
      LOOP:  cpu time   56.2910: real time   56.4448

 eigenvalue-minimisations  :  9017
 total energy-change (2. order) :-0.8165736E+01  (-0.4543399E+00)
 number of electron     866.0000407 magnetization       9.7492886
 augmentation part      500.0542961 magnetization       3.3978756

 Broyden mixing:
  rms(total) = 0.83159E+00    rms(broyden)= 0.83159E+00
  rms(prec ) = 0.94062E+00
  weight for this iteration     100.00

 eigenvalues of (default mixing * dielectric matrix)
  average eigenvalue GAMMA=   1.0901
  5.0981  1.1879  1.1879  0.7325  0.7325  0.6457  0.1842  0.2912  0.4695  0.3715

 Free energy of the ion-electron system (eV)
  ---------------------------------------------------
  alpha Z        PSCENC =      2356.26949328
  Ewald energy   TEWEN  =    309834.75492899
  -Hartree energ DENC   =   -408608.04934612
  -exchange      EXHF   =         0.00000000
  -V(xc)+E(xc)   XCENC  =      2919.85140460
  PAW double counting   =     99050.09422271  -105564.99383454
  entropy T*S    EENTRO =        -0.02100891
  eigenvalues    EBANDS =     -1014.33401806
  atomic energy  EATOM  =    100713.36531073
  Solvation  Ediel_sol  =         0.00000000
  ---------------------------------------------------
  free energy    TOTEN  =      -313.06284733 eV

  energy without entropy =     -313.04183842  energy(sigma->0) =     -313.05584436


--------------------------------------------------------------------------------------------------------




--------------------------------------- Iteration      1(  16)  ---------------------------------------


    POTLOK:  cpu time    0.4008: real time    0.4017
    SETDIJ:  cpu time    0.0308: real time    0.0309
    EDDIAG:  cpu time   11.0882: real time   11.1190
  RMM-DIIS:  cpu time   39.1283: real time   39.2342
    ORTHCH:  cpu time    1.2168: real time    1.2197
       DOS:  cpu time    0.0022: real time    0.0022
    CHARGE:  cpu time    4.2287: real time    4.2388
    MIXING:  cpu time    0.0126: real time    0.0126
    --------------------------------------------
      LOOP:  cpu time   56.1085: real time   56.2592

 eigenvalue-minimisations  :  9005
 total energy-change (2. order) :-0.7765445E+01  (-0.5884480E+00)
 number of electron     866.0000404 magnetization       8.0612377
 augmentation part      499.6576643 magnetization       1.5894797

 Broyden mixing:
  rms(total) = 0.12873E+01    rms(broyden)= 0.12873E+01
  rms(prec ) = 0.15761E+01
  weight for this iteration     100.00

 eigenvalues of (default mixing * dielectric matrix)
  average eigenvalue GAMMA=   1.1352
  5.7935  1.7495  0.8767  0.8767  0.7238  0.7238  0.1842  0.5213  0.2903  0.3739
  0.3739

 Free energy of the ion-electron system (eV)
  ---------------------------------------------------
  alpha Z        PSCENC =      2356.26949328
  Ewald energy   TEWEN  =    309834.75492899
  -Hartree energ DENC   =   -408649.81893587
  -exchange      EXHF   =         0.00000000
  -V(xc)+E(xc)   XCENC  =      2916.09038236
  PAW double counting   =     98985.37302283  -105508.50323257
  entropy T*S    EENTRO =        -0.09351705
  eigenvalues    EBANDS =      -968.26574512
  atomic energy  EATOM  =    100713.36531073
  Solvation  Ediel_sol  =         0.00000000
  ---------------------------------------------------
  free energy    TOTEN  =      -320.82829244 eV

  energy without entropy =     -320.73477539  energy(sigma->0) =     -320.79712009


--------------------------------------------------------------------------------------------------------




--------------------------------------- Iteration      1(  17)  ---------------------------------------


    POTLOK:  cpu time    0.4012: real time    0.4021
    SETDIJ:  cpu time    0.0306: real time    0.0307
    EDDIAG:  cpu time   11.0682: real time   11.0946
  RMM-DIIS:  cpu time   39.4672: real time   39.5605
    ORTHCH:  cpu time    1.2116: real time    1.2145
       DOS:  cpu time    0.0022: real time    0.0022
    CHARGE:  cpu time    4.2410: real time    4.2511
    MIXING:  cpu time    0.0132: real time    0.0132
    --------------------------------------------
      LOOP:  cpu time   56.4352: real time   56.5689

 eigenvalue-minimisations  :  9053
 total energy-change (2. order) :-0.2180119E+01  (-0.4155801E+00)
 number of electron     866.0000405 magnetization       5.3590672
 augmentation part      498.3756350 magnetization       2.2091870

 Broyden mixing:
  rms(total) = 0.37558E+00    rms(broyden)= 0.37556E+00
  rms(prec ) = 0.47233E+00
  weight for this iteration     100.00

 eigenvalues of (default mixing * dielectric matrix)
  average eigenvalue GAMMA=   1.2296
  7.2766  1.7858  0.9599  0.9599  0.7284  0.7284  0.1842  0.5346  0.5346  0.2903
  0.3861  0.3861

 Free energy of the ion-electron system (eV)
  ---------------------------------------------------
  alpha Z        PSCENC =      2356.26949328
  Ewald energy   TEWEN  =    309834.75492899
  -Hartree energ DENC   =   -408605.45301395
  -exchange      EXHF   =         0.00000000
[...]
   0.248E+00 -.138E+00 0.390E+04   -.254E+00 0.146E+00 -.389E+04   -.636E-03 -.105E-01 -.307E+01   0.417E-02 0.594E-02 -.447E-02
   -.196E+00 0.637E+00 0.190E+04   0.186E+00 -.647E+00 -.190E+04   0.789E-02 -.352E-02 -.119E+01   0.403E-02 0.109E-01 -.108E-01
   -.183E+00 -.112E+01 0.190E+04   0.181E+00 0.113E+01 -.190E+04   0.276E-02 0.227E-01 -.121E+01   0.231E-02 -.201E-01 -.110E-01
   -.132E+01 0.130E+01 -.215E+04   0.133E+01 -.131E+01 0.215E+04   0.343E-02 -.828E-02 0.188E+01   -.468E-02 0.583E-02 -.675E-02
   0.939E-01 -.830E-01 0.390E+04   -.113E+00 0.953E-01 -.389E+04   0.169E-01 -.137E-01 -.311E+01   -.526E-02 0.695E-02 -.702E-02
   -.174E+00 0.721E+00 0.190E+04   0.182E+00 -.719E+00 -.190E+04   0.877E-02 -.127E-01 -.119E+01   -.139E-01 0.783E-02 -.114E-01
   -.861E+00 0.316E+00 -.127E+03   0.878E+00 -.322E+00 0.128E+03   -.669E-02 -.657E-02 -.283E+00   -.916E-02 0.726E-02 -.614E-02
   0.520E+00 -.175E+01 -.215E+04   -.515E+00 0.175E+01 0.215E+04   -.163E-01 0.245E-01 0.188E+01   0.427E-02 -.989E-02 -.309E-02
   0.772E+00 0.370E+00 -.213E+04   -.743E+00 -.365E+00 0.213E+04   -.284E-01 -.600E-02 0.183E+01   -.351E-02 0.810E-03 -.122E-01
   0.204E+01 0.114E+01 -.215E+04   -.205E+01 -.115E+01 0.214E+04   -.212E-01 -.815E-03 0.190E+01   0.149E-01 0.680E-02 -.665E-02
   0.762E-01 -.406E+00 0.390E+04   -.871E-01 0.396E+00 -.389E+04   0.372E-02 0.179E-01 -.310E+01   0.441E-02 -.818E-02 -.661E-02
   0.214E+00 -.140E-01 0.390E+04   -.203E+00 0.295E-01 -.389E+04   -.111E-01 -.885E-02 -.311E+01   -.348E-02 -.248E-02 0.626E-02
   0.498E+00 -.152E-01 0.390E+04   -.501E+00 0.219E-01 -.389E+04   -.138E-01 -.866E-02 -.304E+01   0.137E-01 0.670E-02 -.368E-02
   -.801E+00 -.733E-01 0.190E+04   0.792E+00 0.733E-01 -.190E+04   0.130E-01 0.560E-02 -.118E+01   -.117E-03 -.552E-02 -.115E-01
   -.113E+01 -.597E+00 -.127E+03   0.115E+01 0.595E+00 0.128E+03   -.102E-01 0.398E-02 -.280E+00   -.882E-02 -.288E-02 -.154E-01
   -.336E+00 -.582E+00 0.190E+04   0.333E+00 0.574E+00 -.190E+04   0.118E-01 0.446E-02 -.118E+01   -.639E-02 0.404E-02 -.120E-01
   -.591E-01 0.170E+00 0.190E+04   0.778E-01 -.180E+00 -.190E+04   -.505E-02 -.106E-02 -.117E+01   -.850E-02 0.972E-02 -.862E-02
   0.103E+01 -.149E+00 -.214E+04   -.102E+01 0.180E+00 0.214E+04   -.681E-02 -.296E-01 0.190E+01   -.542E-03 -.992E-02 -.237E-02
   0.554E+00 -.304E+00 0.390E+04   -.560E+00 0.335E+00 -.389E+04   -.252E-02 -.105E-01 -.304E+01   0.261E-02 -.148E-01 -.752E-04
   -.526E+00 -.103E+00 0.190E+04   0.544E+00 0.117E+00 -.190E+04   0.270E-03 -.510E-02 -.119E+01   -.113E-01 -.603E-02 -.101E-01
   0.718E-02 -.135E+01 -.126E+03   -.520E-02 0.135E+01 0.126E+03   0.367E-02 0.188E-01 -.297E+00   -.109E-02 -.229E-01 -.107E-02
   -.833E+00 0.451E+00 -.214E+04   0.811E+00 -.490E+00 0.214E+04   0.236E-01 0.399E-01 0.190E+01   0.243E-02 0.273E-02 -.831E-02
   0.196E+00 0.264E+00 0.390E+04   -.209E+00 -.280E+00 -.389E+04   0.248E-02 0.617E-02 -.308E+01   0.414E-02 0.827E-02 0.431E-02
   0.351E+00 0.130E+01 -.215E+04   -.341E+00 -.130E+01 0.215E+04   -.132E-01 0.325E-02 0.189E+01   0.199E-03 0.543E-03 -.339E-02
   0.125E+00 -.922E-01 0.390E+04   -.130E+00 0.978E-01 -.389E+04   -.615E-02 -.183E-02 -.307E+01   0.760E-02 0.840E-03 -.334E-02
   -.919E+00 0.365E+00 0.190E+04   0.924E+00 -.367E+00 -.190E+04   0.202E-01 -.114E-01 -.121E+01   -.177E-01 0.111E-01 -.117E-01
   0.384E+00 0.399E+00 0.190E+04   -.372E+00 -.395E+00 -.190E+04   -.180E-01 -.152E-01 -.117E+01   0.779E-02 0.930E-02 -.124E-01
   -.424E+00 -.206E+00 -.215E+04   0.427E+00 0.198E+00 0.215E+04   0.816E-02 0.168E-01 0.188E+01   -.646E-02 -.598E-02 -.920E-03
   0.214E+00 -.148E+00 0.389E+04   -.222E+00 0.152E+00 -.389E+04   0.102E-01 0.988E-03 -.308E+01   -.702E-02 -.361E-02 -.677E-02
   0.488E+00 -.561E+00 0.190E+04   -.484E+00 0.566E+00 -.190E+04   -.252E-02 0.120E-01 -.119E+01   0.259E-03 -.145E-01 -.112E-01
   -.928E+00 -.513E+00 -.124E+03   0.930E+00 0.504E+00 0.124E+03   -.459E-02 0.804E-02 -.270E+00   0.666E-02 0.354E-02 -.325E-01
   0.368E+00 0.231E+00 0.190E+04   -.362E+00 -.219E+00 -.190E+04   -.173E-01 -.131E-01 -.117E+01   0.136E-01 0.685E-03 -.119E-01
   -.350E+00 -.112E+00 0.190E+04   0.348E+00 0.113E+00 -.190E+04   0.897E-02 0.176E-03 -.116E+01   -.343E-02 -.250E-02 -.134E-01
   0.804E+00 -.936E+00 -.127E+03   -.801E+00 0.930E+00 0.128E+03   -.896E-02 0.114E-01 -.290E+00   0.402E-02 -.664E-03 -.910E-02
   -.207E+01 -.106E+01 -.215E+04   0.209E+01 0.104E+01 0.214E+04   -.734E-02 0.128E-01 0.191E+01   -.600E-02 0.653E-02 -.777E-02
   0.122E-01 -.103E+01 -.214E+04   -.483E-01 0.102E+01 0.214E+04   0.359E-01 0.169E-01 0.190E+01   0.488E-02 0.297E-02 -.640E-02
   -.396E+00 -.194E-02 0.390E+04   0.395E+00 0.483E-02 -.389E+04   0.899E-02 -.546E-02 -.305E+01   -.110E-01 0.382E-02 -.455E-03
   0.427E+00 -.174E+00 0.390E+04   -.458E+00 0.188E+00 -.389E+04   0.128E-01 -.949E-02 -.308E+01   0.103E-01 -.160E-02 0.363E-02
   0.146E+00 0.637E-01 0.190E+04   -.148E+00 -.386E-01 -.190E+04   -.208E-02 -.104E-01 -.117E+01   0.577E-02 -.127E-01 -.845E-02
   0.254E+00 0.276E+00 0.190E+04   -.285E+00 -.290E+00 -.190E+04   0.107E-01 0.181E-02 -.119E+01   0.182E-01 0.869E-02 -.950E-02
   0.566E+00 0.318E+00 -.128E+03   -.568E+00 -.329E+00 0.128E+03   -.924E-02 0.606E-02 -.301E+00   0.963E-02 0.423E-02 0.212E-02
   0.396E+00 0.944E+00 -.214E+04   -.352E+00 -.971E+00 0.214E+04   -.393E-01 0.260E-01 0.190E+01   -.116E-01 0.461E-02 -.812E-02
   -.241E+00 0.291E+00 0.390E+04   0.251E+00 -.296E+00 -.389E+04   0.259E-02 -.310E-02 -.305E+01   -.126E-01 0.907E-02 0.181E-03
   0.329E+00 0.197E+00 -.128E+03   -.322E+00 -.205E+00 0.128E+03   0.965E-03 0.110E-01 -.284E+00   -.418E-02 -.133E-02 -.583E-02
   0.345E+00 0.119E+01 -.123E+03   -.339E+00 -.120E+01 0.123E+03   -.647E-02 0.734E-02 -.299E+00   -.198E-02 -.139E-01 -.188E-01
   0.116E+01 -.266E+00 -.123E+03   -.114E+01 0.255E+00 0.123E+03   -.572E-02 0.673E-02 -.298E+00   -.152E-01 0.632E-02 -.198E-01
   0.127E+00 0.341E-01 -.126E+03   -.129E+00 -.335E-01 0.126E+03   -.416E-02 0.966E-02 -.287E+00   0.690E-02 -.119E-01 -.165E-01
   -.218E+00 -.916E+00 -.127E+03   0.231E+00 0.918E+00 0.128E+03   -.180E-01 0.122E-01 -.284E+00   0.175E-02 -.104E-01 -.502E-02
   0.350E+00 -.404E+00 0.190E+04   -.366E+00 0.402E+00 -.190E+04   0.509E-02 0.393E-02 -.119E+01   0.119E-01 -.172E-02 -.111E-01
   -.429E+00 0.118E+01 -.127E+03   0.435E+00 -.119E+01 0.127E+03   -.340E-02 0.147E-02 -.291E+00   -.402E-03 0.611E-02 -.958E-02
   -.264E+00 0.238E+01 -.215E+04   0.270E+00 -.239E+01 0.215E+04   -.327E-02 -.424E-02 0.190E+01   -.247E-02 0.267E-02 -.110E-01
   -.190E+01 -.132E+01 -.215E+04   0.191E+01 0.133E+01 0.214E+04   -.171E-02 0.534E-02 0.191E+01   -.284E-03 -.406E-02 -.360E-02
   0.650E-01 0.162E+00 0.389E+04   -.698E-01 -.160E+00 -.389E+04   0.489E-02 -.294E-02 -.307E+01   -.494E-02 0.432E-02 -.224E-02
   -.234E+00 -.381E+00 0.390E+04   0.225E+00 0.395E+00 -.389E+04   0.682E-02 0.731E-03 -.305E+01   -.175E-02 -.104E-01 0.499E-05
   0.640E+00 0.170E+00 -.125E+03   -.649E+00 -.176E+00 0.126E+03   -.722E-02 -.137E-02 -.293E+00   0.193E-01 0.589E-02 -.104E-01
   -.121E+01 0.685E+00 -.126E+03   0.122E+01 -.702E+00 0.126E+03   0.107E-01 0.949E-02 -.297E+00   -.212E-01 0.969E-02 -.265E-02
   0.283E+00 0.656E-01 0.190E+04   -.276E+00 -.630E-01 -.190E+04   -.307E-02 -.272E-02 -.118E+01   -.216E-02 0.556E-03 -.122E-01
   0.712E-01 0.127E+00 -.126E+03   -.608E-01 -.144E+00 0.126E+03   -.191E-02 0.629E-02 -.287E+00   -.896E-02 0.121E-01 -.182E-01
   0.467E+00 0.515E+00 -.125E+03   -.466E+00 -.535E+00 0.125E+03   -.152E-01 0.101E-01 -.294E+00   0.149E-01 0.124E-01 -.108E-01
   0.816E+00 0.703E+00 -.349E+04   -.827E+00 -.707E+00 0.349E+04   -.143E-01 -.835E-02 0.160E+01   0.811E-02 0.364E-02 -.179E-01
   0.196E+01 0.168E+01 -.349E+04   -.196E+01 -.169E+01 0.349E+04   -.545E-02 -.167E-01 0.158E+01   -.229E-02 0.120E-01 -.113E-02
   0.184E+01 -.323E+01 -.349E+04   -.184E+01 0.323E+01 0.349E+04   -.576E-03 -.183E-02 0.158E+01   -.434E-02 0.118E-01 0.974E-02
   -.546E+01 0.275E+01 -.349E+04   0.546E+01 -.275E+01 0.349E+04   0.118E-01 -.278E-01 0.157E+01   0.979E-02 0.693E-04 0.478E-02
   -.339E+00 -.576E+01 -.349E+04   0.337E+00 0.575E+01 0.349E+04   -.173E-01 0.201E-01 0.158E+01   0.553E-02 0.793E-02 0.453E-02
   -.215E+01 0.359E+01 -.349E+04   0.215E+01 -.359E+01 0.349E+04   0.414E-02 0.141E-02 0.157E+01   0.848E-02 -.157E-01 0.913E-02
   -.109E+01 -.378E+00 -.349E+04   0.109E+01 0.385E+00 0.349E+04   0.150E-01 0.458E-02 0.160E+01   0.114E-02 -.556E-02 -.149E-01
   -.239E+01 -.784E+00 -.349E+04   0.241E+01 0.778E+00 0.349E+04   0.127E-01 -.103E-01 0.158E+01   -.175E-01 0.123E-01 -.253E-02
   -.215E+01 -.159E+01 -.349E+04   0.215E+01 0.161E+01 0.349E+04   0.106E-02 0.150E-01 0.158E+01   0.308E-02 -.151E-01 -.146E-02
   0.249E+01 0.108E+01 -.349E+04   -.250E+01 -.106E+01 0.349E+04   -.203E-01 0.429E-02 0.158E+01   0.924E-02 -.135E-01 -.953E-03
   0.363E+01 -.664E+01 -.347E+04   -.367E+01 0.670E+01 0.347E+04   0.398E-01 -.567E-01 0.173E+01   -.189E-02 0.380E-02 -.107E-01
   -.380E+01 0.638E+01 -.347E+04   0.384E+01 -.645E+01 0.347E+04   -.320E-01 0.615E-01 0.175E+01   -.336E-02 0.458E-03 -.104E-01
   0.499E+01 -.243E+01 -.349E+04   -.500E+01 0.243E+01 0.349E+04   -.614E-02 0.127E-01 0.158E+01   -.448E-04 0.246E-04 0.419E-02
   0.399E+00 0.580E+01 -.349E+04   -.397E+00 -.580E+01 0.349E+04   0.113E-01 -.137E-01 0.158E+01   -.580E-02 -.378E-02 0.396E-02
   0.697E+01 0.396E+01 -.348E+04   -.698E+01 -.397E+01 0.348E+04   -.291E-03 -.206E-02 0.156E+01   -.426E-03 0.299E-03 -.520E-03
   -.657E+01 -.394E+01 -.348E+04   0.659E+01 0.395E+01 0.348E+04   -.139E-01 -.768E-02 0.157E+01   -.310E-02 0.522E-02 0.172E-02
   0.178E+02 0.984E+01 -.282E+03   -.222E+02 -.123E+02 0.282E+03   0.441E+01 0.243E+01 0.428E-01   0.441E-04 0.118E-03 0.651E-03
   -.178E+02 -.986E+01 -.282E+03   0.222E+02 0.123E+02 0.282E+03   -.441E+01 -.243E+01 -.161E-01   -.119E-03 0.567E-04 0.659E-03
 -----------------------------------------------------------------------------------------------
   0.727E-01 -.107E+00 0.174E+02   -.252E-12 -.888E-14 0.227E-11   -.111E+00 0.138E+00 -.168E+02   -.527E-02 0.144E-01 -.518E+00
 
 
 POSITION                                       TOTAL-FORCE (eV/Angst)
 -----------------------------------------------------------------------------------
     12.88036      7.94921      6.92178         0.005143      0.001940      0.008984
      4.96242      7.94785      6.92378        -0.006536      0.003949      0.000541
      3.64145      5.66424      6.92359        -0.001000     -0.002595     -0.005307
     12.88772      7.94133      0.98786        -0.002095      0.001806      0.015643
      4.96828      7.94090      0.98788        -0.004300      0.002464      0.015576
      3.64811      5.65491      0.98789        -0.002377      0.003191      0.015236
      7.60345      1.84766      2.97612         0.003214     -0.002502     -0.023036
      8.92360      8.70642      2.97615         0.004138      0.006078     -0.028383
      2.32063      3.37823      6.92248         0.002884     -0.009224      0.002518
      2.32840      3.36855      0.98789        -0.007559      0.005140      0.016369
     10.24366      1.84749      2.97631         0.004178     -0.003743     -0.021394
     12.88188      4.90003      4.95067         0.002680     -0.004953      0.000166
      3.64194      1.08982      6.92247        -0.005916      0.005008      0.002705
      8.92370      5.66483      6.91108        -0.001903     -0.001912      0.009986
      4.96096      3.37704      6.92171        -0.006005     -0.004797     -0.001955
      3.64790      1.08225      0.98791        -0.002546     -0.000693      0.016241
      8.92836      5.65491      0.98749        -0.002738      0.003785      0.019815
      4.96868      3.36845      0.98773        -0.003034      0.004372      0.018450
     11.56329      8.70620      2.97600         0.005233     -0.000531     -0.015818
     11.56202      7.18508      4.95055         0.000524     -0.001130      0.000662
     12.88367      6.41974      2.97616         0.003285      0.001226     -0.016623
      8.92348      4.13384      2.97614         0.005795     -0.001685     -0.019929
      7.60176      7.95431      6.91944        -0.000229     -0.009607      0.002609
      7.60853      7.94123      0.98754        -0.005203      0.004897      0.018056
     10.24361      6.42012      2.97615         0.007761      0.001396     -0.024546
      2.32089      0.32699      4.94966         0.005043      0.002272      0.000078
      7.59819      3.37473      6.91803         0.005048      0.002664      0.004125
      7.60822      3.36882      0.98754        -0.006548     -0.001152      0.018484
      6.28202      1.09068      6.92351        -0.001655     -0.001659     -0.005257
      6.28821      1.08205      0.98764        -0.003188      0.004187      0.016000
     11.56394      4.13343      2.97611         0.008082     -0.002477     -0.028388
      3.64388      4.13378      2.97638         0.002712     -0.002259     -0.018141
      0.99964      1.08991      6.92286         0.005954      0.002283     -0.000558
      1.00799      1.08229      0.98797        -0.005038      0.001860      0.015409
      6.28378      8.70616      2.97613         0.001378      0.002312     -0.020759
      7.60023      4.89777      4.94761         0.004895      0.001906     -0.000393
      4.96354      1.84747      2.97629         0.002925     -0.000898     -0.017780
      2.32374      1.84771      2.97641         0.004461     -0.000955     -0.018004
     14.20288      7.18463      4.95047        -0.002429      0.003790      0.002124
     11.56026      5.66206      6.92305         0.004912      0.001474     -0.007664
      6.27774      5.66206      6.91797         0.006073      0.001154      0.004707
     11.56779      5.65497      0.98776        -0.002777      0.000849      0.016560
      6.28834      5.65490      0.98766        -0.007856      0.002161      0.018098
      7.60388      6.42003      2.97604         0.002965      0.001314     -0.019853
      6.28360      4.13381      2.97627        -0.001662     -0.004360     -0.027445
      3.64200      2.61241      4.95149        -0.000921     -0.001255     -0.007644
     10.24540      3.37526      6.91962        -0.007460      0.002448      0.001609
     10.24772      3.36878      0.98775         0.000123      0.000768      0.018038
     10.24029      0.32517      4.95127         0.004234      0.001196     -0.001096
      8.92281      7.18918      4.94667        -0.001516     -0.010567      0.006439
     10.24595      4.89740      4.94656        -0.008556      0.002135      0.007333
      6.28189      7.18620      4.94892         0.001426     -0.002227      0.003936
      4.96304      0.32544      4.95067        -0.001796      0.003119     -0.000657
      4.96387      6.41973      2.97634         0.002224      0.000077     -0.023778
      7.60199      0.32713      4.95037         0.003132     -0.005907      0.001614
      8.92014      1.09274      6.92373         0.001137     -0.009505      0.000682
     10.23959      7.94952      6.92285         0.004812      0.002066     -0.005934
      8.92813      1.08218      0.98802        -0.004573      0.003063      0.015307
     10.24773      7.94104      0.98727        -0.003912      0.003612      0.017929
      4.96034      4.89852      4.94903         0.003653     -0.001866      0.004602
     11.56192      2.61117      4.94985         0.005986      0.001625     -0.000170
     14.20386      8.70612      2.97627         0.002294     -0.000108     -0.017324
      8.92275      2.61178      4.94894         0.000051      0.000401      0.003875
      6.28099      2.61113      4.94900         0.000890      0.002445      0.003893
     14.19860      8.71657      9.10179        -0.016064     -0.008685      0.000134
      3.63794      4.14400      9.10091        -0.006375     -0.015373      0.001166
      6.27831      8.71574      9.10224        -0.006822      0.009137     -0.005565
     11.55715      4.14471      9.10361         0.010276     -0.020784     -0.003884
      8.91857      8.71508      9.10348        -0.013712      0.017165     -0.004519
     10.23744      1.85752      9.10243         0.006869     -0.008007     -0.007229
      2.31691      1.85690      9.10166         0.014158      0.006237      0.001205
     11.55740      8.71642      9.10145         0.014438     -0.004613     -0.002466
     12.87765      6.42942      9.10155         0.005294      0.017014     -0.001837
      4.95828      1.85719      9.10090        -0.019139      0.005241      0.000672
      7.59784      6.42972      9.08532        -0.000237      0.000022      0.007002
      8.91804      4.14311      9.08499        -0.001869     -0.002117      0.006863
      4.95840      6.42883      9.10472        -0.010379      0.014804     -0.006627
      7.59705      1.85814      9.10481         0.009328     -0.016562     -0.007051
      6.27809      4.14367      9.09904        -0.008327     -0.004297     -0.001835
     10.23784      6.42974      9.09910         0.002849      0.003798     -0.002100
      7.93863      5.07990     12.07043        -0.002351     -0.002316      0.029369
      8.59727      5.44337     12.07484         0.004150      0.001469      0.030139
 -----------------------------------------------------------------------------------
    total drift:                               -0.043615      0.045317      0.019823


--------------------------------------------------------------------------------------------------------



  FREE ENERGIE OF THE ION-ELECTRON SYSTEM (eV)
  ---------------------------------------------------
  free  energy   TOTEN  =      -365.86491922 eV

  energy  without entropy=     -365.79186201  energy(sigma->0) =     -365.84056682
 
 d Force = 0.7198811E-03[ 0.325E-03, 0.111E-02]  d Energy = 0.7357827E-03-0.159E-04
 d Force = 0.1023864E+01[ 0.102E+01, 0.103E+01]  d Ewald  = 0.1023869E+01-0.460E-05


--------------------------------------------------------------------------------------------------------


    POTLOK:  cpu time    0.4366: real time    0.4377


--------------------------------------------------------------------------------------------------------


 Conjugate gradient step on ions:
 trial-energy change:   -0.000736  1 .order   -0.000720   -0.001114   -0.000325
  (g-gl).g = 0.166E-02      g.g   = 0.160E-02  gl.gl    = 0.173E-02
 g(Force)  = 0.160E-02   g(Stress)= 0.000E+00 ortho     =-0.153E-03
 gamma     =   0.96190
 trial     =   0.76857
 opt step  =   1.08569  (harmonic =   1.08569) maximal distance =0.00517588
 next E    =  -365.864970   (d E  =  -0.00079)


--------------------------------------------------------------------------------------------------------


  
 reached required accuracy - stopping structural energy minimisation
     LOOP+:  cpu time  521.7350: real time  523.0273
    4ORBIT:  cpu time    0.0000: real time    0.0000

 total amount of memory used by VASP MPI-rank0   248540. kBytes
=======================================================================

   base      :      30000. kBytes
   nonlr-proj:      37017. kBytes
   fftplans  :      17962. kBytes
   grid      :      48722. kBytes
   one-center:        653. kBytes
   wavefun   :     114186. kBytes
 
  
  
 General timing and accounting informations for this job:
 ========================================================
  
                  Total CPU time used (sec):    13574.284
                            User time (sec):    13565.963
                          System time (sec):        8.320
                         Elapsed time (sec):    13609.314
  
                   Maximum memory used (kb):      882052.
                   Average memory used (kb):           0.
  
                          Minor page faults:      2352078
                          Major page faults:            0
                 Voluntary context switches:         4795
