 vasp.5.4.4.18Apr17-6-g9f103f2a35 (build Nov 06 2019 15:09:28) complex          
  
 executed on             LinuxIFC date 2023.08.07  10:54:27
 running on  120 total cores
 each image running on   40 cores
 distrk:  each k-point on   40 cores,    1 groups
 distr:  one band on NCORES_PER_BAND=   4 cores,   10 groups


--------------------------------------------------------------------------------------------------------


 INCAR:
 POTCAR:    PAW_PBE Pt 04Feb2005                  
 POTCAR:    PAW_PBE H 15Jun2001                   
 POTCAR:    PAW_PBE Pt 04Feb2005                  
   VRHFIN =Pt: s1d9                                                             
   LEXCH  = PE                                                                  
   EATOM  =   729.1176 eV,   53.5886 Ry                                         
                                                                                
   TITEL  = PAW_PBE Pt 04Feb2005                                                
   LULTRA =        F    use ultrasoft PP ?                                      
   IUNSCR =        1    unscreen: 0-lin 1-nonlin 2-no                           
   RPACOR =    2.330    partial core radius                                     
   POMASS =  195.080; ZVAL   =   10.000    mass and valenz                      
   RCORE  =    2.600    outmost cutoff radius                                   
   RWIGS  =    2.750; RWIGS  =    1.455    wigner-seitz radius (au A)           
   ENMAX  =  230.283; ENMIN  =  172.712 eV                                      
   ICORE  =        3    local potential                                         
   LCOR   =        T    correct aug charges                                     
   LPAW   =        T    paw PP                                                  
   EAUG   =  358.966                                                            
   DEXC   =    0.000                                                            
   RMAX   =    2.658    core radius for proj-oper                               
   RAUG   =    1.300    factor for augmentation sphere                          
   RDEP   =    2.761    radius for radial grids                                 
   RDEPT  =    2.203    core radius for aug-charge                              
                                                                                
   Atomic configuration                                                         
   16 entries                                                                   
     n  l   j            E        occ.                                          
     1  0  0.50    -78401.1885   2.0000                                         
     2  0  0.50    -13770.7750   2.0000                                         
     2  1  1.50    -11931.0468   6.0000                                         
     3  0  0.50     -3234.7234   2.0000                                         
     3  1  1.50     -2699.2216   6.0000                                         
     3  2  2.50     -2119.5714  10.0000                                         
     4  0  0.50      -695.1528   2.0000                                         
     4  1  1.50      -519.6034   6.0000                                         
     4  2  2.50      -306.6786  10.0000                                         
     4  3  3.50       -70.1041  14.0000                                         
     5  0  0.50      -101.7747   2.0000                                         
     5  1  1.50       -55.9873   6.0000                                         
     5  2  2.50        -6.1423   9.0000                                         
     6  0  0.50        -5.6573   1.0000                                         
     6  1  1.50        -6.8029   0.0000                                         
     5  3  2.50        -1.3606   0.0000                                         
   Description                                                                  
     l       E           TYP  RCUT    TYP  RCUT                                 
     2     -6.1423404     23  2.500                                             
     2     -7.5029230     23  2.500                                             
     0     -5.6573207     23  2.500                                             
     0      0.7416693     23  2.500                                             
     1     -2.7211652     23  2.600                                             
     1     20.4087390     23  2.600                                             
     3     -1.3605826     23  2.500                                             
  local pseudopotential read in
  partial core-charges read in
  partial kinetic energy density read in
  atomic valenz-charges read in
  non local Contribution for L=           2  read in
    real space projection operators read in
  non local Contribution for L=           2  read in
    real space projection operators read in
  non local Contribution for L=           0  read in
    real space projection operators read in
  non local Contribution for L=           0  read in
    real space projection operators read in
  non local Contribution for L=           1  read in
    real space projection operators read in
  non local Contribution for L=           1  read in
    real space projection operators read in
    PAW grid and wavefunctions read in
 
   number of l-projection  operators is LMAX  =           6
   number of lm-projection operators is LMMAX =          18
 
 POTCAR:    PAW_PBE H 15Jun2001                   
   VRHFIN =H: ultrasoft test                                                    
   LEXCH  = PE                                                                  
   EATOM  =    12.4884 eV,    0.9179 Ry                                         
                                                                                
   TITEL  = PAW_PBE H 15Jun2001                                                 
   LULTRA =        F    use ultrasoft PP ?                                      
   IUNSCR =        0    unscreen: 0-lin 1-nonlin 2-no                           
   RPACOR =    0.000    partial core radius                                     
   POMASS =    1.000; ZVAL   =    1.000    mass and valenz                      
   RCORE  =    1.100    outmost cutoff radius                                   
   RWIGS  =    0.700; RWIGS  =    0.370    wigner-seitz radius (au A)           
   ENMAX  =  250.000; ENMIN  =  200.000 eV                                      
   RCLOC  =    0.701    cutoff for local pot                                    
   LCOR   =        T    correct aug charges                                     
   LPAW   =        T    paw PP                                                  
   EAUG   =  400.000                                                            
   RMAX   =    1.123    core radius for proj-oper                               
   RAUG   =    1.200    factor for augmentation sphere                          
   RDEP   =    1.112    radius for radial grids                                 
   RDEPT  =    0.926    core radius for aug-charge                              
                                                                                
   Atomic configuration                                                         
    2 entries                                                                   
     n  l   j            E        occ.                                          
     1  0  0.50        -6.4927   1.0000                                         
     2  1  0.50        -3.4015   0.0000                                         
   Description                                                                  
     l       E           TYP  RCUT    TYP  RCUT                                 
     0     -6.4927494     23  1.100                                             
     0      6.8029130     23  1.100                                             
     1     -4.0817478     23  1.100                                             
  local pseudopotential read in
  atomic valenz-charges read in
  non local Contribution for L=           0  read in
    real space projection operators read in
  non local Contribution for L=           0  read in
    real space projection operators read in
  non local Contribution for L=           1  read in
    real space projection operators read in
    PAW grid and wavefunctions read in
 
   number of l-projection  operators is LMAX  =           3
   number of lm-projection operators is LMMAX =           5
 
 Optimization of the real space projectors (new method)

 maximal supplied QI-value         = 14.36
 optimisation between [QCUT,QGAM] = [ 11.92, 23.98] = [ 39.79,161.09] Ry 
 Optimized for a Real-space Cutoff    1.49 Angstroem

   l    n(q)    QCUT    max X(q) W(low)/X(q) W(high)/X(q)  e(spline) 
   2     10    11.920    66.195    0.79E-04    0.18E-03    0.24E-06
   2     10    11.920    64.643    0.81E-04    0.19E-03    0.24E-06
   0     11    11.920    95.520    0.28E-04    0.54E-04    0.18E-06
   0     11    11.920    63.403    0.27E-04    0.52E-04    0.17E-06
   1     10    11.920    19.961    0.18E-04    0.11E-03    0.23E-06
   1     10    11.920    13.289    0.25E-04    0.87E-04    0.19E-06
 Optimization of the real space projectors (new method)

 maximal supplied QI-value         = 34.20
 optimisation between [QCUT,QGAM] = [ 11.97, 23.94] = [ 40.13,160.53] Ry 
 Optimized for a Real-space Cutoff    1.18 Angstroem

   l    n(q)    QCUT    max X(q) W(low)/X(q) W(high)/X(q)  e(spline) 
   0      8    11.971    19.460    0.15E-03    0.31E-03    0.25E-06
   0      8    11.971    12.209    0.13E-03    0.29E-03    0.25E-06
   1      8    11.971     4.655    0.22E-03    0.24E-03    0.21E-06
  PAW_PBE Pt 04Feb2005                  :
 energy of atom  1       EATOM= -729.1176
 kinetic energy error for atom=    0.0021 (will be added to EATOM!!)
  PAW_PBE H 15Jun2001                   :
 energy of atom  2       EATOM=  -12.4884
 kinetic energy error for atom=    0.0008 (will be added to EATOM!!)
 
 
 POSCAR: Pt   H                                  
  positions in cartesian coordinates
  No initial velocities read in
 exchange correlation table for  LEXCH =        8
   RHO(1)=    0.500       N(1)  =     2000
   RHO(2)=  100.500       N(2)  =     4000

 VTST: version 3.2, (02/03/18)

 CHAIN: initializing optimizer
 
 OPT: Using VASP QUASI-newton optimizer
 CHAIN: Read ICHAIN            0
 CHAIN: Running the NEB
 NEB:          SPRING     -5.000000
 NEB:          LCLIMB      T
 NEB:     LTANGENTOLD      F
 NEB:           LDNEB      F
 NEB:        LDNEBORG      F
 NEB:        LNEBCELL      F
 NEB:          EFIRST      0.000000
 NEB:           ELAST      0.000000
 
 POSCAR: Pt   H                                  
  positions in cartesian coordinates
  No initial velocities read in
 
 POSCAR: Pt111\(1\1\1)\(2)                       
  positions in cartesian coordinates
  No initial velocities read in
 


--------------------------------------------------------------------------------------------------------


 ion  position               nearest neighbor table
   1  1.000  0.000  0.056-   5 2.64   9 2.64  13 2.64  29 2.64  57 2.64  37 2.64  42 2.87  14 2.87
                            54 2.87
   2  0.333  0.167  0.178-  30 2.64  26 2.64  38 2.64  42 2.64  14 2.64   6 2.64  11 2.84   7 2.85
                            15 2.85   9 2.87  21 2.87  13 2.87
   3  0.167  0.334  0.298-  15 2.64   7 2.64  43 2.64  31 2.64  39 2.64  27 2.64  10 2.85   6 2.85
                            14 2.85   8 2.86  48 2.87  12 2.88
   4  1.000  0.000  0.419-  60 2.64  12 2.64  32 2.64  40 2.64   8 2.64  16 2.64   7 2.87  27 2.87
                            63 2.88
   5  1.000  0.250  0.056-   1 2.64  45 2.64  33 2.64   9 2.64  29 2.64  25 2.64  14 2.87  10 2.87
                            18 2.87
   6  0.333  0.417  0.178-  26 2.64  62 2.64  10 2.64  34 2.64  14 2.64   2 2.64   3 2.85  15 2.85
                            43 2.85  45 2.87  49 2.87   9 2.87
   7  0.167  0.084  0.298-   3 2.64  15 2.64  11 2.64  35 2.64  27 2.64  63 2.64  14 2.85   2 2.85
                            42 2.85   4 2.87  16 2.87  12 2.87
   8  1.000  0.250  0.419-  28 2.64  32 2.64  12 2.64  36 2.64   4 2.64  48 2.64   3 2.86  31 2.86
                            27 2.86
   9  0.250  0.250  0.056-  21 2.64  13 2.64   1 2.64  49 2.64  45 2.64   5 2.64   2 2.87  14 2.87
                             6 2.87
  10  0.083  0.417  0.178-  34 2.64   6 2.64  46 2.64  14 2.64  18 2.64  22 2.64  39 2.84  31 2.84
                             3 2.85  33 2.87  45 2.87   5 2.87
  11  0.417  0.083  0.297-  35 2.64   7 2.64  47 2.64  23 2.64  19 2.64  15 2.64   2 2.84  30 2.84
                            38 2.84  24 2.86  20 2.88  16 2.88
  12  0.249  0.250  0.420-   4 2.64   8 2.64  16 2.64  48 2.64  24 2.65  52 2.65   7 2.87   3 2.88
                            15 2.88
  13  0.250  0.000  0.056-  21 2.64   9 2.64  17 2.64   1 2.64  37 2.64  41 2.64  38 2.87   2 2.87
                            42 2.87
  14  0.083  0.167  0.178-  42 2.64  54 2.64   6 2.64   2 2.64  10 2.64  18 2.64  27 2.84   3 2.85
                             7 2.85   5 2.87   1 2.87   9 2.87
  15  0.417  0.334  0.298-   3 2.64  43 2.64   7 2.64  55 2.64  19 2.64  11 2.64   6 2.85  24 2.85
                            26 2.85   2 2.85  52 2.88  12 2.88
  16  0.250  0.000  0.419-  44 2.64  20 2.64  40 2.64  24 2.64  12 2.64   4 2.64   7 2.87  35 2.88
                            11 2.88
  17  0.500  0.000  0.056-  29 2.64  25 2.64  13 2.64  21 2.64  41 2.64  53 2.64  58 2.87  30 2.87
                            38 2.87
  18  0.833  0.167  0.178-  54 2.64  58 2.64  22 2.64  10 2.64  30 2.64  14 2.64  27 2.84  31 2.84
                            23 2.85  25 2.87  29 2.87   5 2.87
  19  0.667  0.334  0.297-  59 2.64  55 2.64  31 2.64  23 2.64  11 2.64  15 2.64  26 2.84  22 2.84
                            30 2.84  24 2.86  28 2.88  64 2.88
  20  0.500  0.000  0.419-  56 2.64  24 2.64  32 2.64  16 2.64  44 2.64  28 2.64  23 2.87  47 2.88
                            11 2.88
  21  0.500  0.250  0.056-  25 2.64  61 2.64   9 2.64  13 2.64  49 2.64  17 2.64  30 2.87   2 2.87
                            26 2.87
  22  0.833  0.417  0.178-  50 2.64  26 2.64  30 2.64  18 2.64  46 2.64  10 2.64  19 2.84  59 2.84
                            31 2.84  61 2.87  25 2.87  33 2.87
  23  0.667  0.084  0.298-  27 2.64  51 2.64  31 2.64  47 2.64  19 2.64  11 2.64  30 2.84  18 2.85
                            58 2.85  20 2.87  28 2.87  32 2.87
  24  0.500  0.250  0.418-  28 2.64  20 2.64  16 2.64  64 2.64  52 2.65  12 2.65  15 2.85  19 2.86
                            11 2.86
  25  0.750  0.250  0.056-  17 2.64  21 2.64  29 2.64  61 2.64  33 2.64   5 2.64  18 2.87  22 2.87
                            30 2.87
  26  0.583  0.417  0.178-   6 2.64   2 2.64  22 2.64  30 2.64  62 2.64  50 2.64  19 2.84  15 2.85
                            55 2.85  49 2.87  61 2.87  21 2.87
  27  0.917  0.083  0.297-  63 2.64  51 2.64  23 2.64  31 2.64   7 2.64   3 2.64  18 2.84  14 2.84
                            54 2.84   8 2.86   4 2.87  32 2.88
  28  0.750  0.250  0.419-   8 2.64  24 2.64  32 2.64  64 2.64  36 2.64  20 2.64  23 2.87  31 2.88
                            19 2.88
  29  0.750  0.000  0.056-  17 2.64  25 2.64   5 2.64  53 2.64   1 2.64  57 2.64  54 2.87  18 2.87
                            58 2.87
  30  0.583  0.167  0.178-   2 2.64  38 2.64  58 2.64  26 2.64  22 2.64  18 2.64  11 2.84  19 2.84
                            23 2.84  21 2.87  17 2.87  25 2.87
  31  0.917  0.334  0.297-  19 2.64  59 2.64  23 2.64  39 2.64  27 2.64   3 2.64  22 2.84  10 2.84
                            18 2.84   8 2.86  36 2.87  28 2.88
  32  0.750  0.000  0.420-  56 2.64   8 2.64  28 2.64  20 2.64   4 2.64  60 2.64  23 2.87  51 2.88
                            27 2.88
  33  1.000  0.500  0.056-  37 2.64  41 2.64   5 2.64  45 2.64  25 2.64  61 2.64  10 2.87  46 2.87
                            22 2.87
  34  0.333  0.667  0.178-  62 2.64  10 2.64  58 2.64  46 2.64   6 2.64  38 2.64  39 2.84  47 2.84
                            43 2.85  41 2.87  45 2.87  53 2.87
  35  0.167  0.834  0.297-  11 2.64  47 2.64   7 2.64  39 2.64  63 2.64  59 2.64  42 2.84  38 2.84
                            46 2.84  40 2.86  44 2.87  16 2.88
  36  1.000  0.500  0.419-  48 2.64  64 2.64  40 2.64  44 2.64  28 2.64   8 2.64  31 2.87  59 2.87
                            39 2.87
  37  1.000  0.750  0.056-  33 2.64  41 2.64  61 2.64  57 2.64  13 2.64   1 2.64  46 2.87  50 2.87
                            42 2.87
  38  0.333  0.917  0.178-  58 2.64  30 2.64   2 2.64  42 2.64  34 2.64  46 2.64  35 2.84  11 2.84
                            47 2.84  13 2.87  17 2.87  41 2.87
  39  0.167  0.584  0.297-  47 2.64  31 2.64  43 2.64   3 2.64  35 2.64  59 2.64  46 2.84  34 2.84
                            10 2.84  48 2.87  36 2.87  44 2.88
  40  1.000  0.750  0.418-  60 2.64  36 2.64   4 2.64  44 2.64  64 2.64  16 2.64  35 2.86  59 2.86
                            63 2.86
  41  0.250  0.750  0.056-  45 2.64  33 2.64  37 2.64  53 2.64  17 2.64  13 2.64  34 2.87  46 2.87
                            38 2.87
  42  0.083  0.917  0.178-  14 2.64   2 2.64  38 2.64  46 2.64  50 2.64  54 2.64  35 2.84  63 2.84
                             7 2.85   1 2.87  13 2.87  37 2.87
  43  0.417  0.584  0.298-  15 2.64  55 2.64  47 2.64   3 2.64  51 2.64  39 2.64  34 2.85  62 2.85
                             6 2.85  56 2.86  48 2.87  52 2.88
  44  0.250  0.750  0.419-  48 2.64  16 2.64  40 2.64  36 2.64  20 2.64  56 2.64  47 2.87  35 2.87
                            39 2.88
  45  0.250  0.500  0.056-  41 2.64  53 2.64   5 2.64   9 2.64  49 2.64  33 2.64   6 2.87  10 2.87
                            34 2.87
  46  0.083  0.667  0.178-  34 2.64  50 2.64  10 2.64  42 2.64  22 2.64  38 2.64  39 2.84  59 2.84
                            35 2.84  37 2.87  33 2.87  41 2.87
  47  0.417  0.834  0.297-  11 2.64  39 2.64  35 2.64  23 2.64  43 2.64  51 2.64  38 2.84  58 2.84
                            34 2.84  56 2.86  44 2.87  20 2.88
  48  0.250  0.500  0.419-  36 2.64  44 2.64   8 2.64  56 2.64  52 2.64  12 2.64   3 2.87  43 2.87
                            39 2.87
  49  0.500  0.500  0.056-  61 2.64  53 2.64  57 2.64  21 2.64   9 2.64  45 2.64  26 2.87   6 2.87
                            62 2.87
  50  0.833  0.667  0.178-  22 2.64  46 2.64  26 2.64  42 2.64  54 2.64  62 2.64  59 2.84  63 2.84
                            55 2.85  57 2.87  61 2.87  37 2.87
  51  0.667  0.834  0.297-  63 2.64  27 2.64  23 2.64  43 2.64  47 2.64  55 2.64  58 2.84  54 2.84
                            62 2.84  56 2.86  60 2.87  32 2.88
  52  0.500  0.501  0.420-  60 2.64  56 2.64  64 2.64  48 2.64  24 2.65  12 2.65  55 2.87  43 2.88
                            15 2.88
  53  0.500  0.750  0.056-  49 2.64  57 2.64  45 2.64  41 2.64  29 2.64  17 2.64  62 2.87  34 2.87
                            58 2.87
  54  0.833  0.917  0.178-  18 2.64  14 2.64  50 2.64  58 2.64  42 2.64  62 2.64  63 2.83  51 2.84
                            27 2.84  29 2.87   1 2.87  57 2.87
  55  0.666  0.583  0.298-  43 2.64  15 2.64  19 2.64  59 2.64  51 2.64  63 2.64  62 2.85  26 2.85
                            50 2.85  64 2.87  60 2.87  52 2.87
  56  0.500  0.751  0.419-  20 2.64  32 2.64  52 2.64  44 2.64  60 2.64  48 2.64  43 2.86  47 2.86
                            51 2.86
  57  0.750  0.750  0.056-  61 2.64  49 2.64  53 2.64  37 2.64   1 2.64  29 2.64  50 2.87  62 2.87
                            54 2.87
  58  0.583  0.917  0.178-  38 2.64  30 2.64  18 2.64  34 2.64  62 2.64  54 2.64  47 2.84  51 2.84
                            23 2.85  17 2.87  29 2.87  53 2.87
  59  0.916  0.583  0.297-  19 2.64  31 2.64  55 2.64  63 2.64  39 2.64  35 2.64  50 2.84  22 2.84
                            46 2.84  40 2.86  36 2.87  64 2.88
  60  0.750  0.751  0.419-   4 2.64  52 2.64  40 2.64  32 2.64  56 2.64  64 2.64  55 2.87  51 2.87
                            63 2.88
  61  0.750  0.500  0.056-  49 2.64  57 2.64  21 2.64  25 2.64  37 2.64  33 2.64  22 2.87  26 2.87
                            50 2.87
  62  0.583  0.667  0.178-  34 2.64   6 2.64  26 2.64  58 2.64  54 2.64  50 2.64  51 2.84  43 2.85
                            55 2.85  53 2.87  49 2.87  57 2.87
  63  0.917  0.834  0.297-  51 2.64  27 2.64  59 2.64  35 2.64  55 2.64   7 2.64  54 2.83  42 2.84
                            50 2.84  40 2.86   4 2.88  60 2.88
  64  0.750  0.500  0.419-  36 2.64  28 2.64  40 2.64  24 2.64  52 2.64  60 2.64  55 2.87  59 2.88
                            19 2.88
  65  0.361  0.400  0.540-  66 0.76
  66  0.390  0.348  0.542-  65 0.76
 
  LATTYP: Found a hexagonal cell.
 ALAT       =    10.5600004196
 C/A-ratio  =     1.8939393187
  
  Lattice vectors:
  
 A1 = (  10.5600004196,   0.0000000000,   0.0000000000)
 A2 = (  -5.2800002098,   9.1452286274,   0.0000000000)
 A3 = (   0.0000000000,   0.0000000000,  20.0000000000)


Analysis of symmetry for initial positions (statically):
=====================================================================
 Subroutine PRICEL returns:
 Original cell was already a primitive cell.
 

 Routine SETGRP: Setting up the symmetry group for a 
 hexagonal supercell.


 Subroutine GETGRP returns: Found  1 space group operations
 (whereof  1 operations were pure point group operations)
 out of a pool of 24 trial point group operations.


The static configuration has the point symmetry C_1 .


Analysis of symmetry for dynamics (positions and initial velocities):
=====================================================================
 Subroutine PRICEL returns:
 Original cell was already a primitive cell.
 

 Routine SETGRP: Setting up the symmetry group for a 
 hexagonal supercell.


 Subroutine GETGRP returns: Found  1 space group operations
 (whereof  1 operations were pure point group operations)
 out of a pool of 24 trial point group operations.


The dynamic configuration has the point symmetry C_1 .


Analysis of constrained symmetry for selective dynamics:
=====================================================================
 Subroutine PRICEL returns:
 Original cell was already a primitive cell.
 

 Routine SETGRP: Setting up the symmetry group for a 
 hexagonal supercell.


 Subroutine GETGRP returns: Found  1 space group operations
 (whereof  1 operations were pure point group operations)
 out of a pool of 24 trial point group operations.


The constrained configuration has the point symmetry C_1 .


Analysis of structural, dynamic, and magnetic symmetry:
=====================================================================
 Subroutine PRICEL returns:
 Original cell was already a primitive cell.
 

 Routine SETGRP: Setting up the symmetry group for a 
 hexagonal supercell.


 Subroutine GETGRP returns: Found  1 space group operations
 (whereof  1 operations were pure point group operations)
 out of a pool of 24 trial point group operations.


The magnetic configuration has the point symmetry C_1 .


 Subroutine INISYM returns: Found  1 space group operations
 (whereof  1 operations are pure point group operations),
 and found     1 'primitive' translations

 
 
 KPOINTS: mesh auto                               

Automatic generation of k-mesh.
Space group operators:
 irot       det(A)        alpha          n_x          n_y          n_z        tau_x        tau_y        tau_z
    1     1.000000     0.000000     1.000000     0.000000     0.000000     0.000000     0.000000     0.000000
 
 Subroutine IBZKPT returns following result:
 ===========================================
 
 Found      4 irreducible k-points:
 
 Following reciprocal coordinates:
            Coordinates               Weight
  0.000000  0.000000  0.000000      1.000000
  0.500000 -0.000000  0.000000      1.000000
  0.000000  0.500000  0.000000      1.000000
  0.500000  0.500000  0.000000      1.000000
 
 Following cartesian coordinates:
            Coordinates               Weight
  0.000000  0.000000  0.000000      1.000000
  0.047348  0.027337  0.000000      1.000000
  0.000000  0.054673  0.000000      1.000000
  0.047348  0.082010  0.000000      1.000000
 


--------------------------------------------------------------------------------------------------------




 Dimension of arrays:
   k-points           NKPTS =      4   k-points in BZ     NKDIM =      4   number of bands    NBANDS=    420
   number of dos      NEDOS =    301   number of ions     NIONS =     66
   non local maximal  LDIM  =      6   non local SUM 2l+1 LMDIM =     18
   total plane-waves  NPLWV = ******
   max r-space proj   IRMAX =   8171   max aug-charges    IRDMAX=  35597
   dimension x,y,z NGX =    84 NGY =   84 NGZ =  160
   dimension x,y,z NGXF=   168 NGYF=  168 NGZF=  320
   support grid    NGXF=   168 NGYF=  168 NGZF=  320
   ions per type =              64   2
   NGX,Y,Z   is equivalent  to a cutoff of  13.22, 13.22, 13.30 a.u.
   NGXF,Y,Z  is equivalent  to a cutoff of  26.45, 26.45, 26.60 a.u.

 SYSTEM =  Pt111                                   
 POSCAR =  Pt   H                                  

 Startparameter for this run:
   NWRITE =      2    write-flag & timer
   PREC   = accura    normal or accurate (medium, high low for compatibility)
   ISTART =      0    job   : 0-new  1-cont  2-samecut
   ICHARG =      2    charge: 1-file 2-atom 10-const
   ISPIN  =      2    spin polarized calculation?
   LNONCOLLINEAR =      F non collinear calculations
   LSORBIT =      F    spin-orbit coupling
   INIWAV =      1    electr: 0-lowe 1-rand  2-diag
   LASPH  =      F    aspherical Exc in radial PAW
   METAGGA=      F    non-selfconsistent MetaGGA calc.

 Electronic Relaxation 1
   ENCUT  =  550.0 eV  40.42 Ry    6.36 a.u.  20.19 20.19 38.24*2*pi/ulx,y,z
   ENINI  =  550.0     initial cutoff
   ENAUG  =  400.0 eV  augmentation charge cutoff
   NELM   =    200;   NELMIN=  2; NELMDL= -5     # of ELM steps 
   EDIFF  = 0.1E-04   stopping-criterion for ELM
   LREAL  =      T    real-space projection
   NLSPLINE    = F    spline interpolate recip. space projectors
   LCOMPAT=      F    compatible to vasp.4.4
   GGA_COMPAT  = T    GGA compatible to vasp.4.4-vasp.4.6
   LMAXPAW     = -100 max onsite density
   LMAXMIX     =    2 max onsite mixed and CHGCAR
   VOSKOWN=      0    Vosko Wilk Nusair interpolation
   ROPT   =   -0.00025  -0.00025
 Ionic relaxation
   EDIFFG = -.5E-01   stopping-criterion for IOM
   NSW    =    300    number of steps for IOM
   NBLOCK =      1;   KBLOCK =    300    inner block; outer block 
   IBRION =      1    ionic relax: 0-MD 1-quasi-New 2-CG
   NFREE  =      0    steps in history (QN), initial steepest desc. (CG)
   ISIF   =      2    stress and relaxation
   IWAVPR =     11    prediction:  0-non 1-charg 2-wave 3-comb
   ISYM   =      2    0-nonsym 1-usesym 2-fastsym
   LCORR  =      T    Harris-Foulkes like correction to forces

   POTIM  = 0.5000    time-step for ionic-motion
   TEIN   =    0.0    initial temperature
   TEBEG  =    0.0;   TEEND  =   0.0 temperature during run
   SMASS  =  -3.00    Nose mass-parameter (am)
   estimated Nose-frequenzy (Omega)   =  0.10E-29 period in steps =****** mass=  -0.255E-26a.u.
   SCALEE = 1.0000    scale energy and forces
   NPACO  =    256;   APACO  = 16.0  distance and # of slots for P.C.
   PSTRESS=    0.0 pullay stress

  Mass of Ions in am
   POMASS = 195.08  1.00
  Ionic Valenz
   ZVAL   =  10.00  1.00
  Atomic Wigner-Seitz radii
   RWIGS  =  -1.00 -1.00
  virtual crystal weights 
   VCA    =   1.00  1.00
   NELECT =     642.0000    total number of electrons
   NUPDOWN=      -1.0000    fix difference up-down

 DOS related values:
   EMIN   =  10.00;   EMAX   =-10.00  energy-range for DOS
   EFERMI =   0.00
   ISMEAR =     1;   SIGMA  =   0.10  broadening in eV -4-tet -1-fermi 0-gaus

 Electronic relaxation 2 (details)
   IALGO  =     68    algorithm
   LDIAG  =      T    sub-space diagonalisation (order eigenvalues)
   LSUBROT=      F    optimize rotation matrix (better conditioning)
   TURBO    =      0    0=normal 1=particle mesh
   IRESTART =      0    0=no restart 2=restart with 2 vectors
   NREBOOT  =      0    no. of reboots
   NMIN     =      0    reboot dimension
   EREF     =   0.00    reference energy to select bands
   IMIX   =      4    mixing-type and parameters
     AMIX     =   0.40;   BMIX     =  1.00
     AMIX_MAG =   1.60;   BMIX_MAG =  1.00
     AMIN     =   0.10
     WC   =   100.;   INIMIX=   1;  MIXPRE=   1;  MAXMIX= -45

 Intra band minimization:
   WEIMIN = 0.0010     energy-eigenvalue tresh-hold
   EBREAK =  0.60E-08  absolut break condition
   DEPER  =   0.30     relativ break condition  

   TIME   =   0.40     timestep for ELM

  volume/ion in A,a.u.               =      29.26       197.49
  Fermi-wavevector in a.u.,A,eV,Ry     =   1.134028  2.143002 17.497349  1.286019
  Thomas-Fermi vector in A             =   2.270731
 
 Write flags
   LWAVE        =      F    write WAVECAR
   LDOWNSAMPLE  =      F    k-point downsampling of WAVECAR
   LCHARG       =      F    write CHGCAR
   LVTOT        =      F    write LOCPOT, total local potential
   LVHAR        =      F    write LOCPOT, Hartree potential only
   LELF         =      F    write electronic localiz. function (ELF)
   LORBIT       =      0    0 simple, 1 ext, 2 COOP (PROOUT), +10 PAW based schemes


 Dipole corrections
   LMONO  =      F    monopole corrections only (constant potential shift)
   LDIPOL =      F    correct potential (dipole corrections)
   IDIPOL =      0    1-x, 2-y, 3-z, 4-all directions 
   EPSILON=  1.0000000 bulk dielectric constant

 Exchange correlation treatment:
   GGA     =    --    GGA type
   LEXCH   =     8    internal setting for exchange type
   VOSKOWN=      0    Vosko Wilk Nusair interpolation
   LHFCALC =     F    Hartree Fock is set to
   LHFONE  =     F    Hartree Fock one center treatment
   AEXX    =    0.0000 exact exchange contribution

 Linear response parameters
   LEPSILON=     F    determine dielectric tensor
   LRPA    =     F    only Hartree local field effects (RPA)
   LNABLA  =     F    use nabla operator in PAW spheres
   LVEL    =     F    velocity operator in full k-point grid
   LINTERFAST=   F  fast interpolation
   KINTER  =     0    interpolate to denser k-point grid
   CSHIFT  =0.1000    complex shift for real part using Kramers Kronig
   OMEGAMAX=  -1.0    maximum frequency
   DEG_THRESHOLD= 0.2000000E-02 threshold for treating states as degnerate
   RTIME   =   -0.100 relaxation time in fs
  (WPLASMAI=    0.000 imaginary part of plasma frequency in eV, 0.658/RTIME)
   DFIELD  = 0.0000000 0.0000000 0.0000000 field for delta impulse in time
 
 Orbital magnetization related:
   ORBITALMAG=     F  switch on orbital magnetization
   LCHIMAG   =     F  perturbation theory with respect to B field
   DQ        =  0.001000  dq finite difference perturbation B field
   LLRAUG    =     F  two centre corrections for induced B field



--------------------------------------------------------------------------------------------------------


 quasi-Newton-method for relaxation of ions
   using selective dynamics as specified on POSCAR
   WARNING: If single coordinates had been selected the selection of coordinates
            is made according to the corresponding   d i r e c t   coordinates!
            Don't support selection of single cartesian coordinates -- sorry ...
  !
 charge density and potential will be updated during run
 spin polarized calculation
 RMM-DIIS sequential band-by-band and
  variant of blocked Davidson during initial phase
 perform sub-space diagonalisation
    before iterative eigenvector-optimisation
 modified Broyden-mixing scheme, WC =      100.0
 initial mixing is a Kerker type mixing with AMIX =  0.4000 and BMIX =      1.0000
 Hartree-type preconditioning will be used
 using additional bands           99
 real space projection scheme for non local part
 use partial core corrections
 calculate Harris-corrections to forces 
   (improved forces if not selfconsistent)
 use gradient corrections 
 use of overlap-Matrix (Vanderbilt PP)
 Methfessel and Paxton  Order N= 1 SIGMA  =   0.10


--------------------------------------------------------------------------------------------------------


  energy-cutoff  :      550.00
  volume of cell :     1931.47
      direct lattice vectors                 reciprocal lattice vectors
    10.560000420  0.000000000  0.000000000     0.094696966  0.054673319  0.000000000
    -5.280000210  9.145228627  0.000000000     0.000000000  0.109346638  0.000000000
     0.000000000  0.000000000 20.000000000     0.000000000  0.000000000  0.050000000

  length of vectors
    10.560000420 10.560000420 20.000000000     0.109346638  0.109346638  0.050000000


 
 k-points in units of 2pi/SCALE and weight: mesh auto                               
   0.00000000  0.00000000  0.00000000       0.250
   0.04734848  0.02733666  0.00000000       0.250
   0.00000000  0.05467332  0.00000000       0.250
   0.04734848  0.08200998  0.00000000       0.250
 
 k-points in reciprocal lattice and weights: mesh auto                               
   0.00000000  0.00000000  0.00000000       0.250
   0.50000000 -0.00000000  0.00000000       0.250
   0.00000000  0.50000000  0.00000000       0.250
   0.50000000  0.50000000  0.00000000       0.250
 
 position of ions in fractional coordinates (direct lattice) 
   0.99999844  0.00000156  0.05579229
   0.33333173  0.16666826  0.17752397
   0.16672827  0.33352053  0.29770585
   0.99973142  0.00018909  0.41922684
   0.99999844  0.25000155  0.05579229
   0.33333172  0.41666827  0.17752397
   0.16683584  0.08379551  0.29788269
   0.99961012  0.25021956  0.41869023
   0.24999844  0.25000155  0.05579229
   0.08333172  0.41666827  0.17752397
   0.41657321  0.08348057  0.29718122
   0.24946178  0.25003872  0.41987761
   0.24999844  0.00000156  0.05579229
   0.08333172  0.16666826  0.17752397
   0.41654394  0.33369492  0.29783982
   0.24994201  0.00023618  0.41938126
   0.49999844  0.00000156  0.05579229
   0.83333168  0.16666826  0.17752397
   0.66675368  0.33366377  0.29718633
   0.49990318  0.00026355  0.41932739
   0.49999843  0.25000155  0.05579229
   0.83333168  0.41666827  0.17752397
   0.66669692  0.08356042  0.29766403
   0.50012816  0.25009783  0.41797983
   0.74999841  0.25000155  0.05579229
   0.58333168  0.41666827  0.17752397
   0.91663290  0.08349620  0.29744703
   0.74995505  0.25032168  0.41933927
   0.74999842  0.00000156  0.05579229
   0.58333166  0.16666826  0.17752397
   0.91669440  0.33356410  0.29734425
   0.74988309  0.00035778  0.41957000
   0.99999844  0.50000154  0.05579229
   0.33333171  0.66666826  0.17752397
   0.16677956  0.83372727  0.29719879
   0.99989233  0.50039318  0.41900656
   0.99999843  0.75000151  0.05579229
   0.33333173  0.91666828  0.17752397
   0.16669967  0.58356360  0.29716687
   0.99990207  0.75033228  0.41809787
   0.24999843  0.75000151  0.05579229
   0.08333173  0.91666828  0.17752397
   0.41674234  0.58355846  0.29770123
   0.24986235  0.75035881  0.41905549
   0.24999844  0.50000154  0.05579229
   0.08333171  0.66666826  0.17752397
   0.41668750  0.83355597  0.29735181
   0.24974510  0.50048784  0.41899110
   0.49999844  0.50000154  0.05579229
   0.83333171  0.66666826  0.17752397
   0.66675959  0.83361608  0.29745413
   0.50017052  0.50075116  0.41977413
   0.49999843  0.75000151  0.05579229
   0.83333170  0.91666828  0.17752397
   0.66644555  0.58341651  0.29789348
   0.50003226  0.75063154  0.41871942
   0.74999841  0.75000151  0.05579229
   0.58333168  0.91666828  0.17752397
   0.91649464  0.58346502  0.29718498
   0.75006259  0.75050946  0.41927988
   0.74999839  0.50000154  0.05579229
   0.58333166  0.66666826  0.17752397
   0.91658085  0.83365354  0.29709441
   0.74999454  0.50029679  0.41938243
   0.36126192  0.40034582  0.54040853
   0.39045996  0.34768130  0.54238297
 
 position of ions in cartesian coordinates  (Angst):
  10.55997578  0.00001422  1.11584590
   2.63997474  1.52421935  3.55047947
  -0.00033792  3.05012152  5.95411697
  10.55616576  0.00172931  8.38453686
   9.23997574  2.28632132  1.11584590
   1.31997457  3.81052657  3.55047947
   1.31934623  0.76632908  5.95765375
   9.23472390  2.28831512  8.37380453
   1.31997542  2.28632132  1.11584590
  -1.32002553  3.81052657  3.55047947
   3.95823586  0.76344888  5.94362443
   1.31411199  2.28666127  8.39755219
   2.63997547  0.00001422  1.11584590
  -0.00002541  1.52421935  3.55047947
   2.63679489  3.05171636  5.95679633
   2.63814071  0.00215992  8.38762519
   5.27997557  0.00001422  1.11584590
   7.91997448  1.52421935  3.55047947
   5.27917432  3.05143147  5.94372661
   5.27758627  0.00241025  8.38654784
   3.95997540  2.28632132  1.11584590
   6.59997431  3.81052657  3.55047947
   6.59912070  0.76417918  5.95328058
   3.96083695  2.28720183  8.35959663
   6.59997527  2.28632132  1.11584590
   3.95997420  3.81052657  3.55047947
   9.23878389  0.76359185  5.94894051
   6.59782712  2.28924902  8.38678536
   7.91997543  0.00001422  1.11584590
   5.27997414  1.52421935  3.55047947
   7.91907473  3.05051997  5.94688497
   7.91687665  0.00327196  8.39139993
   7.91997567  4.57262842  1.11584590
  -0.00002559  6.09683366  3.55047947
  -2.64088792  7.62462654  5.94397570
   7.91678732  4.57621004  8.38013130
   6.59997574  6.85893527  1.11584590
  -1.32002553  8.38314100  3.55047947
  -1.32086733  5.33682253  5.94333731
   6.59721166  6.86196026  8.36195746
  -1.32002457  6.85893527  1.11584590
  -3.96002563  8.38314100  3.55047947
   1.31961050  5.33677556  5.95402463
  -1.32334817  6.86220285  8.38110982
  -0.00002464  4.57262842  1.11584590
  -2.64002570  6.09683366  3.55047947
  -0.00095552  7.62305994  5.94703626
  -0.00526751  4.57707571  8.37982194
   2.63997546  4.57262842  1.11584590
   5.27997462  6.09683366  3.55047947
   2.63948849  7.62360961  5.94908265
   2.63783464  4.57948388  8.39548255
   1.31997553  6.85893527  1.11584590
   3.95997444  8.38314100  3.55047947
   3.95722602  5.33547736  5.95786965
   1.31700618  6.86469701  8.37438845
   3.95997540  6.85893527  1.11584590
   1.31997410  8.38314100  3.55047947
   6.59748830  5.33592102  5.94369963
   3.95797122  6.86358057  8.38559762
   5.27997509  4.57262842  1.11584590
   2.63997404  6.09683366  3.55047947
   5.27740327  7.62395224  5.94188819
   5.27837555  4.57532849  8.38764867
   1.70110008  3.66125402 10.80817065
   2.28749999  3.17962496 10.84765935
 


--------------------------------------------------------------------------------------------------------


 k-point  1 :   0.0000 0.0000 0.0000  plane waves:   56579
 k-point  2 :   0.5000-0.0000 0.0000  plane waves:   56606
 k-point  3 :   0.0000 0.5000 0.0000  plane waves:   56606
 k-point  4 :   0.5000 0.5000 0.0000  plane waves:   56606

 maximum and minimum number of plane-waves per node :     14185    14108

 maximum number of plane-waves:     56606
 maximum index in each direction: 
   IXMAX=   20   IYMAX=   20   IZMAX=   38
   IXMIN=  -20   IYMIN=  -20   IZMIN=  -38


 real space projection operators:
  total allocation   :      71350.48 KBytes
  max/ min on nodes  :      17841.28      17835.07


 parallel 3D FFT for wavefunctions:
    minimum data exchange during FFTs selected (reduces bandwidth)
 parallel 3D FFT for charge:
    minimum data exchange during FFTs selected (reduces bandwidth)


 total amount of memory used by VASP MPI-rank0   200776. kBytes
=======================================================================

   base      :      30000. kBytes
   nonlr-proj:      31118. kBytes
   fftplans  :      17093. kBytes
   grid      :      44247. kBytes
   one-center:        528. kBytes
   wavefun   :      77790. kBytes
 
     INWAV:  cpu time    0.0000: real time    0.0000
 Broyden mixing: mesh for mixing (old mesh)
   NGX = 41   NGY = 41   NGZ = 77
  (NGX  =168   NGY  =168   NGZ  =320)
  gives a total of 129437 points

 initial charge density was supplied:
 charge density of overlapping atoms calculated
 number of electron     642.0000000 magnetization      66.0000000
 keeping initial charge density in first step


--------------------------------------------------------------------------------------------------------


 Maximum index for non-local projection operator         2014
 Maximum index for augmentation-charges         2178 (set IRDMAX)


--------------------------------------------------------------------------------------------------------


 First call to EWALD:  gamma=   0.142
 Maximum number of real-space cells 4x 4x 2
 Maximum number of reciprocal cells 2x 2x 4

    FEWALD:  cpu time    0.0027: real time    0.0027


--------------------------------------- Iteration      1(   1)  ---------------------------------------


    POTLOK:  cpu time    0.3975: real time    0.4503
    SETDIJ:  cpu time    0.0330: real time    0.0332
     EDDAV:  cpu time   40.9275: real time   41.0330
       DOS:  cpu time    0.0015: real time    0.0065
    --------------------------------------------
      LOOP:  cpu time   41.3596: real time   41.5230

 eigenvalue-minimisations  :  6720
 total energy-change (2. order) : 0.4504953E+04  (-0.3124953E+05)
 number of electron     642.0000000 magnetization      66.0000000
 augmentation part      642.0000000 magnetization      66.0000000

 Free energy of the ion-electron system (eV)
  ---------------------------------------------------
  alpha Z        PSCENC =      2023.78361127
  Ewald energy   TEWEN  =    125383.67905773
  -Hartree energ DENC   =   -176495.68928013
  -exchange      EXHF   =         0.00000000
  -V(xc)+E(xc)   XCENC  =       247.61942892
  PAW double counting   =     44550.55032729   -42740.70693553
  entropy T*S    EENTRO =        -0.00870521
  eigenvalues    EBANDS =      4847.35525030
  atomic energy  EATOM  =     46688.37031544
  Solvation  Ediel_sol  =         0.00000000
  ---------------------------------------------------
  free energy    TOTEN  =      4504.95307010 eV

  energy without entropy =     4504.96177530  energy(sigma->0) =     4504.95597183


--------------------------------------------------------------------------------------------------------




--------------------------------------- Iteration      1(   2)  ---------------------------------------


     EDDAV:  cpu time   45.5833: real time   45.6926
       DOS:  cpu time    0.0016: real time    0.0062
    --------------------------------------------
      LOOP:  cpu time   45.5849: real time   45.6988

 eigenvalue-minimisations  :  7540
 total energy-change (2. order) :-0.4637344E+04  (-0.4250705E+04)
 number of electron     642.0000000 magnetization      66.0000000
 augmentation part      642.0000000 magnetization      66.0000000

 Free energy of the ion-electron system (eV)
  ---------------------------------------------------
  alpha Z        PSCENC =      2023.78361127
  Ewald energy   TEWEN  =    125383.67905773
  -Hartree energ DENC   =   -176495.68928013
  -exchange      EXHF   =         0.00000000
  -V(xc)+E(xc)   XCENC  =       247.61942892
  PAW double counting   =     44550.55032729   -42740.70693553
  entropy T*S    EENTRO =         0.00210403
  eigenvalues    EBANDS =       210.00043138
  atomic energy  EATOM  =     46688.37031544
  Solvation  Ediel_sol  =         0.00000000
  ---------------------------------------------------
  free energy    TOTEN  =      -132.39093959 eV

  energy without entropy =     -132.39304362  energy(sigma->0) =     -132.39164093


--------------------------------------------------------------------------------------------------------




--------------------------------------- Iteration      1(   3)  ---------------------------------------


     EDDAV:  cpu time   45.9543: real time   46.0632
       DOS:  cpu time    0.0017: real time    0.0059
    --------------------------------------------
      LOOP:  cpu time   45.9560: real time   46.0691

 eigenvalue-minimisations  :  7630
 total energy-change (2. order) :-0.2484302E+03  (-0.2295740E+03)
 number of electron     642.0000000 magnetization      66.0000000
 augmentation part      642.0000000 magnetization      66.0000000

 Free energy of the ion-electron system (eV)
  ---------------------------------------------------
  alpha Z        PSCENC =      2023.78361127
  Ewald energy   TEWEN  =    125383.67905773
  -Hartree energ DENC   =   -176495.68928013
  -exchange      EXHF   =         0.00000000
  -V(xc)+E(xc)   XCENC  =       247.61942892
  PAW double counting   =     44550.55032729   -42740.70693553
  entropy T*S    EENTRO =         0.00746027
  eigenvalues    EBANDS =       -38.43514360
  atomic energy  EATOM  =     46688.37031544
  Solvation  Ediel_sol  =         0.00000000
  ---------------------------------------------------
  free energy    TOTEN  =      -380.82115832 eV

  energy without entropy =     -380.82861860  energy(sigma->0) =     -380.82364508


--------------------------------------------------------------------------------------------------------




--------------------------------------- Iteration      1(   4)  ---------------------------------------


     EDDAV:  cpu time   47.4917: real time   47.6201
       DOS:  cpu time    0.0018: real time    0.0051
    --------------------------------------------
      LOOP:  cpu time   47.4935: real time   47.6253

 eigenvalue-minimisations  :  7940
 total energy-change (2. order) :-0.6541641E+01  (-0.6475168E+01)
 number of electron     642.0000000 magnetization      66.0000000
 augmentation part      642.0000000 magnetization      66.0000000

 Free energy of the ion-electron system (eV)
  ---------------------------------------------------
  alpha Z        PSCENC =      2023.78361127
  Ewald energy   TEWEN  =    125383.67905773
  -Hartree energ DENC   =   -176495.68928013
  -exchange      EXHF   =         0.00000000
  -V(xc)+E(xc)   XCENC  =       247.61942892
  PAW double counting   =     44550.55032729   -42740.70693553
  entropy T*S    EENTRO =         0.00296681
  eigenvalues    EBANDS =       -44.97229137
  atomic energy  EATOM  =     46688.37031544
  Solvation  Ediel_sol  =         0.00000000
  ---------------------------------------------------
  free energy    TOTEN  =      -387.36279956 eV

  energy without entropy =     -387.36576637  energy(sigma->0) =     -387.36378849


--------------------------------------------------------------------------------------------------------




--------------------------------------- Iteration      1(   5)  ---------------------------------------


     EDDAV:  cpu time   47.2733: real time   47.3991
       DOS:  cpu time    0.0019: real time    0.0097
    CHARGE:  cpu time    3.0614: real time    3.0702
    MIXING:  cpu time    0.0088: real time    0.0092
    --------------------------------------------
      LOOP:  cpu time   50.3453: real time   50.4882

 eigenvalue-minimisations  :  7950
 total energy-change (2. order) :-0.2330158E+00  (-0.2324364E+00)
 number of electron     642.0000104 magnetization      59.6213625
 augmentation part      185.8874899 magnetization      47.8179104

 Broyden mixing:
  rms(total) = 0.10547E+02    rms(broyden)= 0.10547E+02
  rms(prec ) = 0.10649E+02
  weight for this iteration     100.00

 Free energy of the ion-electron system (eV)
  ---------------------------------------------------
  alpha Z        PSCENC =      2023.78361127
  Ewald energy   TEWEN  =    125383.67905773
  -Hartree energ DENC   =   -176495.68928013
  -exchange      EXHF   =         0.00000000
  -V(xc)+E(xc)   XCENC  =       247.61942892
  PAW double counting   =     44550.55032729   -42740.70693553
  entropy T*S    EENTRO =         0.00255743
  eigenvalues    EBANDS =       -45.20489780
  atomic energy  EATOM  =     46688.37031544
  Solvation  Ediel_sol  =         0.00000000
  ---------------------------------------------------
  free energy    TOTEN  =      -387.59581537 eV

  energy without entropy =     -387.59837280  energy(sigma->0) =     -387.59666785


--------------------------------------------------------------------------------------------------------




--------------------------------------- Iteration      1(   6)  ---------------------------------------


    POTLOK:  cpu time    0.3860: real time    0.3942
    SETDIJ:  cpu time    0.0339: real time    0.0340
    EDDIAG:  cpu time    7.5154: real time    7.5376
  RMM-DIIS:  cpu time   26.6682: real time   26.7510
    ORTHCH:  cpu time    0.6861: real time    0.6927
       DOS:  cpu time    0.0016: real time    0.0016
    CHARGE:  cpu time    3.0319: real time    3.0406
    MIXING:  cpu time    0.0087: real time    0.0090
    --------------------------------------------
      LOOP:  cpu time   38.3318: real time   38.4607

 eigenvalue-minimisations  :  6758
 total energy-change (2. order) : 0.2549417E+02  (-0.7598867E+01)
 number of electron     642.0000111 magnetization      51.6004617
 augmentation part      195.0609013 magnetization      38.5302495

 Broyden mixing:
  rms(total) = 0.67434E+01    rms(broyden)= 0.67434E+01
  rms(prec ) = 0.70040E+01
  weight for this iteration     100.00

 eigenvalues of (default mixing * dielectric matrix)
  average eigenvalue GAMMA=   1.2865
  1.2865

 Free energy of the ion-electron system (eV)
  ---------------------------------------------------
  alpha Z        PSCENC =      2023.78361127
  Ewald energy   TEWEN  =    125383.67905773
  -Hartree energ DENC   =   -175839.86763183
  -exchange      EXHF   =         0.00000000
  -V(xc)+E(xc)   XCENC  =       239.36694754
  PAW double counting   =     50894.03032486   -49191.31490009
  entropy T*S    EENTRO =        -0.03868693
  eigenvalues    EBANDS =      -560.11068728
  atomic energy  EATOM  =     46688.37031544
  Solvation  Ediel_sol  =         0.00000000
  ---------------------------------------------------
  free energy    TOTEN  =      -362.10164929 eV

  energy without entropy =     -362.06296236  energy(sigma->0) =     -362.08875365


--------------------------------------------------------------------------------------------------------




--------------------------------------- Iteration      1(   7)  ---------------------------------------


    POTLOK:  cpu time    0.3910: real time    0.3953
    SETDIJ:  cpu time    0.0326: real time    0.0327
    EDDIAG:  cpu time    7.4488: real time    7.4682
  RMM-DIIS:  cpu time   26.2624: real time   26.3410
    ORTHCH:  cpu time    0.6907: real time    0.6951
       DOS:  cpu time    0.0017: real time    0.0055
    CHARGE:  cpu time    3.1009: real time    3.1082
    MIXING:  cpu time    0.0097: real time    0.0097
    --------------------------------------------
      LOOP:  cpu time   37.9377: real time   38.0557

 eigenvalue-minimisations  :  6740
 total energy-change (2. order) :-0.1041232E+03  (-0.1191385E+02)
 number of electron     642.0000116 magnetization      45.8558923
 augmentation part      192.8994944 magnetization      33.8098833

 Broyden mixing:
  rms(total) = 0.91955E+01    rms(broyden)= 0.91955E+01
  rms(prec ) = 0.11357E+02
  weight for this iteration     100.00

 eigenvalues of (default mixing * dielectric matrix)
  average eigenvalue GAMMA=   1.0795
  1.8114  0.3476

 Free energy of the ion-electron system (eV)
  ---------------------------------------------------
  alpha Z        PSCENC =      2023.78361127
  Ewald energy   TEWEN  =    125383.67905773
  -Hartree energ DENC   =   -176373.56106684
  -exchange      EXHF   =         0.00000000
  -V(xc)+E(xc)   XCENC  =       232.50582426
  PAW double counting   =     56660.57375720   -55021.89979697
  entropy T*S    EENTRO =        -0.02915969
  eigenvalues    EBANDS =       -59.64737659
  atomic energy  EATOM  =     46688.37031544
  Solvation  Ediel_sol  =         0.00000000
  ---------------------------------------------------
  free energy    TOTEN  =      -466.22483420 eV

  energy without entropy =     -466.19567450  energy(sigma->0) =     -466.21511430


--------------------------------------------------------------------------------------------------------




--------------------------------------- Iteration      1(   8)  ---------------------------------------


    POTLOK:  cpu time    0.3904: real time    0.3952
    SETDIJ:  cpu time    0.0338: real time    0.0339
    EDDIAG:  cpu time    7.4457: real time    7.4633
  RMM-DIIS:  cpu time   26.5136: real time   26.5815
    ORTHCH:  cpu time    0.6917: real time    0.6981
       DOS:  cpu time    0.0017: real time    0.0069
    CHARGE:  cpu time    3.0079: real time    3.0150
    MIXING:  cpu time    0.0086: real time    0.0087
    --------------------------------------------
      LOOP:  cpu time   38.0935: real time   38.2026

 eigenvalue-minimisations  :  6762
 total energy-change (2. order) : 0.1119348E+03  (-0.5098731E+01)
 number of electron     642.0000112 magnetization      43.0317135
 augmentation part      198.6968956 magnetization      30.5123137

 Broyden mixing:
  rms(total) = 0.25770E+01    rms(broyden)= 0.25770E+01
  rms(prec ) = 0.30312E+01
  weight for this iteration     100.00

 eigenvalues of (default mixing * dielectric matrix)
  average eigenvalue GAMMA=   1.0133
  2.1290  0.5837  0.3272

 Free energy of the ion-electron system (eV)
  ---------------------------------------------------
  alpha Z        PSCENC =      2023.78361127
  Ewald energy   TEWEN  =    125383.67905773
  -Hartree energ DENC   =   -175821.86288134
  -exchange      EXHF   =         0.00000000
  -V(xc)+E(xc)   XCENC  =       234.39527737
  PAW double counting   =     60054.66155687   -58457.36292651
  entropy T*S    EENTRO =         0.02648750
  eigenvalues    EBANDS =      -459.98056789
  atomic energy  EATOM  =     46688.37031544
  Solvation  Ediel_sol  =         0.00000000
  ---------------------------------------------------
  free energy    TOTEN  =      -354.29006957 eV

  energy without entropy =     -354.31655706  energy(sigma->0) =     -354.29889873


--------------------------------------------------------------------------------------------------------




--------------------------------------- Iteration      1(   9)  ---------------------------------------


    POTLOK:  cpu time    0.3895: real time    0.3904
    SETDIJ:  cpu time    0.0352: real time    0.0353
    EDDIAG:  cpu time    7.4731: real time    7.4908
  RMM-DIIS:  cpu time   26.3653: real time   26.4359
    ORTHCH:  cpu time    0.6907: real time    0.6960
       DOS:  cpu time    0.0017: real time    0.0073
    CHARGE:  cpu time    3.0510: real time    3.0583
    MIXING:  cpu time    0.0106: real time    0.0106
    --------------------------------------------
      LOOP:  cpu time   38.0172: real time   38.1246

 eigenvalue-minimisations  :  6740
 total energy-change (2. order) :-0.2585203E+02  (-0.1647976E+01)
 number of electron     642.0000116 magnetization      41.0771426
 augmentation part      197.9221730 magnetization      33.7389100

 Broyden mixing:
  rms(total) = 0.50724E+01    rms(broyden)= 0.50724E+01
  rms(prec ) = 0.75287E+01
  weight for this iteration     100.00

 eigenvalues of (default mixing * dielectric matrix)
  average eigenvalue GAMMA=   0.8590
  2.2256  0.6911  0.3296  0.1897

 Free energy of the ion-electron system (eV)
  ---------------------------------------------------
  alpha Z        PSCENC =      2023.78361127
  Ewald energy   TEWEN  =    125383.67905773
  -Hartree energ DENC   =   -175830.05409730
  -exchange      EXHF   =         0.00000000
  -V(xc)+E(xc)   XCENC  =       232.91363622
  PAW double counting   =     60468.28214239   -58871.64229171
  entropy T*S    EENTRO =        -0.00526548
  eigenvalues    EBANDS =      -475.46920839
  atomic energy  EATOM  =     46688.37031544
  Solvation  Ediel_sol  =         0.00000000
  ---------------------------------------------------
  free energy    TOTEN  =      -380.14209983 eV

  energy without entropy =     -380.13683435  energy(sigma->0) =     -380.14034467


--------------------------------------------------------------------------------------------------------




--------------------------------------- Iteration      1(  10)  ---------------------------------------


    POTLOK:  cpu time    0.3876: real time    0.3885
    SETDIJ:  cpu time    0.0346: real time    0.0347
    EDDIAG:  cpu time    7.4564: real time    7.4742
  RMM-DIIS:  cpu time   26.5726: real time   26.6492
    ORTHCH:  cpu time    0.6947: real time    0.7006
       DOS:  cpu time    0.0017: real time    0.0017
    CHARGE:  cpu time    3.0694: real time    3.0781
    MIXING:  cpu time    0.0109: real time    0.0109
    --------------------------------------------
      LOOP:  cpu time   38.2278: real time   38.3379

 eigenvalue-minimisations  :  6775
 total energy-change (2. order) : 0.1818543E+02  (-0.5766187E+00)
 number of electron     642.0000112 magnetization      39.3288585
 augmentation part      197.6433707 magnetization      29.2560845

 Broyden mixing:
  rms(total) = 0.26505E+01    rms(broyden)= 0.26504E+01
  rms(prec ) = 0.35465E+01
  weight for this iteration     100.00

 eigenvalues of (default mixing * dielectric matrix)
  average eigenvalue GAMMA=   0.7658
  2.2539  0.7727  0.3656  0.3157  0.1211

 Free energy of the ion-electron system (eV)
  ---------------------------------------------------
  alpha Z        PSCENC =      2023.78361127
  Ewald energy   TEWEN  =    125383.67905773
  -Hartree energ DENC   =   -175866.40597384
  -exchange      EXHF   =         0.00000000
  -V(xc)+E(xc)   XCENC  =       232.72973750
  PAW double counting   =     60724.05299554   -59128.20860488
  entropy T*S    EENTRO =        -0.01326710
  eigenvalues    EBANDS =      -419.94453853
  atomic energy  EATOM  =     46688.37031544
  Solvation  Ediel_sol  =         0.00000000
  ---------------------------------------------------
  free energy    TOTEN  =      -361.95666686 eV

  energy without entropy =     -361.94339976  energy(sigma->0) =     -361.95224449


--------------------------------------------------------------------------------------------------------




--------------------------------------- Iteration      1(  11)  ---------------------------------------


    POTLOK:  cpu time    0.3909: real time    0.3924
    SETDIJ:  cpu time    0.0326: real time    0.0327
    EDDIAG:  cpu time    7.4044: real time    7.4262
  RMM-DIIS:  cpu time   26.4313: real time   26.5131
    ORTHCH:  cpu time    0.6883: real time    0.6953
       DOS:  cpu time    0.0017: real time    0.0017
    CHARGE:  cpu time    3.0427: real time    3.0515
    MIXING:  cpu time    0.0103: real time    0.0105
    --------------------------------------------
      LOOP:  cpu time   38.0024: real time   38.1233

 eigenvalue-minimisations  :  6753
 total energy-change (2. order) : 0.4622474E+01  (-0.2766636E+00)
 number of electron     642.0000111 magnetization      36.5993138
 augmentation part      197.5254143 magnetization      26.3490133

 Broyden mixing:
  rms(total) = 0.11063E+01    rms(broyden)= 0.11063E+01
  rms(prec ) = 0.11726E+01
  weight for this iteration     100.00

 eigenvalues of (default mixing * dielectric matrix)
  average eigenvalue GAMMA=   0.7497
  2.2127  0.7781  0.7781  0.3416  0.2719  0.1157

 Free energy of the ion-electron system (eV)
  ---------------------------------------------------
  alpha Z        PSCENC =      2023.78361127
  Ewald energy   TEWEN  =    125383.67905773
  -Hartree energ DENC   =   -175876.78535393
  -exchange      EXHF   =         0.00000000
  -V(xc)+E(xc)   XCENC  =       232.13832766
  PAW double counting   =     60855.14095132   -59260.11959324
  entropy T*S    EENTRO =         0.01314799
  eigenvalues    EBANDS =      -403.55465738
  atomic energy  EATOM  =     46688.37031544
  Solvation  Ediel_sol  =         0.00000000
  ---------------------------------------------------
  free energy    TOTEN  =      -357.33419313 eV

  energy without entropy =     -357.34734113  energy(sigma->0) =     -357.33857580


--------------------------------------------------------------------------------------------------------




--------------------------------------- Iteration      1(  12)  ---------------------------------------


    POTLOK:  cpu time    0.3895: real time    0.3908
    SETDIJ:  cpu time    0.0328: real time    0.0329
    EDDIAG:  cpu time    7.4194: real time    7.4408
  RMM-DIIS:  cpu time   26.5421: real time   26.6240
    ORTHCH:  cpu time    0.6959: real time    0.7024
       DOS:  cpu time    0.0017: real time    0.0017
    CHARGE:  cpu time    3.0490: real time    3.0562
    MIXING:  cpu time    0.0109: real time    0.0109
    --------------------------------------------
      LOOP:  cpu time   38.1413: real time   38.2598

 eigenvalue-minimisations  :  6766
 total energy-change (2. order) :-0.1666208E+01  (-0.5563370E-01)
 number of electron     642.0000111 magnetization      32.5746459
 augmentation part      197.3974288 magnetization      22.5693447

 Broyden mixing:
  rms(total) = 0.90831E+00    rms(broyden)= 0.90831E+00
  rms(prec ) = 0.95382E+00
  weight for this iteration     100.00

 eigenvalues of (default mixing * dielectric matrix)
  average eigenvalue GAMMA=   0.7813
  2.2515  0.9674  0.7584  0.7584  0.3088  0.3088  0.1157

 Free energy of the ion-electron system (eV)
  ---------------------------------------------------
  alpha Z        PSCENC =      2023.78361127
  Ewald energy   TEWEN  =    125383.67905773
  -Hartree energ DENC   =   -175877.68547594
  -exchange      EXHF   =         0.00000000
  -V(xc)+E(xc)   XCENC  =       231.34427444
  PAW double counting   =     60762.32900710   -59166.74055484
  entropy T*S    EENTRO =         0.02675527
  eigenvalues    EBANDS =      -404.10739180
  atomic energy  EATOM  =     46688.37031544
  Solvation  Ediel_sol  =         0.00000000
  ---------------------------------------------------
  free energy    TOTEN  =      -359.00040133 eV

  energy without entropy =     -359.02715660  energy(sigma->0) =     -359.00931976


--------------------------------------------------------------------------------------------------------




--------------------------------------- Iteration      1(  13)  ---------------------------------------


    POTLOK:  cpu time    0.3925: real time    0.3935
    SETDIJ:  cpu time    0.0326: real time    0.0327
    EDDIAG:  cpu time    7.4529: real time    7.4707
  RMM-DIIS:  cpu time   26.4968: real time   26.5650
    ORTHCH:  cpu time    0.7614: real time    0.7678
       DOS:  cpu time    0.0017: real time    0.0017
    CHARGE:  cpu time    3.0323: real time    3.0395
    MIXING:  cpu time    0.0102: real time    0.0103
    --------------------------------------------
      LOOP:  cpu time   38.1805: real time   38.2811

 eigenvalue-minimisations  :  6758
 total energy-change (2. order) :-0.2908317E+01  (-0.8665655E-01)
 number of electron     642.0000111 magnetization      28.4673180
 augmentation part      197.2507792 magnetization      18.2778181

 Broyden mixing:
  rms(total) = 0.81992E+00    rms(broyden)= 0.81992E+00
  rms(prec ) = 0.89744E+00
  weight for this iteration     100.00

 eigenvalues of (default mixing * dielectric matrix)
  average eigenvalue GAMMA=   0.7942
  2.2498  1.3848  0.8809  0.6904  0.4156  0.3081  0.3081  0.1158

 Free energy of the ion-electron system (eV)
  ---------------------------------------------------
  alpha Z        PSCENC =      2023.78361127
  Ewald energy   TEWEN  =    125383.67905773
  -Hartree energ DENC   =   -175892.77199443
  -exchange      EXHF   =         0.00000000
  -V(xc)+E(xc)   XCENC  =       229.63661591
  PAW double counting   =     60821.84068678   -59227.19875082
  entropy T*S    EENTRO =         0.01168116
  eigenvalues    EBANDS =      -389.25994171
  atomic energy  EATOM  =     46688.37031544
  Solvation  Ediel_sol  =         0.00000000
  ---------------------------------------------------
  free energy    TOTEN  =      -361.90871867 eV

  energy without entropy =     -361.92039983  energy(sigma->0) =     -361.91261239


--------------------------------------------------------------------------------------------------------




--------------------------------------- Iteration      1(  14)  ---------------------------------------


    POTLOK:  cpu time    0.3928: real time    0.3980
    SETDIJ:  cpu time    0.0347: real time    0.0348
    EDDIAG:  cpu time    7.4312: real time    7.4488
  RMM-DIIS:  cpu time   26.5487: real time   26.6166
    ORTHCH:  cpu time    0.6939: real time    0.6995
       DOS:  cpu time    0.0017: real time    0.0017
    CHARGE:  cpu time    3.0792: real time    3.0865
    MIXING:  cpu time    0.0103: real time    0.0103
    --------------------------------------------
      LOOP:  cpu time   38.1924: real time   38.2962

 eigenvalue-minimisations  :  6752
 total energy-change (2. order) :-0.3303589E+01  (-0.1357699E+00)
 number of electron     642.0000111 magnetization      24.8965009
 augmentation part      197.1482620 magnetization      14.8705056

 Broyden mixing:
  rms(total) = 0.67157E+00    rms(broyden)= 0.67157E+00
  rms(prec ) = 0.75540E+00
  weight for this iteration     100.00

 eigenvalues of (default mixing * dielectric matrix)
  average eigenvalue GAMMA=   0.8279
  2.1575  2.1575  0.9182  0.6222  0.6222  0.1158  0.3023  0.3023  0.2534

 Free energy of the ion-electron system (eV)
  ---------------------------------------------------
  alpha Z        PSCENC =      2023.78361127
  Ewald energy   TEWEN  =    125383.67905773
  -Hartree energ DENC   =   -175903.88155800
  -exchange      EXHF   =         0.00000000
  -V(xc)+E(xc)   XCENC  =       227.56297888
  PAW double counting   =     60800.07584441   -59205.60028817
  entropy T*S    EENTRO =        -0.00613145
  eigenvalues    EBANDS =      -379.19613760
  atomic energy  EATOM  =     46688.37031544
  Solvation  Ediel_sol  =         0.00000000
  ---------------------------------------------------
  free energy    TOTEN  =      -365.21230749 eV

  energy without entropy =     -365.20617604  energy(sigma->0) =     -365.21026367


--------------------------------------------------------------------------------------------------------




--------------------------------------- Iteration      1(  15)  ---------------------------------------


    POTLOK:  cpu time    0.3941: real time    0.3950
    SETDIJ:  cpu time    0.0346: real time    0.0347
    EDDIAG:  cpu time    7.4617: real time    7.4795
  RMM-DIIS:  cpu time   26.6421: real time   26.7099
    ORTHCH:  cpu time    0.6861: real time    0.6920
       DOS:  cpu time    0.0017: real time    0.0017
    CHARGE:  cpu time    3.0330: real time    3.0402
    MIXING:  cpu time    0.0117: real time    0.0117
    --------------------------------------------
      LOOP:  cpu time   38.2649: real time   38.3646

 eigenvalue-minimisations  :  6752
 total energy-change (2. order) :-0.3215363E+01  (-0.1546964E+00)
 number of electron     642.0000111 magnetization      22.3920635
 augmentation part      197.0764230 magnetization      12.9603212

 Broyden mixing:
  rms(total) = 0.42690E+00    rms(broyden)= 0.42689E+00
  rms(prec ) = 0.47116E+00
  weight for this iteration     100.00

 eigenvalues of (default mixing * dielectric matrix)
  average eigenvalue GAMMA=   0.8803
  2.4839  2.4839  0.7641  0.7641  0.7576  0.5921  0.1158  0.3075  0.3075  0.2262

 Free energy of the ion-electron system (eV)
  ---------------------------------------------------
  alpha Z        PSCENC =      2023.78361127
  Ewald energy   TEWEN  =    125383.67905773
  -Hartree energ DENC   =   -175904.58299848
  -exchange      EXHF   =         0.00000000
  -V(xc)+E(xc)   XCENC  =       225.51590257
  PAW double counting   =     60679.37422201   -59083.95113002
  entropy T*S    EENTRO =         0.00063065
  eigenvalues    EBANDS =      -380.61728156
  atomic energy  EATOM  =     46688.37031544
  Solvation  Ediel_sol  =         0.00000000
  ---------------------------------------------------
  free energy    TOTEN  =      -368.42767038 eV

  energy without entropy =     -368.42830103  energy(sigma->0) =     -368.42788060


--------------------------------------------------------------------------------------------------------




--------------------------------------- Iteration      1(  16)  ---------------------------------------


    POTLOK:  cpu time    0.3935: real time    0.3988
    SETDIJ:  cpu time    0.0330: real time    0.0330
    EDDIAG:  cpu time    7.4587: real time    7.4765
  RMM-DIIS:  cpu time   26.5670: real time   26.6350
    ORTHCH:  cpu time    0.6821: real time    0.6886
       DOS:  cpu time    0.0017: real time    0.0017
    CHARGE:  cpu time    3.0306: real time    3.0378
    MIXING:  cpu time    0.0108: real time    0.0108
    --------------------------------------------
      LOOP:  cpu time   38.1773: real time   38.2821

 eigenvalue-minimisations  :  6755
 total energy-change (2. order) :-0.2103824E+01  (-0.1121279E+00)
 number of electron     642.0000111 magnetization      20.1616255
 augmentation part      197.0779519 magnetization      11.5040759

 Broyden mixing:
  rms(total) = 0.37900E+00    rms(broyden)= 0.37900E+00
  rms(prec ) = 0.41371E+00
  weight for this iteration     100.00

 eigenvalues of (default mixing * dielectric matrix)
  average eigenvalue GAMMA=   0.9365
  3.2979  2.4340  1.0114  1.0114  0.6442  0.6442  0.1158  0.3100  0.3100  0.3029
  0.2197

 Free energy of the ion-electron system (eV)
  ---------------------------------------------------
  alpha Z        PSCENC =      2023.78361127
  Ewald energy   TEWEN  =    125383.67905773
  -Hartree energ DENC   =   -175895.44943905
  -exchange      EXHF   =         0.00000000
  -V(xc)+E(xc)   XCENC  =       224.07531628
  PAW double counting   =     60594.68773414   -58998.53003606
  entropy T*S    EENTRO =         0.01107915
  eigenvalues    EBANDS =      -391.15913355
  atomic energy  EATOM  =     46688.37031544
  Solvation  Ediel_sol  =         0.00000000
  ---------------------------------------------------
  free energy    TOTEN  =      -370.53149465 eV

  energy without entropy =     -370.54257381  energy(sigma->0) =     -370.53518770


--------------------------------------------------------------------------------------------------------




--------------------------------------- Iteration      1(  17)  ---------------------------------------


    POTLOK:  cpu time    0.3923: real time    0.3968
    SETDIJ:  cpu time    0.0328: real time    0.0329
    EDDIAG:  cpu time    7.5843: real time    7.6069
  RMM-DIIS:  cpu time   26.5556: real time   26.6394
    ORTHCH:  cpu time    0.6836: real time    0.6903
       DOS:  cpu time    0.0016: real time    0.0016
    CHARGE:  cpu time    3.0214: real time    3.0300
    MIXING:  cpu time    0.0130: real time    0.0130
    --------------------------------------------
      LOOP:  cpu time   38.2847: real time   38.4111

 eigenvalue-minimisations  :  6744
 total energy-change (2. order) :-0.1180469E+01  (-0.6122935E-01)
 number of electron     642.0000111 magnetization      18.3344776
 augmentation part      197.1053225 magnetization      10.0035941

 Broyden mixing:
  rms(total) = 0.27177E+00    rms(broyden)= 0.27177E+00
  rms(prec ) = 0.29789E+00
  weight for this iteration     100.00

 eigenvalues of (default mixing * dielectric matrix)
  average eigenvalue GAMMA=   0.9909
  4.2875  2.2624  1.1062  1.1062  0.6903  0.6903  0.5077  0.1158  0.3115  0.3115
  0.2800  0.2213

 Free energy of the ion-electron system (eV)
  ---------------------------------------------------
  alpha Z        PSCENC =      2023.78361127
  Ewald energy   TEWEN  =    125383.67905773
  -Hartree energ DENC   =   -175885.04773189
  -exchange      EXHF   =         0.00000000
  -V(xc)+E(xc)   XCENC  =       223.08871579
  PAW double counting   =     60580.42991758   -58984.22631203
  entropy T*S    EENTRO =         0.01398370
  eigenvalues    EBANDS =      -401.80352091
  atomic energy  EATOM  =     46688.37031544
  Solvation  Ediel_sol  =         0.00000000
  ---------------------------------------------------
  free energy    TOTEN  =      -371.71196332 eV

  energy without entropy =     -371.72594702  energy(sigma->0) =     -371.71662455


--------------------------------------------------------------------------------------------------------




--------------------------------------- Iteration      1(  18)  ---------------------------------------


    POTLOK:  cpu time    0.3906: real time    0.3916
    SETDIJ:  cpu time    0.0333: real time    0.0334
    EDDIAG:  cpu time    7.4275: real time    7.4495
  RMM-DIIS:  cpu time   26.5395: real time   26.6225
    ORTHCH:  cpu time    0.6889: real time    0.6932
       DOS:  cpu time    0.0016: real time    0.0016
    CHARGE:  cpu time    3.0247: real time    3.0334
    MIXING:  cpu time    0.0132: real time    0.0132
    --------------------------------------------
      LOOP:  cpu time   38.1191: real time   38.2384

 eigenvalue-minimisations  :  6748
 total energy-change (2. order) :-0.5601187E+00  (-0.2910207E-01)
 number of electron     642.0000111 magnetization      16.7249391
 augmentation part      197.1666768 magnetization       8.6608590

 Broyden mixing:
  rms(total) = 0.20239E+00    rms(broyden)= 0.20239E+00
  rms(prec ) = 0.21746E+00
  weight for this iteration     100.00

 eigenvalues of (default mixing * dielectric matrix)
  average eigenvalue GAMMA=   1.0261
  5.0586  2.2052  1.1721  1.1721  0.7883  0.6699  0.6699  0.1158  0.3795  0.3087
  0.3087  0.2700  0.2206

 Free energy of the ion-electron system (eV)
  ---------------------------------------------------
  alpha Z        PSCENC =      2023.78361127
  Ewald energy   TEWEN  =    125383.67905773
  -Hartree energ DENC   =   -175873.49932546
  -exchange      EXHF   =         0.00000000
  -V(xc)+E(xc)   XCENC  =       222.48862307
  PAW double counting   =     60606.83557644   -59010.96563565
  entropy T*S    EENTRO =         0.00129563
  eigenvalues    EBANDS =      -412.96560049
  atomic energy  EATOM  =     46688.37031544
  Solvation  Ediel_sol  =         0.00000000
  ---------------------------------------------------
  free energy    TOTEN  =      -372.27208202 eV

  energy without entropy =     -372.27337765  energy(sigma->0) =     -372.27251389


--------------------------------------------------------------------------------------------------------




--------------------------------------- Iteration      1(  19)  ---------------------------------------


    POTLOK:  cpu time    0.3908: real time    0.3921
    SETDIJ:  cpu time    0.0330: real time    0.0331
    EDDIAG:  cpu time    7.4104: real time    7.4316
  RMM-DIIS:  cpu time   26.6116: real time   26.6942
    ORTHCH:  cpu time    0.6848: real time    0.6922
       DOS:  cpu time    0.0017: real time    0.0017
    CHARGE:  cpu time    3.0242: real time    3.0329
    MIXING:  cpu time    0.0128: real time    0.0129
    --------------------------------------------
      LOOP:  cpu time   38.1694: real time   38.2908

 eigenvalue-minimisations  :  6752
 total energy-change (2. order) :-0.2252451E+00  (-0.1432467E-01)
 number of electron     642.0000111 magnetization      16.1414437
 augmentation part      197.1965932 magnetization       8.3147224

 Broyden mixing:
  rms(total) = 0.17716E+00    rms(broyden)= 0.17716E+00
  rms(prec ) = 0.19336E+00
  weight for this iteration     100.00

 eigenvalues of (default mixing * dielectric matrix)
  average eigenvalue GAMMA=   1.0306
  5.4522  2.2217  1.2823  1.2823  0.7589  0.7210  0.7210  0.4432  0.1158  0.3359
  0.3044  0.3044  0.2658  0.2201

 Free energy of the ion-electron system (eV)
  ---------------------------------------------------
  alpha Z        PSCENC =      2023.78361127
  Ewald energy   TEWEN  =    125383.67905773
  -Hartree energ DENC   =   -175861.67415663
  -exchange      EXHF   =         0.00000000
  -V(xc)+E(xc)   XCENC  =       222.16021451
  PAW double counting   =     60622.43822643   -59026.59089070
  entropy T*S    EENTRO =        -0.01436118
  eigenvalues    EBANDS =      -424.64934398
  atomic energy  EATOM  =     46688.37031544
  Solvation  Ediel_sol  =         0.00000000
  ---------------------------------------------------
  free energy    TOTEN  =      -372.49732709 eV

  energy without entropy =     -372.48296592  energy(sigma->0) =     -372.49254003


--------------------------------------------------------------------------------------------------------




--------------------------------------- Iteration      1(  20)  ---------------------------------------


    POTLOK:  cpu time    0.3931: real time    0.3940
    SETDIJ:  cpu time    0.0336: real time    0.0336
    EDDIAG:  cpu time    7.4617: real time    7.4817
  RMM-DIIS:  cpu time   26.6247: real time   26.6925
    ORTHCH:  cpu time    0.6925: real time    0.6986
       DOS:  cpu time    0.0017: real time    0.0017
    CHARGE:  cpu time    3.0301: real time    3.0373
    MIXING:  cpu time    0.0141: real time    0.0141
    --------------------------------------------
      LOOP:  cpu time   38.2515: real time   38.3537

 eigenvalue-minimisations  :  6768
 total energy-change (2. order) :-0.3215816E-01  (-0.3332111E-02)
 number of electron     642.0000111 magnetization      15.6522818
 augmentation part      197.1907908 magnetization       8.0036350

 Broyden mixing:
  rms(total) = 0.12879E+00    rms(broyden)= 0.12879E+00
  rms(prec ) = 0.13974E+00
  weight for this iteration     100.00

 eigenvalues of (default mixing * dielectric matrix)
  average eigenvalue GAMMA=   1.0509
  5.9115  2.2211  1.4610  1.4610  0.8168  0.8168  0.6151  0.6151  0.1158  0.3869
  0.3104  0.3104  0.2728  0.2193  0.2291

 Free energy of the ion-electron system (eV)
  ---------------------------------------------------
  alpha Z        PSCENC =      2023.78361127
  Ewald energy   TEWEN  =    125383.67905773
  -Hartree energ DENC   =   -175855.63196898
  -exchange      EXHF   =         0.00000000
  -V(xc)+E(xc)   XCENC  =       222.07889100
  PAW double counting   =     60621.29875524   -59025.24688453
  entropy T*S    EENTRO =        -0.01481465
  eigenvalues    EBANDS =      -430.84644777
  atomic energy  EATOM  =     46688.37031544
  Solvation  Ediel_sol  =         0.00000000
  ---------------------------------------------------
  free energy    TOTEN  =      -372.52948526 eV

  energy without entropy =     -372.51467060  energy(sigma->0) =     -372.52454704


--------------------------------------------------------------------------------------------------------




--------------------------------------- Iteration      1(  21)  ---------------------------------------


    POTLOK:  cpu time    0.3915: real time    0.3924
    SETDIJ:  cpu time    0.0330: real time    0.0331
    EDDIAG:  cpu time    7.3904: real time    7.4079
  RMM-DIIS:  cpu time   26.6031: real time   26.6744
    ORTHCH:  cpu time    0.6893: real time    0.6953
       DOS:  cpu time    0.0017: real time    0.0018
    CHARGE:  cpu time    2.9761: real time    2.9832
    MIXING:  cpu time    0.0126: real time    0.0126
    --------------------------------------------
      LOOP:  cpu time   38.0978: real time   38.2007

 eigenvalue-minimisations  :  6757
 total energy-change (2. order) :-0.3142522E-01  (-0.1533355E-02)
 number of electron     642.0000111 magnetization      14.9116653
 augmentation part      197.1846769 magnetization       7.3996115

 Broyden mixing:
  rms(total) = 0.83742E-01    rms(broyden)= 0.83742E-01
  rms(prec ) = 0.90457E-01
  weight for this iteration     100.00

 eigenvalues of (default mixing * dielectric matrix)
  average eigenvalue GAMMA=   1.0736
  6.4968  1.9859  1.6984  1.6984  0.8445  0.8445  0.6557  0.6557  0.5063  0.1158
  0.3636  0.3083  0.3083  0.2687  0.2205  0.2063

 Free energy of the ion-electron system (eV)
  ---------------------------------------------------
  alpha Z        PSCENC =      2023.78361127
  Ewald energy   TEWEN  =    125383.67905773
[...]
   -.370E+00 0.709E+00 0.231E+04   0.358E+00 -.676E+00 -.231E+04   -.611E-02 -.588E-02 -.945E-01   0.224E-01 -.279E-01 -.694E-01
   -.369E-01 0.295E-01 0.784E+03   0.821E-02 -.530E-02 -.784E+03   -.620E-02 0.615E-02 -.436E+00   0.330E-01 -.286E-01 -.803E-01
   0.678E+00 0.246E+01 -.775E+03   -.618E+00 -.256E+01 0.775E+03   -.124E-01 0.543E-01 0.438E+00   -.495E-01 0.414E-01 0.355E-01
   0.708E+01 0.138E+01 -.230E+04   -.714E+01 -.133E+01 0.230E+04   0.254E-01 0.248E-01 0.819E-01   0.277E-01 -.836E-01 0.562E-01
   0.435E+00 -.248E-01 0.231E+04   -.439E+00 0.400E-01 -.231E+04   -.633E-02 -.162E-01 -.184E+00   0.694E-02 -.405E-02 -.542E-01
   0.925E-03 0.987E+00 0.786E+03   -.343E-01 -.952E+00 -.785E+03   -.156E-01 0.164E-01 -.372E+00   0.419E-01 -.548E-01 -.954E-01
   -.149E+01 0.232E+01 -.766E+03   0.152E+01 -.240E+01 0.766E+03   -.135E-01 0.386E-01 0.425E+00   -.116E-01 0.426E-01 0.190E-01
   0.578E+01 0.108E+02 -.229E+04   -.593E+01 -.111E+02 0.228E+04   0.186E+00 0.320E+00 0.760E+00   -.280E-01 -.129E-01 0.456E-01
   0.425E+00 -.485E+00 0.231E+04   -.414E+00 0.458E+00 -.231E+04   0.122E-03 -.411E-03 -.982E-01   -.180E-01 0.288E-01 -.725E-01
   0.330E+00 0.309E+00 0.782E+03   -.344E+00 -.296E+00 -.781E+03   -.796E-02 0.409E-03 -.420E+00   0.155E-01 -.136E-01 -.669E-01
   -.247E+00 0.231E+00 -.766E+03   0.265E+00 -.230E+00 0.766E+03   0.124E-01 -.547E-02 0.278E+00   -.265E-01 0.353E-02 0.181E-01
   -.178E+01 0.857E+01 -.231E+04   0.181E+01 -.862E+01 0.231E+04   0.350E-02 -.181E-01 0.952E-01   -.397E-01 0.617E-01 0.666E-01
   -.689E+00 0.221E+00 0.231E+04   0.678E+00 -.235E+00 -.231E+04   0.616E-02 -.360E-02 -.113E+00   0.505E-02 0.116E-01 -.783E-01
   -.159E+00 0.521E+00 0.783E+03   0.138E+00 -.486E+00 -.783E+03   -.544E-02 0.777E-02 -.384E+00   0.271E-01 -.374E-01 -.733E-01
   -.276E+01 0.168E+00 -.766E+03   0.284E+01 -.146E+00 0.766E+03   -.397E-01 -.759E-02 0.427E+00   -.372E-01 -.158E-01 0.216E-01
   -.868E+00 0.147E+01 -.231E+04   0.823E+00 -.150E+01 0.231E+04   -.171E-01 0.873E-02 0.774E-01   0.643E-01 0.144E-01 0.674E-01
   0.448E+00 -.264E+00 0.231E+04   -.435E+00 0.260E+00 -.231E+04   0.494E-02 -.228E-02 -.103E+00   -.218E-01 0.762E-02 -.624E-01
   -.451E+00 0.338E+00 0.786E+03   0.486E+00 -.310E+00 -.786E+03   0.256E-02 -.792E-03 -.388E+00   -.334E-01 -.278E-01 -.100E+00
   -.450E+00 0.266E+00 -.776E+03   0.398E+00 -.241E+00 0.775E+03   0.165E-02 -.216E-02 0.401E+00   0.463E-01 -.208E-01 0.523E-01
   -.103E+02 0.585E+01 -.228E+04   0.104E+02 -.591E+01 0.228E+04   -.848E-01 0.487E-01 0.102E+00   -.216E-01 0.107E-01 0.561E-01
   -.511E+00 0.472E+00 0.231E+04   0.517E+00 -.452E+00 -.231E+04   0.627E-02 -.197E-02 -.113E+00   -.755E-02 -.155E-01 -.781E-01
   0.612E+00 -.490E+00 0.785E+03   -.575E+00 0.497E+00 -.784E+03   0.772E-02 -.690E-02 -.397E+00   -.426E-01 -.437E-02 -.867E-01
   0.125E+01 0.114E+01 -.773E+03   -.129E+01 -.113E+01 0.772E+03   0.186E-01 0.217E-01 0.400E+00   0.127E-01 -.212E-01 0.647E-01
   -.177E+01 -.752E-01 -.231E+04   0.176E+01 0.122E+00 0.231E+04   -.137E-01 0.121E-01 0.801E-01   0.252E-01 -.598E-01 0.663E-01
   -.962E-01 0.849E-01 0.231E+04   0.894E-01 -.819E-01 -.231E+04   -.908E-02 0.525E-02 -.126E+00   0.189E-01 -.107E-01 -.656E-01
   -.799E+00 0.436E+00 0.786E+03   0.822E+00 -.448E+00 -.786E+03   -.626E-02 0.503E-02 -.346E+00   -.176E-01 0.874E-02 -.904E-01
   0.126E+01 0.284E+00 -.771E+03   -.129E+01 -.197E+00 0.771E+03   0.564E-02 -.182E-03 0.382E+00   0.252E-01 -.886E-01 0.393E-01
   0.686E+00 -.415E+00 -.231E+04   -.732E+00 0.433E+00 0.231E+04   0.494E-02 -.322E-02 0.113E+00   0.391E-01 -.146E-01 0.465E-01
   -.160E+00 0.854E+00 0.231E+04   0.162E+00 -.857E+00 -.231E+04   0.719E-03 -.620E-02 -.990E-01   -.314E-02 -.120E-01 -.941E-01
   -.846E+00 -.573E+00 0.786E+03   0.806E+00 0.584E+00 -.785E+03   -.207E-01 0.845E-02 -.375E+00   0.600E-01 -.952E-02 -.101E+00
   -.239E+00 0.716E+00 -.767E+03   0.275E+00 -.793E+00 0.767E+03   -.281E-02 0.571E-02 0.367E+00   -.353E-01 0.673E-01 0.930E-02
   0.238E+01 -.222E+01 -.230E+04   -.238E+01 0.227E+01 0.230E+04   0.410E-02 0.132E-01 0.520E-01   0.302E-02 -.668E-01 0.882E-01
   0.106E+01 -.587E+00 0.231E+04   -.103E+01 0.564E+00 -.231E+04   -.145E-01 0.895E-02 -.883E-01   -.296E-01 0.233E-01 -.837E-01
   -.561E+00 0.250E+00 0.786E+03   0.561E+00 -.300E+00 -.786E+03   0.303E-02 -.170E-03 -.388E+00   -.704E-03 0.459E-01 -.105E+00
   0.183E+01 -.111E+01 -.765E+03   -.192E+01 0.117E+01 0.764E+03   0.379E-01 -.220E-01 0.450E+00   0.529E-01 -.362E-01 0.118E-01
   -.148E+01 0.865E+00 -.230E+04   0.155E+01 -.909E+00 0.230E+04   0.356E-02 -.215E-02 0.360E-01   -.833E-01 0.491E-01 0.785E-01
   -.823E+00 -.295E+00 0.231E+04   0.829E+00 0.286E+00 -.231E+04   0.511E-02 0.374E-02 -.100E+00   0.817E-02 0.144E-01 -.947E-01
   0.818E+00 0.565E-01 0.785E+03   -.777E+00 -.924E-01 -.784E+03   0.194E-02 -.216E-01 -.347E+00   -.438E-01 0.504E-01 -.942E-01
   0.541E+00 -.183E+01 -.769E+03   -.632E+00 0.187E+01 0.769E+03   0.211E-01 -.236E-01 0.372E+00   0.662E-01 -.898E-02 0.364E-01
   0.318E+01 -.864E+00 -.230E+04   -.322E+01 0.848E+00 0.230E+04   -.103E-01 -.113E-01 0.541E-01   0.532E-01 0.289E-01 0.890E-01
   -.719E+00 0.420E+00 0.231E+04   0.701E+00 -.410E+00 -.231E+04   -.132E-01 0.812E-02 -.117E+00   0.347E-01 -.208E-01 -.775E-01
   0.632E+00 -.373E+00 0.790E+03   -.615E+00 0.359E+00 -.790E+03   -.339E-03 0.187E-02 -.281E+00   -.201E-01 0.153E-01 -.121E+00
   0.409E+00 -.114E+01 -.772E+03   -.491E+00 0.112E+01 0.771E+03   0.444E-02 -.588E-02 0.382E+00   0.812E-01 0.272E-01 0.374E-01
   0.119E+02 -.682E+01 -.229E+04   -.120E+02 0.690E+01 0.229E+04   0.515E-01 -.277E-01 0.120E+00   0.683E-01 -.505E-01 0.691E-01
   0.230E+00 -.369E+00 0.231E+04   -.240E+00 0.367E+00 -.231E+04   0.108E-01 0.141E-01 -.182E+00   0.262E-02 -.745E-02 -.574E-01
   0.370E+00 -.745E+00 0.785E+03   -.327E+00 0.719E+00 -.784E+03   0.207E-01 0.120E-01 -.353E+00   -.582E-01 0.202E-01 -.949E-01
   -.349E+00 -.160E+01 -.773E+03   0.325E+00 0.161E+01 0.773E+03   -.103E-01 -.292E-01 0.400E+00   0.303E-01 0.132E-01 0.641E-01
   -.670E+01 -.102E+02 -.228E+04   0.687E+01 0.105E+02 0.228E+04   -.169E+00 -.323E+00 0.742E+00   -.400E-02 0.177E-01 0.490E-01
   -.809E+00 -.763E-01 0.231E+04   0.778E+00 0.652E-01 -.231E+04   0.295E-02 0.974E-02 -.944E-01   0.307E-01 -.214E-02 -.738E-01
   0.367E+00 -.159E+00 0.786E+03   -.363E+00 0.147E+00 -.785E+03   -.401E-02 0.298E-02 -.377E+00   0.162E-04 0.864E-02 -.686E-01
   -.184E+01 -.189E+01 -.775E+03   0.195E+01 0.190E+01 0.775E+03   -.550E-01 -.163E-01 0.433E+00   -.507E-01 0.187E-01 0.355E-01
   0.232E+01 -.684E+01 -.230E+04   -.239E+01 0.686E+01 0.230E+04   -.837E-02 -.363E-01 0.771E-01   0.820E-01 0.230E-01 0.609E-01
   0.585E+00 -.744E-01 0.231E+04   -.582E+00 0.547E-01 -.231E+04   0.370E-02 0.350E-02 -.867E-01   -.926E-02 0.749E-02 -.632E-01
   -.564E+00 -.559E-01 0.783E+03   0.524E+00 0.483E-01 -.782E+03   -.773E-02 0.112E-03 -.383E+00   0.442E-01 0.291E-02 -.775E-01
   -.698E+00 -.165E+00 -.768E+03   0.777E+00 0.176E+00 0.767E+03   -.582E-02 -.494E-03 0.365E+00   -.697E-01 -.533E-02 0.129E-01
   -.401E+01 -.452E+01 -.231E+04   0.405E+01 0.449E+01 0.231E+04   0.132E-01 -.979E-02 0.833E-01   -.497E-01 0.431E-01 0.498E-01
   0.637E+00 -.151E+00 0.231E+04   -.609E+00 0.156E+00 -.231E+04   0.392E-03 0.525E-03 -.980E-01   -.342E-01 0.146E-03 -.760E-01
   -.141E+00 -.531E+00 0.782E+03   0.125E+00 0.534E+00 -.782E+03   -.372E-02 0.895E-02 -.420E+00   0.175E-01 -.458E-02 -.740E-01
   0.118E+00 -.132E-01 -.767E+03   -.513E-01 -.327E-01 0.767E+03   0.103E-01 -.763E-02 0.382E+00   -.778E-01 0.539E-01 0.362E-01
   -.829E+01 -.269E+01 -.231E+04   0.834E+01 0.268E+01 0.231E+04   0.175E-01 0.502E-02 0.101E+00   -.640E-01 -.688E-03 0.700E-01
   0.160E+02 -.123E+02 -.234E+03   -.198E+02 0.153E+02 0.234E+03   0.390E+01 -.301E+01 0.199E+00   0.188E-03 -.838E-03 0.988E-03
   -.161E+02 0.123E+02 -.234E+03   0.200E+02 -.153E+02 0.234E+03   -.390E+01 0.301E+01 -.261E+00   -.978E-03 -.148E-03 0.102E-02
 -----------------------------------------------------------------------------------------------
   -.485E-02 -.475E-02 0.309E-02   0.416E-12 0.700E-12 0.489E-11   -.165E-01 0.378E-01 0.101E+01   0.188E-02 -.950E-03 -.103E+01
 
 
 POSITION                                       TOTAL-FORCE (eV/Angst)
 -----------------------------------------------------------------------------------
     10.55998      0.00001      1.11585         0.006600      0.004827     -0.003863
      2.63930      1.52455      3.55023         0.005397      0.003617     -0.004390
     -0.00262      3.05022      5.95380        -0.006173     -0.000978     -0.014413
     10.55692      0.00081      8.38666        -0.001915      0.000532      0.006653
      9.23998      2.28632      1.11585         0.004943     -0.000379      0.005127
      1.32019      3.81042      3.55238         0.000069      0.000390     -0.020479
      1.31892      0.76503      5.95941        -0.003414     -0.007017     -0.014151
      9.23527      2.28779      8.37908         0.000662      0.000834      0.010067
      1.31998      2.28632      1.11585        -0.002553     -0.005353     -0.001120
     -1.31871      3.80961      3.54860        -0.005844     -0.003382      0.002169
      3.95818      0.76260      5.94119         0.003057      0.002097      0.003665
      1.31550      2.28589      8.38752        -0.000485      0.002382     -0.099975
      2.63998      0.00001      1.11585        -0.007382      0.002047     -0.023160
      0.00062      1.52458      3.55521        -0.005966      0.000650     -0.007057
      2.63678      3.05135      5.95102         0.005063     -0.002737     -0.028832
      2.63938      0.00104      8.38906        -0.002196      0.002696      0.001529
      5.27998      0.00001      1.11585        -0.000026     -0.006342     -0.019685
      7.92016      1.52394      3.55196         0.001266      0.005049      0.000692
      5.27988      3.05200      5.94131         0.000414     -0.003039      0.005051
      5.27832      0.00180      8.38792         0.001202      0.001627     -0.002557
      3.95998      2.28632      1.11585        -0.003247      0.001127     -0.005680
      6.59979      3.81014      3.54709         0.002647     -0.001478      0.001440
      6.59823      0.76469      5.95419        -0.001377      0.000454      0.002657
      3.96235      2.28648      8.35400        -0.001766      0.000889      0.008697
      6.59998      2.28632      1.11585         0.004748      0.002364     -0.020208
      3.95931      3.81099      3.55020         0.000944     -0.005346     -0.005644
      9.23755      0.76358      5.95156        -0.001010      0.004582      0.008612
      6.59869      2.28900      8.38845        -0.001185     -0.000886     -0.002318
      7.91998      0.00001      1.11585         0.004022     -0.003378     -0.011563
      5.28022      1.52428      3.54602        -0.001561      0.001684      0.003204
      7.91832      3.05077      5.94776         0.000290     -0.002944      0.002880
      7.91759      0.00289      8.39416        -0.000631     -0.000268      0.006446
      7.91998      4.57263      1.11585         0.000443     -0.021094     -0.027210
      0.00158      6.09640      3.54839         0.000399      0.007858      0.003324
     -2.64182      7.62458      5.93973        -0.002005     -0.003487      0.000458
      7.91737      4.57607      8.37778         0.001292     -0.000906     -0.002758
      6.59998      6.85894      1.11585        -0.016811      0.008470      0.000535
     -1.31960      8.38379      3.54705         0.002772     -0.001886      0.001168
     -1.32311      5.33808      5.93632        -0.004660      0.003960      0.004655
      6.59803      6.86149      8.36180        -0.002479      0.001678      0.013569
     -1.32002      6.85894      1.11585         0.018630      0.008880     -0.027386
     -3.96041      8.38610      3.54929        -0.001031     -0.007210      0.002020
      1.31826      5.33827      5.95275        -0.002456      0.007530     -0.017357
     -1.32298      6.86161      8.37949         0.002131      0.000381     -0.004072
     -0.00002      4.57263      1.11585         0.005257     -0.003852     -0.011297
     -2.64005      6.09700      3.53910        -0.002385      0.001775      0.002846
     -0.00168      7.62354      5.94797         0.003726      0.000899      0.003496
     -0.00514      4.57687      8.37241         0.001894     -0.000328      0.001601
      2.63998      4.57263      1.11585         0.003089      0.003699     -0.000335
      5.27737      6.09584      3.54967         0.005588      0.005448      0.001467
      2.63889      7.62464      5.95202        -0.004118     -0.003347      0.008455
      2.63894      4.57906      8.38344        -0.001601     -0.002736     -0.095285
      1.31998      6.85894      1.11585         0.002310     -0.004396      0.005212
      3.95895      8.38391      3.54858         0.001215     -0.001640      0.008350
      3.95842      5.33641      5.95918         0.004153      0.008016     -0.016456
      1.31755      6.86433      8.37930        -0.000855      0.001553      0.008730
      3.95998      6.85894      1.11585        -0.001512     -0.009143     -0.003490
      1.32047      8.38360      3.55230        -0.002614     -0.005555      0.000880
      6.59723      5.33668      5.94012         0.002885      0.004458      0.000256
      3.95901      6.86334      8.38808        -0.001080      0.000070      0.005140
      5.27998      4.57263      1.11585        -0.005639      0.004871     -0.022576
      2.64011      6.09631      3.55505        -0.003168      0.006412     -0.007809
      5.27641      7.62461      5.94053         0.000709     -0.000868      0.012802
      5.27973      4.57488      8.38973        -0.002970     -0.000592      0.000988
      1.69503      3.65439     10.81224         0.008402     -0.004087      0.180518
      2.29437      3.19016     10.84836        -0.004106      0.000844      0.185768
 -----------------------------------------------------------------------------------
    total drift:                               -0.019507      0.032078     -0.017036


--------------------------------------------------------------------------------------------------------



  FREE ENERGIE OF THE ION-ELECTRON SYSTEM (eV)
  ---------------------------------------------------
  free  energy   TOTEN  =      -411.84590061 eV

  energy  without entropy=     -411.81743909  energy(sigma->0) =     -411.83641344
 
 d Force =-0.2108789E-03[-0.223E-03,-0.199E-03]  d Energy =-0.2181208E-03 0.724E-05
 d Force =-0.6948235E+01[-0.694E+01,-0.695E+01]  d Ewald  =-0.6948235E+01 0.273E-06


--------------------------------------------------------------------------------------------------------


    POTLOK:  cpu time    0.4248: real time    0.4316


--------------------------------------------------------------------------------------------------------


 NEB: the previous image is higher in energy: T
 NEB: the next image is higher in energy    : F
 NEB: only prev energy greater

 NEB: Tangent
 ----------------------------------------------
      0.00000      0.00000      0.00000
      0.00444     -0.00634     -0.02081
     -0.01263      0.00759     -0.06627
     -0.00566     -0.00057      0.01812
      0.00000      0.00000      0.00000
     -0.00450      0.00253     -0.07561
     -0.00664     -0.02377     -0.06792
     -0.00464      0.00660      0.01718
      0.00000      0.00000      0.00000
     -0.00668      0.00366      0.01129
      0.00107     -0.00085      0.02105
     -0.00036      0.01304     -0.32752
      0.00000      0.00000      0.00000
     -0.00773     -0.00519     -0.03592
      0.01255     -0.00709     -0.09710
     -0.00457      0.00570      0.00497
      0.00000      0.00000      0.00000
     -0.00159     -0.00016     -0.00196
      0.00151      0.00003      0.02072
     -0.00531      0.00441      0.00175
      0.00000      0.00000      0.00000
      0.00155      0.00021      0.00978
      0.00296     -0.00125      0.00513
     -0.00888      0.00530      0.04614
      0.00000      0.00000      0.00000
      0.00768     -0.00062     -0.02065
     -0.00243      0.00349      0.00766
     -0.00645      0.00252      0.00080
      0.00000      0.00000      0.00000
      0.00329     -0.00170      0.01972
     -0.00467     -0.00139      0.01331
     -0.00343      0.00187      0.01629
      0.00000      0.00000      0.00000
     -0.00641      0.00404      0.01068
     -0.00007     -0.00409      0.02043
     -0.00336      0.00165      0.01808
      0.00000      0.00000      0.00000
      0.00076     -0.00106      0.00983
     -0.00658      0.00456      0.03362
     -0.00246      0.00137      0.06228
      0.00000      0.00000      0.00000
      0.00083     -0.00647      0.00814
     -0.01170      0.00758     -0.06589
     -0.00308      0.00229      0.01308
      0.00000      0.00000      0.00000
      0.00153     -0.00054      0.02248
     -0.00017      0.00558      0.01263
      0.00110     -0.00001      0.00907
      0.00000      0.00000      0.00000
      0.00640      0.00307      0.00650
     -0.00400      0.00077      0.00714
     -0.00913     -0.00695     -0.31181
      0.00000      0.00000      0.00000
      0.00234     -0.00100      0.02253
      0.01822      0.01747     -0.07125
     -0.00800      0.00009      0.01882
      0.00000      0.00000      0.00000
     -0.00060      0.00217     -0.00205
      0.00445      0.00293      0.02053
     -0.00313      0.00318      0.01327
      0.00000      0.00000      0.00000
      0.00055      0.00958     -0.03686
      0.00133     -0.00002      0.04343
     -0.00719      0.00107      0.00384
      0.06701     -0.00991      0.58605
     -0.04435     -0.00854      0.62422

 NEB: forces: par spring, perp REAL, dneb     0.000175    0.038472    0.000000
 NEB: distance to prev, next image, angle between     0.869810    0.869775  148.710862
 NEB: projections on to tangent (spring, REAL)    -0.000175    0.298853

 stress matrix after NEB project (eV)
     83.70779      0.06043     -0.04851
      0.06043     83.85329      0.05348
     -0.04851      0.05348      1.06891
  FORCES: max atom, RMS     0.012825    0.004736
  FORCE total and by dimension    0.038472    0.011637
  Stress total and by dimension  118.488519   83.853291
 Quasi-Newton relaxation of ions (Broydens 2nd method)
  g(Force)  = 0.153E-02   g(Stress)= 0.000E+00

 retain information from N=  5 steps
 eigenvalues of (default step * inverse Hessian matrix)
  average eigenvalue of G=   2.8839
 eigenvalue spectrum of G is  5.7209  5.7209  1.3363  1.1043  0.5373


--------------------------------------------------------------------------------------------------------


  
 reached required accuracy - stopping structural energy minimisation
     LOOP+:  cpu time  439.8475: real time  441.1541
    4ORBIT:  cpu time    0.0000: real time    0.0000

 total amount of memory used by VASP MPI-rank0   200776. kBytes
=======================================================================

   base      :      30000. kBytes
   nonlr-proj:      31118. kBytes
   fftplans  :      17093. kBytes
   grid      :      44247. kBytes
   one-center:        528. kBytes
   wavefun   :      77790. kBytes
 
  
  
 General timing and accounting informations for this job:
 ========================================================
  
                  Total CPU time used (sec):     9007.004
                            User time (sec):     8785.051
                          System time (sec):      221.953
                         Elapsed time (sec):     9049.043
  
                   Maximum memory used (kb):      321228.
                   Average memory used (kb):           0.
  
                          Minor page faults:      1516727
                          Major page faults:            0
                 Voluntary context switches:        15719
