 vasp.5.4.4.18Apr17-6-g9f103f2a35 (build Nov 30 2020 22:55:02) complex          
  
 executed on             LinuxIFC date 2023.10.01  17:41:47
 running on   40 total cores
 distrk:  each k-point on   40 cores,    1 groups
 distr:  one band on NCORES_PER_BAND=   4 cores,   10 groups


--------------------------------------------------------------------------------------------------------


 INCAR:
 POTCAR:    PAW_PBE Pt 04Feb2005                  
 POTCAR:    PAW_PBE Pt 04Feb2005                  
   VRHFIN =Pt: s1d9                                                             
   LEXCH  = PE                                                                  
   EATOM  =   729.1176 eV,   53.5886 Ry                                         
                                                                                
   TITEL  = PAW_PBE Pt 04Feb2005                                                
   LULTRA =        F    use ultrasoft PP ?                                      
   IUNSCR =        1    unscreen: 0-lin 1-nonlin 2-no                           
   RPACOR =    2.330    partial core radius                                     
   POMASS =  195.080; ZVAL   =   10.000    mass and valenz                      
   RCORE  =    2.600    outmost cutoff radius                                   
   RWIGS  =    2.750; RWIGS  =    1.455    wigner-seitz radius (au A)           
   ENMAX  =  230.283; ENMIN  =  172.712 eV                                      
   ICORE  =        3    local potential                                         
   LCOR   =        T    correct aug charges                                     
   LPAW   =        T    paw PP                                                  
   EAUG   =  358.966                                                            
   DEXC   =    0.000                                                            
   RMAX   =    2.658    core radius for proj-oper                               
   RAUG   =    1.300    factor for augmentation sphere                          
   RDEP   =    2.761    radius for radial grids                                 
   RDEPT  =    2.203    core radius for aug-charge                              
                                                                                
   Atomic configuration                                                         
   16 entries                                                                   
     n  l   j            E        occ.                                          
     1  0  0.50    -78401.1885   2.0000                                         
     2  0  0.50    -13770.7750   2.0000                                         
     2  1  1.50    -11931.0468   6.0000                                         
     3  0  0.50     -3234.7234   2.0000                                         
     3  1  1.50     -2699.2216   6.0000                                         
     3  2  2.50     -2119.5714  10.0000                                         
     4  0  0.50      -695.1528   2.0000                                         
     4  1  1.50      -519.6034   6.0000                                         
     4  2  2.50      -306.6786  10.0000                                         
     4  3  3.50       -70.1041  14.0000                                         
     5  0  0.50      -101.7747   2.0000                                         
     5  1  1.50       -55.9873   6.0000                                         
     5  2  2.50        -6.1423   9.0000                                         
     6  0  0.50        -5.6573   1.0000                                         
     6  1  1.50        -6.8029   0.0000                                         
     5  3  2.50        -1.3606   0.0000                                         
   Description                                                                  
     l       E           TYP  RCUT    TYP  RCUT                                 
     2     -6.1423404     23  2.500                                             
     2     -7.5029230     23  2.500                                             
     0     -5.6573207     23  2.500                                             
     0      0.7416693     23  2.500                                             
     1     -2.7211652     23  2.600                                             
     1     20.4087390     23  2.600                                             
     3     -1.3605826     23  2.500                                             
  local pseudopotential read in
  partial core-charges read in
  partial kinetic energy density read in
  atomic valenz-charges read in
  non local Contribution for L=           2  read in
    real space projection operators read in
  non local Contribution for L=           2  read in
    real space projection operators read in
  non local Contribution for L=           0  read in
    real space projection operators read in
  non local Contribution for L=           0  read in
    real space projection operators read in
  non local Contribution for L=           1  read in
    real space projection operators read in
  non local Contribution for L=           1  read in
    real space projection operators read in
    PAW grid and wavefunctions read in
 
   number of l-projection  operators is LMAX  =           6
   number of lm-projection operators is LMMAX =          18
 
 Optimization of the real space projectors (new method)

 maximal supplied QI-value         = 14.36
 optimisation between [QCUT,QGAM] = [ 11.92, 23.98] = [ 39.79,161.09] Ry 
 Optimized for a Real-space Cutoff    1.49 Angstroem

   l    n(q)    QCUT    max X(q) W(low)/X(q) W(high)/X(q)  e(spline) 
   2     10    11.920    66.195    0.79E-04    0.18E-03    0.24E-06
   2     10    11.920    64.643    0.81E-04    0.19E-03    0.24E-06
   0     11    11.920    95.520    0.28E-04    0.54E-04    0.18E-06
   0     11    11.920    63.403    0.27E-04    0.52E-04    0.17E-06
   1     10    11.920    19.961    0.18E-04    0.11E-03    0.23E-06
   1     10    11.920    13.289    0.25E-04    0.87E-04    0.19E-06
  PAW_PBE Pt 04Feb2005                  :
 energy of atom  1       EATOM= -729.1176
 kinetic energy error for atom=    0.0021 (will be added to EATOM!!)
 
 
 POSCAR: Pt111\(1\1\1)\(2)                       
  positions in cartesian coordinates
  No initial velocities read in
 exchange correlation table for  LEXCH =        8
   RHO(1)=    0.500       N(1)  =     2000
   RHO(2)=  100.500       N(2)  =     4000
 


--------------------------------------------------------------------------------------------------------


 ion  position               nearest neighbor table
   1  1.000  0.000  0.056-   5 2.64   9 2.64  13 2.64  29 2.64  57 2.64  37 2.64  54 2.87  42 2.87
                            14 2.88
   2  0.333  0.167  0.178-  14 2.63   6 2.64  42 2.64  26 2.64  38 2.64  30 2.64  11 2.83   7 2.85
                             9 2.87  13 2.88  21 2.88  15 2.88
   3  0.168  0.334  0.300-  43 2.63  15 2.63   7 2.63  39 2.63  27 2.65  31 2.65   8 2.79   6 2.82
                            10 2.88  14 2.88  48 2.96  12 2.97
   4  0.000  0.000  0.419-  12 2.62  60 2.64  32 2.64  40 2.64  16 2.64   8 2.64   7 2.85  63 2.88
                            27 2.88
   5  1.000  0.250  0.056-   1 2.64  45 2.64  33 2.64   9 2.64  29 2.64  25 2.64  18 2.87  10 2.88
                            14 2.88
   6  0.333  0.417  0.181-  14 2.64   2 2.64  62 2.64  26 2.64  34 2.64  10 2.64   3 2.82  15 2.82
                            43 2.83  49 2.92  45 2.92   9 2.92
   7  0.167  0.085  0.299-   3 2.63  15 2.63  11 2.64  27 2.64  35 2.65  63 2.65   4 2.85  16 2.85
                             2 2.85  14 2.85  42 2.87  12 2.96
   8  0.999  0.250  0.416-  28 2.63  32 2.63  36 2.64   4 2.64  48 2.66  12 2.66   3 2.79  31 2.83
                            27 2.83
   9  0.250  0.250  0.056-  21 2.64  13 2.64   1 2.64  49 2.64  45 2.64   5 2.64  14 2.87   2 2.87
                             6 2.92
  10  0.084  0.417  0.178-  34 2.63   6 2.64  46 2.64  14 2.64  22 2.64  18 2.64  31 2.83  39 2.86
                            45 2.87  33 2.87   5 2.88   3 2.88
  11  0.417  0.083  0.297-  47 2.63  35 2.64   7 2.64  23 2.64  19 2.65  15 2.65   2 2.83  30 2.83
                            38 2.83  24 2.83  16 2.88  20 2.90
  12  0.249  0.247  0.427-   4 2.62  16 2.62  24 2.66   8 2.66  52 2.68  48 2.68   7 2.96  15 2.97
                             3 2.97
  13  0.250  0.000  0.056-  21 2.64   9 2.64  17 2.64   1 2.64  37 2.64  41 2.64  38 2.87  42 2.87
                             2 2.88
  14  0.084  0.167  0.178-   2 2.63   6 2.64  42 2.64  10 2.64  54 2.64  18 2.64  27 2.83   7 2.85
                             9 2.87   1 2.88   5 2.88   3 2.88
  15  0.416  0.334  0.300-  43 2.63   3 2.63   7 2.63  55 2.63  11 2.65  19 2.65  24 2.79   6 2.82
                            26 2.88   2 2.88  52 2.96  12 2.97
  16  0.250  0.000  0.419-  12 2.62  44 2.64  20 2.64  40 2.64   4 2.64  24 2.64   7 2.85  35 2.88
                            11 2.88
  17  0.500  0.000  0.056-  29 2.64  25 2.64  13 2.64  21 2.64  41 2.64  53 2.64  38 2.87  58 2.87
                            30 2.87
  18  0.833  0.167  0.178-  58 2.64  30 2.64  22 2.64  54 2.64  10 2.64  14 2.64  27 2.83  31 2.83
                            23 2.86  25 2.87   5 2.87  29 2.87
  19  0.667  0.334  0.297-  31 2.63  59 2.64  55 2.64  23 2.64  11 2.65  15 2.65  26 2.83  30 2.83
                            22 2.83  24 2.83  64 2.88  28 2.90
  20  0.500  0.000  0.420-  56 2.63  24 2.63  44 2.64  16 2.64  32 2.64  28 2.64  23 2.87  11 2.90
                            47 2.90
  21  0.500  0.250  0.056-  25 2.64  61 2.64   9 2.64  13 2.64  49 2.64  17 2.64  30 2.87  26 2.88
                             2 2.88
  22  0.833  0.417  0.177-  50 2.64  18 2.64  46 2.64  30 2.64  26 2.64  10 2.64  19 2.83  31 2.83
                            59 2.84  61 2.87  33 2.87  25 2.87
  23  0.667  0.083  0.298-  11 2.64  27 2.64  47 2.64  51 2.64  31 2.64  19 2.64  18 2.86  30 2.86
                            58 2.86  32 2.87  20 2.87  28 2.88
  24  0.501  0.250  0.416-  28 2.63  20 2.63  64 2.64  16 2.64  52 2.66  12 2.66  15 2.79  19 2.83
                            11 2.83
  25  0.750  0.250  0.056-  17 2.64  21 2.64  29 2.64  61 2.64  33 2.64   5 2.64  22 2.87  18 2.87
                            30 2.87
  26  0.583  0.417  0.178-  62 2.63   6 2.64  50 2.64   2 2.64  22 2.64  30 2.64  19 2.83  55 2.86
                            49 2.87  61 2.87  21 2.88  15 2.88
  27  0.917  0.083  0.297-  51 2.63  63 2.64  23 2.64   7 2.64  31 2.65   3 2.65  14 2.83  18 2.83
                            54 2.83   8 2.83   4 2.88  32 2.90
  28  0.750  0.250  0.420-   8 2.63  24 2.63  64 2.64  36 2.64  20 2.64  32 2.64  23 2.88  31 2.90
                            19 2.90
  29  0.750  0.000  0.056-  17 2.64  25 2.64   5 2.64  53 2.64   1 2.64  57 2.64  54 2.87  58 2.87
                            18 2.87
  30  0.583  0.167  0.178-  58 2.64  18 2.64  22 2.64  38 2.64  26 2.64   2 2.64  11 2.83  19 2.83
                            23 2.86  25 2.87  21 2.87  17 2.87
  31  0.917  0.334  0.297-  19 2.63  59 2.64  39 2.64  23 2.64  27 2.65   3 2.65  10 2.83  18 2.83
                            22 2.83   8 2.83  36 2.88  28 2.90
  32  0.750  0.000  0.420-  56 2.63   8 2.63  60 2.64   4 2.64  20 2.64  28 2.64  23 2.87  27 2.90
                            51 2.90
  33  1.000  0.500  0.056-  37 2.64  41 2.64   5 2.64  45 2.64  25 2.64  61 2.64  46 2.87  22 2.87
                            10 2.87
  34  0.333  0.666  0.178-  10 2.63   6 2.64  46 2.64  62 2.64  38 2.64  58 2.64  47 2.83  39 2.85
                            45 2.87  41 2.88  53 2.88  43 2.88
  35  0.167  0.833  0.297-  11 2.64  47 2.64  59 2.64  63 2.64  39 2.65   7 2.65  42 2.84  38 2.84
                            46 2.84  40 2.85  44 2.87  16 2.88
  36  0.000  0.500  0.419-  48 2.62  64 2.64  40 2.64  28 2.64  44 2.64   8 2.64  39 2.85  59 2.87
                            31 2.88
  37  1.000  0.750  0.056-  33 2.64  41 2.64  61 2.64  57 2.64  13 2.64   1 2.64  50 2.87  46 2.87
                            42 2.87
  38  0.333  0.917  0.177-  42 2.64  46 2.64  30 2.64  58 2.64   2 2.64  34 2.64  47 2.83  11 2.83
                            35 2.84  13 2.87  17 2.87  41 2.87
  39  0.167  0.583  0.299-  43 2.63   3 2.63  47 2.64  31 2.64  35 2.65  59 2.65  34 2.85  36 2.85
                            44 2.86  10 2.86  46 2.87  48 2.96
  40  0.000  0.750  0.418-  36 2.64  64 2.64  44 2.64  60 2.64   4 2.64  16 2.64  35 2.85  63 2.85
                            59 2.85
  41  0.250  0.750  0.056-  45 2.64  33 2.64  37 2.64  53 2.64  17 2.64  13 2.64  46 2.87  38 2.87
                            34 2.88
  42  0.083  0.917  0.177-   2 2.64  14 2.64  38 2.64  54 2.64  46 2.64  50 2.64  63 2.84  35 2.84
                            13 2.87   1 2.87  37 2.87   7 2.87
  43  0.416  0.583  0.300-   3 2.63  15 2.63  55 2.63  39 2.63  51 2.65  47 2.65  56 2.79   6 2.83
                            62 2.88  34 2.88  48 2.96  52 2.96
  44  0.250  0.750  0.419-  48 2.62  16 2.64  20 2.64  40 2.64  36 2.64  56 2.64  39 2.86  35 2.87
                            47 2.88
  45  0.250  0.500  0.056-  41 2.64  53 2.64   5 2.64   9 2.64  49 2.64  33 2.64  10 2.87  34 2.87
                             6 2.92
  46  0.083  0.667  0.177-  10 2.64  34 2.64  38 2.64  22 2.64  42 2.64  50 2.64  59 2.84  35 2.84
                            41 2.87  33 2.87  37 2.87  39 2.87
  47  0.417  0.834  0.297-  11 2.63  35 2.64  39 2.64  23 2.64  51 2.65  43 2.65  58 2.83  34 2.83
                            38 2.83  56 2.83  44 2.88  20 2.90
  48  0.249  0.502  0.426-  44 2.62  36 2.62  56 2.65   8 2.66  12 2.68  52 2.68  39 2.96  43 2.96
                             3 2.96
  49  0.500  0.500  0.056-  61 2.64  53 2.64  57 2.64  21 2.64   9 2.64  45 2.64  26 2.87  62 2.87
                             6 2.92
  50  0.833  0.667  0.177-  62 2.64  26 2.64  54 2.64  22 2.64  42 2.64  46 2.64  59 2.84  63 2.84
                            57 2.87  61 2.87  37 2.87  55 2.87
  51  0.667  0.834  0.297-  27 2.63  63 2.64  55 2.64  23 2.64  47 2.65  43 2.65  58 2.83  62 2.83
                            54 2.83  56 2.83  60 2.88  32 2.90
  52  0.503  0.502  0.426-  60 2.62  64 2.62  56 2.65  24 2.66  12 2.68  48 2.68  55 2.96  43 2.96
                            15 2.96
  53  0.500  0.750  0.056-  49 2.64  57 2.64  45 2.64  41 2.64  29 2.64  17 2.64  58 2.87  34 2.88
                            62 2.88
  54  0.833  0.917  0.177-  42 2.64  50 2.64  58 2.64  18 2.64  62 2.64  14 2.64  51 2.83  27 2.83
                            63 2.84   1 2.87  29 2.87  57 2.87
  55  0.665  0.583  0.299-  43 2.63  15 2.63  19 2.64  51 2.64  59 2.65  63 2.65  62 2.85  64 2.85
                            60 2.86  26 2.86  50 2.87  52 2.96
  56  0.501  0.751  0.416-  20 2.63  32 2.63  44 2.64  60 2.64  48 2.65  52 2.65  43 2.79  47 2.83
                            51 2.83
  57  0.750  0.750  0.056-  61 2.64  49 2.64  53 2.64  37 2.64   1 2.64  29 2.64  50 2.87  54 2.87
                            62 2.88
  58  0.583  0.917  0.178-  18 2.64  30 2.64  38 2.64  54 2.64  34 2.64  62 2.64  47 2.83  51 2.83
                            23 2.86  17 2.87  29 2.87  53 2.87
  59  0.917  0.584  0.297-  31 2.64  19 2.64  63 2.64  35 2.64  55 2.65  39 2.65  46 2.84  50 2.84
                            22 2.84  40 2.85  36 2.87  64 2.87
  60  0.750  0.750  0.419-  52 2.62   4 2.64  32 2.64  40 2.64  64 2.64  56 2.64  55 2.86  63 2.87
                            51 2.88
  61  0.750  0.500  0.056-  49 2.64  57 2.64  21 2.64  25 2.64  37 2.64  33 2.64  50 2.87  22 2.87
                            26 2.87
  62  0.583  0.666  0.178-  26 2.63   6 2.64  50 2.64  34 2.64  54 2.64  58 2.64  51 2.83  55 2.85
                            49 2.87  57 2.88  53 2.88  43 2.88
  63  0.917  0.833  0.297-  27 2.64  51 2.64  59 2.64  35 2.64  55 2.65   7 2.65  42 2.84  54 2.84
                            50 2.84  40 2.85  60 2.87   4 2.88
  64  0.750  0.500  0.419-  52 2.62  36 2.64  40 2.64  28 2.64  60 2.64  24 2.64  55 2.85  59 2.87
                            19 2.88
 
  LATTYP: Found a hexagonal cell.
 ALAT       =    10.5600004196
 C/A-ratio  =     1.8939393187
  
  Lattice vectors:
  
 A1 = (  10.5600004196,   0.0000000000,   0.0000000000)
 A2 = (  -5.2800002098,   9.1452286274,   0.0000000000)
 A3 = (   0.0000000000,   0.0000000000,  20.0000000000)


Analysis of symmetry for initial positions (statically):
=====================================================================
 Subroutine PRICEL returns:
 Original cell was already a primitive cell.
 

 Routine SETGRP: Setting up the symmetry group for a 
 hexagonal supercell.


 Subroutine GETGRP returns: Found  1 space group operations
 (whereof  1 operations were pure point group operations)
 out of a pool of 24 trial point group operations.


The static configuration has the point symmetry C_1 .


Analysis of symmetry for dynamics (positions and initial velocities):
=====================================================================
 Subroutine PRICEL returns:
 Original cell was already a primitive cell.
 

 Routine SETGRP: Setting up the symmetry group for a 
 hexagonal supercell.


 Subroutine GETGRP returns: Found  1 space group operations
 (whereof  1 operations were pure point group operations)
 out of a pool of 24 trial point group operations.


The dynamic configuration has the point symmetry C_1 .


Analysis of constrained symmetry for selective dynamics:
=====================================================================
 Subroutine PRICEL returns:
 Original cell was already a primitive cell.
 

 Routine SETGRP: Setting up the symmetry group for a 
 hexagonal supercell.


 Subroutine GETGRP returns: Found  1 space group operations
 (whereof  1 operations were pure point group operations)
 out of a pool of 24 trial point group operations.


The constrained configuration has the point symmetry C_1 .


Analysis of structural, dynamic, and magnetic symmetry:
=====================================================================
 Subroutine PRICEL returns:
 Original cell was already a primitive cell.
 

 Routine SETGRP: Setting up the symmetry group for a 
 hexagonal supercell.


 Subroutine GETGRP returns: Found  1 space group operations
 (whereof  1 operations were pure point group operations)
 out of a pool of 24 trial point group operations.


The magnetic configuration has the point symmetry C_1 .


 Subroutine INISYM returns: Found  1 space group operations
 (whereof  1 operations are pure point group operations),
 and found     1 'primitive' translations

 
 
 KPOINTS: mesh auto                               

Automatic generation of k-mesh.
Space group operators:
 irot       det(A)        alpha          n_x          n_y          n_z        tau_x        tau_y        tau_z
    1     1.000000     0.000000     1.000000     0.000000     0.000000     0.000000     0.000000     0.000000
 
 Subroutine IBZKPT returns following result:
 ===========================================
 
 Found      4 irreducible k-points:
 
 Following reciprocal coordinates:
            Coordinates               Weight
  0.000000  0.000000  0.000000      1.000000
  0.500000 -0.000000  0.000000      1.000000
  0.000000  0.500000  0.000000      1.000000
  0.500000  0.500000  0.000000      1.000000
 
 Following cartesian coordinates:
            Coordinates               Weight
  0.000000  0.000000  0.000000      1.000000
  0.047348  0.027337  0.000000      1.000000
  0.000000  0.054673  0.000000      1.000000
  0.047348  0.082010  0.000000      1.000000
 


--------------------------------------------------------------------------------------------------------




 Dimension of arrays:
   k-points           NKPTS =      4   k-points in BZ     NKDIM =      4   number of bands    NBANDS=    420
   number of dos      NEDOS =    301   number of ions     NIONS =     64
   non local maximal  LDIM  =      6   non local SUM 2l+1 LMDIM =     18
   total plane-waves  NPLWV = ******
   max r-space proj   IRMAX =   8171   max aug-charges    IRDMAX=  35597
   dimension x,y,z NGX =    84 NGY =   84 NGZ =  160
   dimension x,y,z NGXF=   168 NGYF=  168 NGZF=  320
   support grid    NGXF=   168 NGYF=  168 NGZF=  320
   ions per type =              64
   NGX,Y,Z   is equivalent  to a cutoff of  13.22, 13.22, 13.30 a.u.
   NGXF,Y,Z  is equivalent  to a cutoff of  26.45, 26.45, 26.60 a.u.

 SYSTEM =  Pt111                                   
 POSCAR =  Pt111\(1\1\1)\(2)                       

 Startparameter for this run:
   NWRITE =      2    write-flag & timer
   PREC   = accura    normal or accurate (medium, high low for compatibility)
   ISTART =      0    job   : 0-new  1-cont  2-samecut
   ICHARG =      2    charge: 1-file 2-atom 10-const
   ISPIN  =      2    spin polarized calculation?
   LNONCOLLINEAR =      F non collinear calculations
   LSORBIT =      F    spin-orbit coupling
   INIWAV =      1    electr: 0-lowe 1-rand  2-diag
   LASPH  =      F    aspherical Exc in radial PAW
   METAGGA=      F    non-selfconsistent MetaGGA calc.

 Electronic Relaxation 1
   ENCUT  =  550.0 eV  40.42 Ry    6.36 a.u.  20.19 20.19 38.24*2*pi/ulx,y,z
   ENINI  =  550.0     initial cutoff
   ENAUG  =  359.0 eV  augmentation charge cutoff
   NELM   =    200;   NELMIN=  2; NELMDL= -5     # of ELM steps 
   EDIFF  = 0.1E-04   stopping-criterion for ELM
   LREAL  =      T    real-space projection
   NLSPLINE    = F    spline interpolate recip. space projectors
   LCOMPAT=      F    compatible to vasp.4.4
   GGA_COMPAT  = T    GGA compatible to vasp.4.4-vasp.4.6
   LMAXPAW     = -100 max onsite density
   LMAXMIX     =    2 max onsite mixed and CHGCAR
   VOSKOWN=      0    Vosko Wilk Nusair interpolation
   ROPT   =   -0.00025
 Ionic relaxation
   EDIFFG = -.5E-01   stopping-criterion for IOM
   NSW    =    300    number of steps for IOM
   NBLOCK =      1;   KBLOCK =    300    inner block; outer block 
   IBRION =      2    ionic relax: 0-MD 1-quasi-New 2-CG
   NFREE  =      1    steps in history (QN), initial steepest desc. (CG)
   ISIF   =      2    stress and relaxation
   IWAVPR =     11    prediction:  0-non 1-charg 2-wave 3-comb
   ISYM   =      2    0-nonsym 1-usesym 2-fastsym
   LCORR  =      T    Harris-Foulkes like correction to forces

   POTIM  = 0.5000    time-step for ionic-motion
   TEIN   =    0.0    initial temperature
   TEBEG  =    0.0;   TEEND  =   0.0 temperature during run
   SMASS  =  -3.00    Nose mass-parameter (am)
   estimated Nose-frequenzy (Omega)   =  0.10E-29 period in steps =****** mass=  -0.255E-26a.u.
   SCALEE = 1.0000    scale energy and forces
   NPACO  =    256;   APACO  = 16.0  distance and # of slots for P.C.
   PSTRESS=    0.0 pullay stress

  Mass of Ions in am
   POMASS = 195.08
  Ionic Valenz
   ZVAL   =  10.00
  Atomic Wigner-Seitz radii
   RWIGS  =  -1.00
  virtual crystal weights 
   VCA    =   1.00
   NELECT =     640.0000    total number of electrons
   NUPDOWN=      -1.0000    fix difference up-down

 DOS related values:
   EMIN   =  10.00;   EMAX   =-10.00  energy-range for DOS
   EFERMI =   0.00
   ISMEAR =     1;   SIGMA  =   0.10  broadening in eV -4-tet -1-fermi 0-gaus

 Electronic relaxation 2 (details)
   IALGO  =     68    algorithm
   LDIAG  =      T    sub-space diagonalisation (order eigenvalues)
   LSUBROT=      F    optimize rotation matrix (better conditioning)
   TURBO    =      0    0=normal 1=particle mesh
   IRESTART =      0    0=no restart 2=restart with 2 vectors
   NREBOOT  =      0    no. of reboots
   NMIN     =      0    reboot dimension
   EREF     =   0.00    reference energy to select bands
   IMIX   =      4    mixing-type and parameters
     AMIX     =   0.40;   BMIX     =  1.00
     AMIX_MAG =   1.60;   BMIX_MAG =  1.00
     AMIN     =   0.10
     WC   =   100.;   INIMIX=   1;  MIXPRE=   1;  MAXMIX= -45

 Intra band minimization:
   WEIMIN = 0.0010     energy-eigenvalue tresh-hold
   EBREAK =  0.60E-08  absolut break condition
   DEPER  =   0.30     relativ break condition  

   TIME   =   0.40     timestep for ELM

  volume/ion in A,a.u.               =      30.18       203.66
  Fermi-wavevector in a.u.,A,eV,Ry     =   1.132849  2.140774 17.460991  1.283347
  Thomas-Fermi vector in A             =   2.269551
 
 Write flags
   LWAVE        =      F    write WAVECAR
   LDOWNSAMPLE  =      F    k-point downsampling of WAVECAR
   LCHARG       =      F    write CHGCAR
   LVTOT        =      F    write LOCPOT, total local potential
   LVHAR        =      F    write LOCPOT, Hartree potential only
   LELF         =      F    write electronic localiz. function (ELF)
   LORBIT       =      0    0 simple, 1 ext, 2 COOP (PROOUT), +10 PAW based schemes


 Dipole corrections
   LMONO  =      F    monopole corrections only (constant potential shift)
   LDIPOL =      F    correct potential (dipole corrections)
   IDIPOL =      0    1-x, 2-y, 3-z, 4-all directions 
   EPSILON=  1.0000000 bulk dielectric constant

 Exchange correlation treatment:
   GGA     =    --    GGA type
   LEXCH   =     8    internal setting for exchange type
   VOSKOWN=      0    Vosko Wilk Nusair interpolation
   LHFCALC =     F    Hartree Fock is set to
   LHFONE  =     F    Hartree Fock one center treatment
   AEXX    =    0.0000 exact exchange contribution

 Linear response parameters
   LEPSILON=     F    determine dielectric tensor
   LRPA    =     F    only Hartree local field effects (RPA)
   LNABLA  =     F    use nabla operator in PAW spheres
   LVEL    =     F    velocity operator in full k-point grid
   LINTERFAST=   F  fast interpolation
   KINTER  =     0    interpolate to denser k-point grid
   CSHIFT  =0.1000    complex shift for real part using Kramers Kronig
   OMEGAMAX=  -1.0    maximum frequency
   DEG_THRESHOLD= 0.2000000E-02 threshold for treating states as degnerate
   RTIME   =   -0.100 relaxation time in fs
  (WPLASMAI=    0.000 imaginary part of plasma frequency in eV, 0.658/RTIME)
   DFIELD  = 0.0000000 0.0000000 0.0000000 field for delta impulse in time
 
 Orbital magnetization related:
   ORBITALMAG=     F  switch on orbital magnetization
   LCHIMAG   =     F  perturbation theory with respect to B field
   DQ        =  0.001000  dq finite difference perturbation B field
   LLRAUG    =     F  two centre corrections for induced B field



--------------------------------------------------------------------------------------------------------


 conjugate gradient relaxation of ions
   using selective dynamics as specified on POSCAR
   WARNING: If single coordinates had been selected the selection of coordinates
            is made according to the corresponding   d i r e c t   coordinates!
            Don't support selection of single cartesian coordinates -- sorry ...
  !
 charge density and potential will be updated during run
 spin polarized calculation
 RMM-DIIS sequential band-by-band and
  variant of blocked Davidson during initial phase
 perform sub-space diagonalisation
    before iterative eigenvector-optimisation
 modified Broyden-mixing scheme, WC =      100.0
 initial mixing is a Kerker type mixing with AMIX =  0.4000 and BMIX =      1.0000
 Hartree-type preconditioning will be used
 using additional bands          100
 real space projection scheme for non local part
 use partial core corrections
 calculate Harris-corrections to forces 
   (improved forces if not selfconsistent)
 use gradient corrections 
 use of overlap-Matrix (Vanderbilt PP)
 Methfessel and Paxton  Order N= 1 SIGMA  =   0.10


--------------------------------------------------------------------------------------------------------


  energy-cutoff  :      550.00
  volume of cell :     1931.47
      direct lattice vectors                 reciprocal lattice vectors
    10.560000420  0.000000000  0.000000000     0.094696966  0.054673319  0.000000000
    -5.280000210  9.145228627  0.000000000     0.000000000  0.109346638  0.000000000
     0.000000000  0.000000000 20.000000000     0.000000000  0.000000000  0.050000000

  length of vectors
    10.560000420 10.560000420 20.000000000     0.109346638  0.109346638  0.050000000


 
 k-points in units of 2pi/SCALE and weight: mesh auto                               
   0.00000000  0.00000000  0.00000000       0.250
   0.04734848  0.02733666  0.00000000       0.250
   0.00000000  0.05467332  0.00000000       0.250
   0.04734848  0.08200998  0.00000000       0.250
 
 k-points in reciprocal lattice and weights: mesh auto                               
   0.00000000  0.00000000  0.00000000       0.250
   0.50000000 -0.00000000  0.00000000       0.250
   0.00000000  0.50000000  0.00000000       0.250
   0.50000000  0.50000000  0.00000000       0.250
 
 position of ions in fractional coordinates (direct lattice) 
   0.99999844  0.00000156  0.05579229
   0.33314340  0.16679443  0.17767336
   0.16761692  0.33392718  0.29971288
   0.00002391  0.00007716  0.41904677
   0.99999844  0.25000155  0.05579229
   0.33333687  0.41667657  0.18055252
   0.16749497  0.08498212  0.29863246
   0.99920069  0.24982853  0.41610707
   0.24999844  0.25000155  0.05579229
   0.08363372  0.41686078  0.17762378
   0.41652565  0.08305970  0.29668036
   0.24873798  0.24746687  0.42663545
   0.24999844  0.00000156  0.05579229
   0.08364864  0.16679475  0.17767233
   0.41631891  0.33392704  0.29971482
   0.25006385  0.00007628  0.41904817
   0.49999844  0.00000156  0.05579229
   0.83333240  0.16667990  0.17752947
   0.66720462  0.33374904  0.29670031
   0.49998975  0.00014304  0.42012091
   0.49999843  0.25000155  0.05579229
   0.83333729  0.41668042  0.17723901
   0.66674483  0.08348479  0.29830844
   0.50062980  0.24982533  0.41610853
   0.74999841  0.25000155  0.05579229
   0.58322083  0.41685789  0.17762509
   0.91653989  0.08306083  0.29668100
   0.75018552  0.25036618  0.42014643
   0.74999842  0.00000156  0.05579229
   0.58333951  0.16667936  0.17752918
   0.91654632  0.33375075  0.29670068
   0.75015714  0.00014023  0.42012005
   0.99999844  0.50000154  0.05579229
   0.33315441  0.66637972  0.17764742
   0.16665354  0.83345260  0.29713371
   0.00002107  0.50031038  0.41899824
   0.99999843  0.75000151  0.05579229
   0.33332809  0.91667735  0.17724114
   0.16748172  0.58277569  0.29857883
   0.00011076  0.75021305  0.41764999
   0.24999843  0.75000151  0.05579229
   0.08338106  0.91676406  0.17726825
   0.41630913  0.58260949  0.29971691
   0.25006054  0.75032051  0.41902881
   0.24999844  0.50000154  0.05579229
   0.08338439  0.66663200  0.17723737
   0.41651648  0.83369699  0.29669428
   0.24870559  0.50165112  0.42648984
   0.49999844  0.50000154  0.05579229
   0.83324330  0.66663050  0.17723657
   0.66718454  0.83369520  0.29669384
   0.50295130  0.50165328  0.42649204
   0.49999843  0.75000151  0.05579229
   0.83334414  0.91667596  0.17723997
   0.66529850  0.58277222  0.29857808
   0.50054387  0.75109181  0.41613113
   0.74999841  0.75000151  0.05579229
   0.58334112  0.91668820  0.17752764
   0.91681870  0.58363331  0.29713045
   0.75026754  0.75032194  0.41902628
   0.74999839  0.50000154  0.05579229
   0.58322195  0.66637754  0.17764797
   0.91680595  0.83345202  0.29713289
   0.75029620  0.50030942  0.41899975
 
 position of ions in cartesian coordinates  (Angst):
  10.55997578  0.00001422  1.11584590
   2.63731980  1.52537317  3.55346719
   0.00689916  3.05384043  5.99425754
  -0.00015492  0.00070561  8.38093534
   9.23997574  2.28632132  1.11584590
   1.31998512  3.81060251  3.61105043
   1.32004132  0.77718092  5.97264919
   9.23246498  2.28473905  8.32214143
   1.31997542  2.28632132  1.11584590
  -1.31785289  3.81228716  3.55247551
   3.95995583  0.75959993  5.93360710
   1.32004808  2.26314112  8.53270899
   2.63997547  0.00001422  1.11584590
   0.00265331  1.52537614  3.55344665
   2.63319298  3.05383914  5.99429641
   2.64027161  0.00069762  8.38096347
   5.27997557  0.00001422  1.11584590
   7.91992062  1.52432575  3.55058941
   5.28348606  3.05221127  5.93400616
   5.27913675  0.00130816  8.40241810
   3.95997540  2.28632132  1.11584590
   6.59996938  3.81063773  3.54478023
   6.60002595  0.76348754  5.96616873
   3.96757318  2.28470972  8.32217061
   6.59997527  2.28632132  1.11584590
   3.95780253  3.81226069  3.55250182
   9.24010041  0.75961028  5.93362007
   6.60002595  2.28965596  8.40292861
   7.91997543  0.00001422  1.11584590
   5.27999847  1.52432083  3.55058368
   7.91652551  3.05222695  5.93401356
   7.92091925  0.00128245  8.40240105
   7.91997567  4.57262842  1.11584590
  -0.00037438  6.09419490  3.55294833
  -2.64076842  7.62211459  5.94267416
  -2.64141639  4.57545278  8.37996482
   6.59997574  6.85893527  1.11584590
  -1.32011184  8.38322390  3.54482279
  -1.30844874  5.32961693  5.97157660
  -3.95995547  6.86086990  8.35299986
  -1.32002457  6.85893527  1.11584590
  -3.96001044  8.38401690  3.54536499
   1.32004631  5.32809702  5.99433818
  -1.32105302  6.86185265  8.38057619
  -0.00002464  4.57262842  1.11584590
  -2.63927792  6.09650207  3.54474748
  -0.00350608  7.62434960  5.93388566
  -0.02238690  4.58771419  8.52979674
   2.63997546  4.57262842  1.11584590
   5.27924037  6.09648836  3.54473131
   2.64355817  7.62433325  5.93387673
   2.66243656  4.58773392  8.52984079
   1.31997553  6.85893527  1.11584590
   3.96006517  8.38321127  3.54479934
   3.94851505  5.32958516  5.97156165
   1.31997858  6.86890634  8.32262262
   3.95997540  6.85893527  1.11584590
   1.31996864  8.38332314  3.55055283
   6.60002188  5.33746001  5.94260904
   3.96112554  6.86186569  8.38052553
   5.27997509  4.57262842  1.11584590
   2.64035050  6.09417493  3.55295948
   5.28084433  7.62210929  5.94265784
   5.28149434  4.57544406  8.37999505
 


--------------------------------------------------------------------------------------------------------


 k-point  1 :   0.0000 0.0000 0.0000  plane waves:   56579
 k-point  2 :   0.5000-0.0000 0.0000  plane waves:   56606
 k-point  3 :   0.0000 0.5000 0.0000  plane waves:   56606
 k-point  4 :   0.5000 0.5000 0.0000  plane waves:   56606

 maximum and minimum number of plane-waves per node :     14185    14108

 maximum number of plane-waves:     56606
 maximum index in each direction: 
   IXMAX=   20   IYMAX=   20   IZMAX=   38
   IXMIN=  -20   IYMIN=  -20   IZMIN=  -38


 real space projection operators:
  total allocation   :      71033.34 KBytes
  max/ min on nodes  :      17765.44      17752.22


 parallel 3D FFT for wavefunctions:
    minimum data exchange during FFTs selected (reduces bandwidth)
 parallel 3D FFT for charge:
    minimum data exchange during FFTs selected (reduces bandwidth)


 total amount of memory used by VASP MPI-rank0   198142. kBytes
=======================================================================

   base      :      30000. kBytes
   nonlr-proj:      30733. kBytes
   fftplans  :      17093. kBytes
   grid      :      42083. kBytes
   one-center:        497. kBytes
   wavefun   :      77736. kBytes
 
     INWAV:  cpu time    0.0000: real time    0.0000
 Broyden mixing: mesh for mixing (old mesh)
   NGX = 41   NGY = 41   NGZ = 77
  (NGX  =168   NGY  =168   NGZ  =320)
  gives a total of 129437 points

 initial charge density was supplied:
 charge density of overlapping atoms calculated
 number of electron     640.0000000 magnetization      64.0000000
 keeping initial charge density in first step


--------------------------------------------------------------------------------------------------------


 Maximum index for non-local projection operator         2014
 Maximum index for augmentation-charges         2180 (set IRDMAX)


--------------------------------------------------------------------------------------------------------


 First call to EWALD:  gamma=   0.142
 Maximum number of real-space cells 4x 4x 2
 Maximum number of reciprocal cells 2x 2x 4

    FEWALD:  cpu time    0.0030: real time    0.0030


--------------------------------------- Iteration      1(   1)  ---------------------------------------


    POTLOK:  cpu time    0.3862: real time    0.4133
    SETDIJ:  cpu time    0.0323: real time    0.0329
     EDDAV:  cpu time   42.7067: real time   42.8222
       DOS:  cpu time    0.0023: real time    0.0023
    --------------------------------------------
      LOOP:  cpu time   43.1275: real time   43.2707

 eigenvalue-minimisations  :  6720
 total energy-change (2. order) : 0.4491051E+04  (-0.3114064E+05)
 number of electron     640.0000000 magnetization      64.0000000
 augmentation part      640.0000000 magnetization      64.0000000

 Free energy of the ion-electron system (eV)
  ---------------------------------------------------
  alpha Z        PSCENC =      2015.86452450
  Ewald energy   TEWEN  =    125270.11727223
  -Hartree energ DENC   =   -176333.80575968
  -exchange      EXHF   =         0.00000000
  -V(xc)+E(xc)   XCENC  =       241.61397246
  PAW double counting   =     44546.96166755   -42737.10153268
  entropy T*S    EENTRO =        -0.00424509
  eigenvalues    EBANDS =      4824.00965766
  atomic energy  EATOM  =     46663.39518770
  Solvation  Ediel_sol  =         0.00000000
  ---------------------------------------------------
  free energy    TOTEN  =      4491.05074466 eV

  energy without entropy =     4491.05498975  energy(sigma->0) =     4491.05215969


--------------------------------------------------------------------------------------------------------




--------------------------------------- Iteration      1(   2)  ---------------------------------------


     EDDAV:  cpu time   46.5472: real time   46.6594
       DOS:  cpu time    0.0016: real time    0.0016
    --------------------------------------------
      LOOP:  cpu time   46.5487: real time   46.6610

 eigenvalue-minimisations  :  7550
 total energy-change (2. order) :-0.4626665E+04  (-0.4237218E+04)
 number of electron     640.0000000 magnetization      64.0000000
 augmentation part      640.0000000 magnetization      64.0000000

 Free energy of the ion-electron system (eV)
  ---------------------------------------------------
  alpha Z        PSCENC =      2015.86452450
  Ewald energy   TEWEN  =    125270.11727223
  -Hartree energ DENC   =   -176333.80575968
  -exchange      EXHF   =         0.00000000
  -V(xc)+E(xc)   XCENC  =       241.61397246
  PAW double counting   =     44546.96166755   -42737.10153268
  entropy T*S    EENTRO =        -0.01053724
  eigenvalues    EBANDS =       197.35064598
  atomic energy  EATOM  =     46663.39518770
  Solvation  Ediel_sol  =         0.00000000
  ---------------------------------------------------
  free energy    TOTEN  =      -135.61455918 eV

  energy without entropy =     -135.60402194  energy(sigma->0) =     -135.61104676


--------------------------------------------------------------------------------------------------------




--------------------------------------- Iteration      1(   3)  ---------------------------------------


     EDDAV:  cpu time   46.9453: real time   47.0653
       DOS:  cpu time    0.0017: real time    0.0017
    --------------------------------------------
      LOOP:  cpu time   46.9470: real time   47.0670

 eigenvalue-minimisations  :  7610
 total energy-change (2. order) :-0.2445245E+03  (-0.2265287E+03)
 number of electron     640.0000000 magnetization      64.0000000
 augmentation part      640.0000000 magnetization      64.0000000

 Free energy of the ion-electron system (eV)
  ---------------------------------------------------
  alpha Z        PSCENC =      2015.86452450
  Ewald energy   TEWEN  =    125270.11727223
  -Hartree energ DENC   =   -176333.80575968
  -exchange      EXHF   =         0.00000000
  -V(xc)+E(xc)   XCENC  =       241.61397246
  PAW double counting   =     44546.96166755   -42737.10153268
  entropy T*S    EENTRO =         0.01282824
  eigenvalues    EBANDS =       -47.19725387
  atomic energy  EATOM  =     46663.39518770
  Solvation  Ediel_sol  =         0.00000000
  ---------------------------------------------------
  free energy    TOTEN  =      -380.13909354 eV

  energy without entropy =     -380.15192178  energy(sigma->0) =     -380.14336962


--------------------------------------------------------------------------------------------------------




--------------------------------------- Iteration      1(   4)  ---------------------------------------


     EDDAV:  cpu time   48.9528: real time   49.0763
       DOS:  cpu time    0.0016: real time    0.0016
    --------------------------------------------
      LOOP:  cpu time   48.9545: real time   49.0780

 eigenvalue-minimisations  :  8020
 total energy-change (2. order) :-0.6309826E+01  (-0.6252830E+01)
 number of electron     640.0000000 magnetization      64.0000000
 augmentation part      640.0000000 magnetization      64.0000000

 Free energy of the ion-electron system (eV)
  ---------------------------------------------------
  alpha Z        PSCENC =      2015.86452450
  Ewald energy   TEWEN  =    125270.11727223
  -Hartree energ DENC   =   -176333.80575968
  -exchange      EXHF   =         0.00000000
  -V(xc)+E(xc)   XCENC  =       241.61397246
  PAW double counting   =     44546.96166755   -42737.10153268
  entropy T*S    EENTRO =         0.00974814
  eigenvalues    EBANDS =       -53.50399985
  atomic energy  EATOM  =     46663.39518770
  Solvation  Ediel_sol  =         0.00000000
  ---------------------------------------------------
  free energy    TOTEN  =      -386.44891962 eV

  energy without entropy =     -386.45866776  energy(sigma->0) =     -386.45216900


--------------------------------------------------------------------------------------------------------




--------------------------------------- Iteration      1(   5)  ---------------------------------------


     EDDAV:  cpu time   48.1002: real time   48.2142
       DOS:  cpu time    0.0016: real time    0.0016
    CHARGE:  cpu time    3.1225: real time    3.1301
    MIXING:  cpu time    0.0100: real time    0.0107
    --------------------------------------------
      LOOP:  cpu time   51.2343: real time   51.3567

 eigenvalue-minimisations  :  7860
 total energy-change (2. order) :-0.2133795E+00  (-0.2127424E+00)
 number of electron     640.0000091 magnetization      57.8003135
 augmentation part      185.6947865 magnetization      46.6029411

 Broyden mixing:
  rms(total) = 0.10467E+02    rms(broyden)= 0.10467E+02
  rms(prec ) = 0.10572E+02
  weight for this iteration     100.00

 Free energy of the ion-electron system (eV)
  ---------------------------------------------------
  alpha Z        PSCENC =      2015.86452450
  Ewald energy   TEWEN  =    125270.11727223
  -Hartree energ DENC   =   -176333.80575968
  -exchange      EXHF   =         0.00000000
  -V(xc)+E(xc)   XCENC  =       241.61397246
  PAW double counting   =     44546.96166755   -42737.10153268
  entropy T*S    EENTRO =         0.00938031
  eigenvalues    EBANDS =       -53.71701157
  atomic energy  EATOM  =     46663.39518770
  Solvation  Ediel_sol  =         0.00000000
  ---------------------------------------------------
  free energy    TOTEN  =      -386.66229917 eV

  energy without entropy =     -386.67167948  energy(sigma->0) =     -386.66542594


--------------------------------------------------------------------------------------------------------




--------------------------------------- Iteration      1(   6)  ---------------------------------------


    POTLOK:  cpu time    0.3761: real time    0.3770
    SETDIJ:  cpu time    0.0313: real time    0.0313
    EDDIAG:  cpu time    7.5278: real time    7.5462
  RMM-DIIS:  cpu time   27.5650: real time   27.6302
    ORTHCH:  cpu time    0.7260: real time    0.7278
       DOS:  cpu time    0.0021: real time    0.0021
    CHARGE:  cpu time    3.1177: real time    3.1251
    MIXING:  cpu time    0.0090: real time    0.0092
    --------------------------------------------
      LOOP:  cpu time   39.3549: real time   39.4488

 eigenvalue-minimisations  :  6753
 total energy-change (2. order) : 0.2704821E+02  (-0.5932739E+01)
 number of electron     640.0000099 magnetization      50.2007858
 augmentation part      195.1288131 magnetization      37.3072457

 Broyden mixing:
  rms(total) = 0.67262E+01    rms(broyden)= 0.67262E+01
  rms(prec ) = 0.70000E+01
  weight for this iteration     100.00

 eigenvalues of (default mixing * dielectric matrix)
  average eigenvalue GAMMA=   1.2915
  1.2915

 Free energy of the ion-electron system (eV)
  ---------------------------------------------------
  alpha Z        PSCENC =      2015.86452450
  Ewald energy   TEWEN  =    125270.11727223
  -Hartree energ DENC   =   -175650.49534461
  -exchange      EXHF   =         0.00000000
  -V(xc)+E(xc)   XCENC  =       230.48896907
  PAW double counting   =     50816.95808531   -49114.18212924
  entropy T*S    EENTRO =        -0.03034377
  eigenvalues    EBANDS =      -591.73030745
  atomic energy  EATOM  =     46663.39518770
  Solvation  Ediel_sol  =         0.00000000
  ---------------------------------------------------
  free energy    TOTEN  =      -359.61408627 eV

  energy without entropy =     -359.58374250  energy(sigma->0) =     -359.60397168


--------------------------------------------------------------------------------------------------------




--------------------------------------- Iteration      1(   7)  ---------------------------------------


    POTLOK:  cpu time    0.3786: real time    0.3795
    SETDIJ:  cpu time    0.0314: real time    0.0315
    EDDIAG:  cpu time    7.5003: real time    7.5181
  RMM-DIIS:  cpu time   27.0574: real time   27.1213
    ORTHCH:  cpu time    0.6225: real time    0.6239
       DOS:  cpu time    0.0015: real time    0.0015
    CHARGE:  cpu time    3.2104: real time    3.2179
    MIXING:  cpu time    0.0092: real time    0.0092
    --------------------------------------------
      LOOP:  cpu time   38.8112: real time   38.9029

 eigenvalue-minimisations  :  6730
 total energy-change (2. order) :-0.1047823E+03  (-0.1197447E+02)
 number of electron     640.0000101 magnetization      44.6204197
 augmentation part      192.7777804 magnetization      32.7882155

 Broyden mixing:
  rms(total) = 0.92674E+01    rms(broyden)= 0.92674E+01
  rms(prec ) = 0.11420E+02
  weight for this iteration     100.00

 eigenvalues of (default mixing * dielectric matrix)
  average eigenvalue GAMMA=   1.0723
  1.8066  0.3381

 Free energy of the ion-electron system (eV)
  ---------------------------------------------------
  alpha Z        PSCENC =      2015.86452450
  Ewald energy   TEWEN  =    125270.11727223
  -Hartree energ DENC   =   -176198.52138004
  -exchange      EXHF   =         0.00000000
  -V(xc)+E(xc)   XCENC  =       224.44200772
  PAW double counting   =     56445.94477627   -54805.78330110
  entropy T*S    EENTRO =        -0.00913708
  eigenvalues    EBANDS =       -79.84634298
  atomic energy  EATOM  =     46663.39518770
  Solvation  Ediel_sol  =         0.00000000
  ---------------------------------------------------
  free energy    TOTEN  =      -464.39639278 eV

  energy without entropy =     -464.38725570  energy(sigma->0) =     -464.39334709


--------------------------------------------------------------------------------------------------------




--------------------------------------- Iteration      1(   8)  ---------------------------------------


    POTLOK:  cpu time    0.3593: real time    0.3602
    SETDIJ:  cpu time    0.0312: real time    0.0313
    EDDIAG:  cpu time    7.5027: real time    7.5204
  RMM-DIIS:  cpu time   27.2257: real time   27.2901
    ORTHCH:  cpu time    0.6207: real time    0.6247
       DOS:  cpu time    0.0016: real time    0.0016
    CHARGE:  cpu time    3.1031: real time    3.1105
    MIXING:  cpu time    0.0089: real time    0.0089
    --------------------------------------------
      LOOP:  cpu time   38.8532: real time   38.9478

 eigenvalue-minimisations  :  6755
 total energy-change (2. order) : 0.1109281E+03  (-0.4979160E+01)
 number of electron     640.0000098 magnetization      41.8063054
 augmentation part      198.3703048 magnetization      30.8551080

 Broyden mixing:
  rms(total) = 0.28541E+01    rms(broyden)= 0.28541E+01
  rms(prec ) = 0.33166E+01
  weight for this iteration     100.00

 eigenvalues of (default mixing * dielectric matrix)
  average eigenvalue GAMMA=   1.0122
  2.1146  0.5932  0.3288

 Free energy of the ion-electron system (eV)
  ---------------------------------------------------
  alpha Z        PSCENC =      2015.86452450
  Ewald energy   TEWEN  =    125270.11727223
  -Hartree energ DENC   =   -175653.65103712
  -exchange      EXHF   =         0.00000000
  -V(xc)+E(xc)   XCENC  =       226.68827213
  PAW double counting   =     59869.31361390   -58271.03056535
  entropy T*S    EENTRO =        -0.00988542
  eigenvalues    EBANDS =      -474.15566936
  atomic energy  EATOM  =     46663.39518770
  Solvation  Ediel_sol  =         0.00000000
  ---------------------------------------------------
  free energy    TOTEN  =      -353.46828680 eV

  energy without entropy =     -353.45840137  energy(sigma->0) =     -353.46499166


--------------------------------------------------------------------------------------------------------




--------------------------------------- Iteration      1(   9)  ---------------------------------------


    POTLOK:  cpu time    0.3764: real time    0.3800
    SETDIJ:  cpu time    0.0312: real time    0.0313
    EDDIAG:  cpu time    7.5128: real time    7.5308
  RMM-DIIS:  cpu time   27.0651: real time   27.1292
    ORTHCH:  cpu time    0.6218: real time    0.6233
       DOS:  cpu time    0.0016: real time    0.0016
    CHARGE:  cpu time    3.1385: real time    3.1459
    MIXING:  cpu time    0.0105: real time    0.0105
    --------------------------------------------
      LOOP:  cpu time   38.7580: real time   38.8527

 eigenvalue-minimisations  :  6749
 total energy-change (2. order) :-0.1688579E+02  (-0.2049102E+01)
 number of electron     640.0000100 magnetization      40.0488281
 augmentation part      197.7147164 magnetization      32.3735107

 Broyden mixing:
  rms(total) = 0.46615E+01    rms(broyden)= 0.46615E+01
  rms(prec ) = 0.69007E+01
  weight for this iteration     100.00

 eigenvalues of (default mixing * dielectric matrix)
  average eigenvalue GAMMA=   0.8576
  2.2075  0.6895  0.3361  0.1972

 Free energy of the ion-electron system (eV)
  ---------------------------------------------------
  alpha Z        PSCENC =      2015.86452450
  Ewald energy   TEWEN  =    125270.11727223
  -Hartree energ DENC   =   -175661.47792986
  -exchange      EXHF   =         0.00000000
  -V(xc)+E(xc)   XCENC  =       225.94283412
  PAW double counting   =     60279.12096378   -58681.95239508
  entropy T*S    EENTRO =        -0.02629523
  eigenvalues    EBANDS =      -481.33823645
  atomic energy  EATOM  =     46663.39518770
  Solvation  Ediel_sol  =         0.00000000
  ---------------------------------------------------
  free energy    TOTEN  =      -370.35407430 eV

  energy without entropy =     -370.32777907  energy(sigma->0) =     -370.34530922


--------------------------------------------------------------------------------------------------------




--------------------------------------- Iteration      1(  10)  ---------------------------------------


    POTLOK:  cpu time    0.4047: real time    0.4056
    SETDIJ:  cpu time    0.0334: real time    0.0335
    EDDIAG:  cpu time    7.5188: real time    7.5367
  RMM-DIIS:  cpu time   27.1698: real time   27.2340
    ORTHCH:  cpu time    0.6236: real time    0.6251
       DOS:  cpu time    0.0016: real time    0.0016
    CHARGE:  cpu time    3.1440: real time    3.1514
    MIXING:  cpu time    0.0096: real time    0.0096
    --------------------------------------------
      LOOP:  cpu time   38.9055: real time   38.9976

 eigenvalue-minimisations  :  6761
 total energy-change (2. order) : 0.1176675E+02  (-0.5996642E+00)
 number of electron     640.0000102 magnetization      38.0519642
 augmentation part      197.6350136 magnetization      25.9781120

 Broyden mixing:
  rms(total) = 0.30931E+01    rms(broyden)= 0.30931E+01
  rms(prec ) = 0.44312E+01
  weight for this iteration     100.00

 eigenvalues of (default mixing * dielectric matrix)
  average eigenvalue GAMMA=   0.7571
  2.2604  0.7169  0.4014  0.2944  0.1121

 Free energy of the ion-electron system (eV)
  ---------------------------------------------------
  alpha Z        PSCENC =      2015.86452450
  Ewald energy   TEWEN  =    125270.11727223
  -Hartree energ DENC   =   -175690.32927683
  -exchange      EXHF   =         0.00000000
  -V(xc)+E(xc)   XCENC  =       225.85687176
  PAW double counting   =     60499.34735668   -58902.99237375
  entropy T*S    EENTRO =        -0.02062391
  eigenvalues    EBANDS =      -439.82626358
  atomic energy  EATOM  =     46663.39518770
  Solvation  Ediel_sol  =         0.00000000
  ---------------------------------------------------
  free energy    TOTEN  =      -358.58732520 eV

  energy without entropy =     -358.56670129  energy(sigma->0) =     -358.58045057


--------------------------------------------------------------------------------------------------------




--------------------------------------- Iteration      1(  11)  ---------------------------------------


    POTLOK:  cpu time    0.3798: real time    0.3807
    SETDIJ:  cpu time    0.0315: real time    0.0315
    EDDIAG:  cpu time    7.5031: real time    7.5211
  RMM-DIIS:  cpu time   27.2330: real time   27.3017
    ORTHCH:  cpu time    0.6206: real time    0.6221
       DOS:  cpu time    0.0016: real time    0.0016
    CHARGE:  cpu time    3.1040: real time    3.1114
    MIXING:  cpu time    0.0099: real time    0.0099
    --------------------------------------------
      LOOP:  cpu time   38.8834: real time   38.9800

 eigenvalue-minimisations  :  6768
 total energy-change (2. order) : 0.6122140E+01  (-0.4496751E+00)
 number of electron     640.0000097 magnetization      36.1589241
 augmentation part      197.4429941 magnetization      24.9636837

 Broyden mixing:
  rms(total) = 0.11524E+01    rms(broyden)= 0.11524E+01
  rms(prec ) = 0.14241E+01
  weight for this iteration     100.00

 eigenvalues of (default mixing * dielectric matrix)
  average eigenvalue GAMMA=   0.7462
  2.1971  0.7851  0.7851  0.3002  0.3002  0.1092

 Free energy of the ion-electron system (eV)
  ---------------------------------------------------
  alpha Z        PSCENC =      2015.86452450
  Ewald energy   TEWEN  =    125270.11727223
  -Hartree energ DENC   =   -175704.93536245
  -exchange      EXHF   =         0.00000000
  -V(xc)+E(xc)   XCENC  =       225.28951452
  PAW double counting   =     60718.06489646   -59123.07792970
  entropy T*S    EENTRO =         0.01203849
  eigenvalues    EBANDS =      -417.19532707
  atomic energy  EATOM  =     46663.39518770
  Solvation  Ediel_sol  =         0.00000000
  ---------------------------------------------------
  free energy    TOTEN  =      -352.46518533 eV

  energy without entropy =     -352.47722382  energy(sigma->0) =     -352.46919816


--------------------------------------------------------------------------------------------------------




--------------------------------------- Iteration      1(  12)  ---------------------------------------


    POTLOK:  cpu time    0.3781: real time    0.3790
    SETDIJ:  cpu time    0.0313: real time    0.0314
    EDDIAG:  cpu time    7.5121: real time    7.5301
  RMM-DIIS:  cpu time   27.2525: real time   27.3170
    ORTHCH:  cpu time    0.6203: real time    0.6218
       DOS:  cpu time    0.0016: real time    0.0016
    CHARGE:  cpu time    3.1058: real time    3.1132
    MIXING:  cpu time    0.0107: real time    0.0108
    --------------------------------------------
      LOOP:  cpu time   38.9124: real time   39.0049

 eigenvalue-minimisations  :  6765
 total energy-change (2. order) :-0.2395777E+01  (-0.1665105E+00)
 number of electron     640.0000098 magnetization      34.6321824
 augmentation part      197.2838220 magnetization      24.8295578

 Broyden mixing:
  rms(total) = 0.12193E+01    rms(broyden)= 0.12193E+01
  rms(prec ) = 0.13236E+01
  weight for this iteration     100.00

 eigenvalues of (default mixing * dielectric matrix)
  average eigenvalue GAMMA=   0.7057
  2.1929  0.8277  0.8277  0.4388  0.2721  0.2721  0.1083

 Free energy of the ion-electron system (eV)
  ---------------------------------------------------
  alpha Z        PSCENC =      2015.86452450
  Ewald energy   TEWEN  =    125270.11727223
  -Hartree energ DENC   =   -175698.28264130
  -exchange      EXHF   =         0.00000000
  -V(xc)+E(xc)   XCENC  =       224.08372476
  PAW double counting   =     60618.94351595   -59022.95197623
  entropy T*S    EENTRO =         0.04006471
  eigenvalues    EBANDS =      -426.07063494
  atomic energy  EATOM  =     46663.39518770
  Solvation  Ediel_sol  =         0.00000000
  ---------------------------------------------------
  free energy    TOTEN  =      -354.86096262 eV

  energy without entropy =     -354.90102734  energy(sigma->0) =     -354.87431753


--------------------------------------------------------------------------------------------------------




--------------------------------------- Iteration      1(  13)  ---------------------------------------


    POTLOK:  cpu time    0.3796: real time    0.3805
    SETDIJ:  cpu time    0.0314: real time    0.0314
    EDDIAG:  cpu time    7.5952: real time    7.6135
  RMM-DIIS:  cpu time   27.3081: real time   27.3727
    ORTHCH:  cpu time    0.6188: real time    0.6203
       DOS:  cpu time    0.0016: real time    0.0016
    CHARGE:  cpu time    3.1000: real time    3.1074
    MIXING:  cpu time    0.0110: real time    0.0110
    --------------------------------------------
      LOOP:  cpu time   39.0459: real time   39.1385

 eigenvalue-minimisations  :  6763
 total energy-change (2. order) :-0.4975306E+00  (-0.4633962E-01)
 number of electron     640.0000098 magnetization      32.0886305
 augmentation part      197.2733490 magnetization      22.5135005

 Broyden mixing:
  rms(total) = 0.90747E+00    rms(broyden)= 0.90747E+00
  rms(prec ) = 0.95612E+00
  weight for this iteration     100.00

 eigenvalues of (default mixing * dielectric matrix)
  average eigenvalue GAMMA=   0.7195
  2.2512  0.8354  0.8354  0.8410  0.3150  0.3150  0.2551  0.1084

 Free energy of the ion-electron system (eV)
  ---------------------------------------------------
  alpha Z        PSCENC =      2015.86452450
  Ewald energy   TEWEN  =    125270.11727223
  -Hartree energ DENC   =   -175696.97360307
  -exchange      EXHF   =         0.00000000
  -V(xc)+E(xc)   XCENC  =       223.47887736
  PAW double counting   =     60611.18246433   -59015.30133119
  entropy T*S    EENTRO =         0.03514529
  eigenvalues    EBANDS =      -427.15703040
  atomic energy  EATOM  =     46663.39518770
  Solvation  Ediel_sol  =         0.00000000
  ---------------------------------------------------
  free energy    TOTEN  =      -355.35849327 eV

  energy without entropy =     -355.39363856  energy(sigma->0) =     -355.37020836


--------------------------------------------------------------------------------------------------------




--------------------------------------- Iteration      1(  14)  ---------------------------------------


    POTLOK:  cpu time    0.3794: real time    0.3803
    SETDIJ:  cpu time    0.0315: real time    0.0316
    EDDIAG:  cpu time    7.5021: real time    7.5198
  RMM-DIIS:  cpu time   27.3804: real time   27.4575
    ORTHCH:  cpu time    0.6198: real time    0.6213
       DOS:  cpu time    0.0015: real time    0.0015
    CHARGE:  cpu time    3.0962: real time    3.1035
    MIXING:  cpu time    0.0108: real time    0.0108
    --------------------------------------------
      LOOP:  cpu time   39.0218: real time   39.1265

 eigenvalue-minimisations  :  6757
 total energy-change (2. order) :-0.1368092E+01  (-0.3865431E-01)
 number of electron     640.0000098 magnetization      25.5794691
 augmentation part      197.2541259 magnetization      15.8337728

 Broyden mixing:
  rms(total) = 0.77048E+00    rms(broyden)= 0.77048E+00
  rms(prec ) = 0.82891E+00
  weight for this iteration     100.00

 eigenvalues of (default mixing * dielectric matrix)
  average eigenvalue GAMMA=   0.7823
  2.3201  1.3036  1.3036  0.7085  0.4273  0.1084  0.3084  0.3084  0.2525

 Free energy of the ion-electron system (eV)
  ---------------------------------------------------
  alpha Z        PSCENC =      2015.86452450
  Ewald energy   TEWEN  =    125270.11727223
  -Hartree energ DENC   =   -175698.72353943
  -exchange      EXHF   =         0.00000000
  -V(xc)+E(xc)   XCENC  =       222.48858602
  PAW double counting   =     60662.20307262   -59067.19649735
  entropy T*S    EENTRO =         0.03509084
  eigenvalues    EBANDS =      -424.91028251
  atomic energy  EATOM  =     46663.39518770
  Solvation  Ediel_sol  =         0.00000000
  ---------------------------------------------------
  free energy    TOTEN  =      -356.72658538 eV

  energy without entropy =     -356.76167621  energy(sigma->0) =     -356.73828232


--------------------------------------------------------------------------------------------------------




--------------------------------------- Iteration      1(  15)  ---------------------------------------


    POTLOK:  cpu time    0.3609: real time    0.3617
    SETDIJ:  cpu time    0.0314: real time    0.0315
    EDDIAG:  cpu time    7.5029: real time    7.5208
  RMM-DIIS:  cpu time   27.2928: real time   27.3575
    ORTHCH:  cpu time    0.6191: real time    0.6206
       DOS:  cpu time    0.0017: real time    0.0017
    CHARGE:  cpu time    3.0800: real time    3.0873
    MIXING:  cpu time    0.0113: real time    0.0113
    --------------------------------------------
      LOOP:  cpu time   38.9001: real time   38.9924

 eigenvalue-minimisations  :  6750
 total energy-change (2. order) :-0.4162441E+01  (-0.1775747E+00)
 number of electron     640.0000098 magnetization      22.4150509
 augmentation part      197.2177294 magnetization      12.5869010

 Broyden mixing:
  rms(total) = 0.75427E+00    rms(broyden)= 0.75427E+00
  rms(prec ) = 0.84528E+00
  weight for this iteration     100.00

 eigenvalues of (default mixing * dielectric matrix)
  average eigenvalue GAMMA=   0.8151
  2.2639  2.2639  1.1596  0.6121  0.6121  0.1084  0.3094  0.3094  0.2844  0.2280

 Free energy of the ion-electron system (eV)
  ---------------------------------------------------
  alpha Z        PSCENC =      2015.86452450
  Ewald energy   TEWEN  =    125270.11727223
  -Hartree energ DENC   =   -175709.93774118
  -exchange      EXHF   =         0.00000000
  -V(xc)+E(xc)   XCENC  =       219.74084668
  PAW double counting   =     60662.77054643   -59068.55697057
  entropy T*S    EENTRO =        -0.01799070
  eigenvalues    EBANDS =      -414.26470144
  atomic energy  EATOM  =     46663.39518770
  Solvation  Ediel_sol  =         0.00000000
  ---------------------------------------------------
  free energy    TOTEN  =      -360.88902634 eV

  energy without entropy =     -360.87103564  energy(sigma->0) =     -360.88302944


--------------------------------------------------------------------------------------------------------




--------------------------------------- Iteration      1(  16)  ---------------------------------------


    POTLOK:  cpu time    0.3757: real time    0.3765
    SETDIJ:  cpu time    0.0322: real time    0.0323
    EDDIAG:  cpu time    7.5732: real time    7.5942
  RMM-DIIS:  cpu time   27.2785: real time   27.3604
    ORTHCH:  cpu time    0.6249: real time    0.6265
       DOS:  cpu time    0.0018: real time    0.0018
    CHARGE:  cpu time    3.0804: real time    3.0885
    MIXING:  cpu time    0.0118: real time    0.0118
    --------------------------------------------
      LOOP:  cpu time   38.9786: real time   39.0920

 eigenvalue-minimisations  :  6755
 total energy-change (2. order) :-0.2452211E+01  (-0.1226110E+00)
 number of electron     640.0000098 magnetization      21.0253792
 augmentation part      197.0983545 magnetization      11.6605410

 Broyden mixing:
  rms(total) = 0.46125E+00    rms(broyden)= 0.46125E+00
  rms(prec ) = 0.50687E+00
  weight for this iteration     100.00

 eigenvalues of (default mixing * dielectric matrix)
  average eigenvalue GAMMA=   0.8815
  2.9435  2.5057  0.8850  0.7374  0.7374  0.6430  0.1084  0.3114  0.3114  0.2821
  0.2308

 Free energy of the ion-electron system (eV)
  ---------------------------------------------------
  alpha Z        PSCENC =      2015.86452450
  Ewald energy   TEWEN  =    125270.11727223
  -Hartree energ DENC   =   -175712.03067427
  -exchange      EXHF   =         0.00000000
  -V(xc)+E(xc)   XCENC  =       218.21242894
  PAW double counting   =     60539.03526172   -58943.45939792
  entropy T*S    EENTRO =         0.00297332
  eigenvalues    EBANDS =      -414.47881307
  atomic energy  EATOM  =     46663.39518770
  Solvation  Ediel_sol  =         0.00000000
  ---------------------------------------------------
  free energy    TOTEN  =      -363.34123686 eV

  energy without entropy =     -363.34421018  energy(sigma->0) =     -363.34222796


--------------------------------------------------------------------------------------------------------




--------------------------------------- Iteration      1(  17)  ---------------------------------------


    POTLOK:  cpu time    0.3797: real time    0.3806
    SETDIJ:  cpu time    0.0322: real time    0.0323
    EDDIAG:  cpu time    7.5085: real time    7.5285
  RMM-DIIS:  cpu time   27.3820: real time   27.4545
    ORTHCH:  cpu time    0.6191: real time    0.6206
       DOS:  cpu time    0.0017: real time    0.0017
    CHARGE:  cpu time    3.0730: real time    3.0810
    MIXING:  cpu time    0.0120: real time    0.0121
    --------------------------------------------
      LOOP:  cpu time   39.0082: real time   39.1113

 eigenvalue-minimisations  :  6758
 total energy-change (2. order) :-0.1334342E+01  (-0.7086469E-01)
 number of electron     640.0000098 magnetization      20.1008694
 augmentation part      197.0208857 magnetization      11.3302743

 Broyden mixing:
  rms(total) = 0.34077E+00    rms(broyden)= 0.34077E+00
  rms(prec ) = 0.38192E+00
  weight for this iteration     100.00

 eigenvalues of (default mixing * dielectric matrix)
  average eigenvalue GAMMA=   0.9139
  3.5128  2.4538  1.0253  1.0253  0.6858  0.6858  0.1084  0.3242  0.3242  0.3222
  0.2731  0.2262

 Free energy of the ion-electron system (eV)
  ---------------------------------------------------
  alpha Z        PSCENC =      2015.86452450
  Ewald energy   TEWEN  =    125270.11727223
  -Hartree energ DENC   =   -175708.50837536
  -exchange      EXHF   =         0.00000000
  -V(xc)+E(xc)   XCENC  =       217.39787572
  PAW double counting   =     60461.72902880   -58865.10069663
  entropy T*S    EENTRO =         0.01378920
  eigenvalues    EBANDS =      -419.58418510
  atomic energy  EATOM  =     46663.39518770
  Solvation  Ediel_sol  =         0.00000000
  ---------------------------------------------------
  free energy    TOTEN  =      -364.67557894 eV

  energy without entropy =     -364.68936814  energy(sigma->0) =     -364.68017534


--------------------------------------------------------------------------------------------------------




--------------------------------------- Iteration      1(  18)  ---------------------------------------


    POTLOK:  cpu time    0.3757: real time    0.3766
    SETDIJ:  cpu time    0.0320: real time    0.0320
    EDDIAG:  cpu time    7.5084: real time    7.5278
  RMM-DIIS:  cpu time   27.3011: real time   27.3824
    ORTHCH:  cpu time    0.6187: real time    0.6202
       DOS:  cpu time    0.0017: real time    0.0017
    CHARGE:  cpu time    3.0691: real time    3.0785
    MIXING:  cpu time    0.0126: real time    0.0127
    --------------------------------------------
      LOOP:  cpu time   38.9191: real time   39.0320

 eigenvalue-minimisations  :  6751
 total energy-change (2. order) :-0.7502321E+00  (-0.3690876E-01)
 number of electron     640.0000098 magnetization      19.2504581
 augmentation part      196.9933126 magnetization      10.9257524

 Broyden mixing:
  rms(total) = 0.25835E+00    rms(broyden)= 0.25835E+00
  rms(prec ) = 0.28580E+00
  weight for this iteration     100.00

 eigenvalues of (default mixing * dielectric matrix)
  average eigenvalue GAMMA=   0.9078
  3.7660  2.3896  1.1517  1.1517  0.6501  0.6501  0.5020  0.1084  0.3252  0.3061
  0.3061  0.2686  0.2264

 Free energy of the ion-electron system (eV)
  ---------------------------------------------------
  alpha Z        PSCENC =      2015.86452450
  Ewald energy   TEWEN  =    125270.11727223
  -Hartree energ DENC   =   -175698.94461358
  -exchange      EXHF   =         0.00000000
  -V(xc)+E(xc)   XCENC  =       216.75909420
  PAW double counting   =     60448.10117592   -58851.12343221
  entropy T*S    EENTRO =         0.02437570
  eigenvalues    EBANDS =      -429.61939550
  atomic energy  EATOM  =     46663.39518770
  Solvation  Ediel_sol  =         0.00000000
  ---------------------------------------------------
  free energy    TOTEN  =      -365.42581106 eV

  energy without entropy =     -365.45018675  energy(sigma->0) =     -365.43393629


--------------------------------------------------------------------------------------------------------




--------------------------------------- Iteration      1(  19)  ---------------------------------------


    POTLOK:  cpu time    0.3780: real time    0.3792
    SETDIJ:  cpu time    0.0325: real time    0.0326
    EDDIAG:  cpu time    7.5152: real time    7.5367
  RMM-DIIS:  cpu time   27.2183: real time   27.2961
    ORTHCH:  cpu time    0.6160: real time    0.6175
       DOS:  cpu time    0.0017: real time    0.0017
    CHARGE:  cpu time    3.0897: real time    3.0984
    MIXING:  cpu time    0.0142: real time    0.0142
    --------------------------------------------
      LOOP:  cpu time   38.8655: real time   38.9763

 eigenvalue-minimisations  :  6754
 total energy-change (2. order) :-0.2963644E+00  (-0.1210341E-01)
 number of electron     640.0000098 magnetization      17.7486834
 augmentation part      197.0138673 magnetization       9.6053755

 Broyden mixing:
  rms(total) = 0.23092E+00    rms(broyden)= 0.23092E+00
  rms(prec ) = 0.25218E+00
  weight for this iteration     100.00

 eigenvalues of (default mixing * dielectric matrix)
  average eigenvalue GAMMA=   0.9214
  4.1676  2.2824  1.2606  1.2606  0.7036  0.7036  0.6680  0.1084  0.3788  0.3092
  0.3092  0.2804  0.2334  0.2334

 Free energy of the ion-electron system (eV)
  ---------------------------------------------------
  alpha Z        PSCENC =      2015.86452450
  Ewald energy   TEWEN  =    125270.11727223
  -Hartree energ DENC   =   -175690.46209874
  -exchange      EXHF   =         0.00000000
  -V(xc)+E(xc)   XCENC  =       216.41358890
  PAW double counting   =     60461.49348785   -58864.68700609
  entropy T*S    EENTRO =         0.02145879
  eigenvalues    EBANDS =      -437.87859062
  atomic energy  EATOM  =     46663.39518770
  Solvation  Ediel_sol  =         0.00000000
  ---------------------------------------------------
  free energy    TOTEN  =      -365.72217547 eV

  energy without entropy =     -365.74363426  energy(sigma->0) =     -365.72932840


--------------------------------------------------------------------------------------------------------




--------------------------------------- Iteration      1(  20)  ---------------------------------------


    POTLOK:  cpu time    0.3828: real time    0.3841
    SETDIJ:  cpu time    0.0324: real time    0.0325
    EDDIAG:  cpu time    7.5139: real time    7.5349
  RMM-DIIS:  cpu time   27.1987: real time   27.2757
    ORTHCH:  cpu time    0.6182: real time    0.6200
       DOS:  cpu time    0.0017: real time    0.0017
    CHARGE:  cpu time    3.0752: real time    3.0838
    MIXING:  cpu time    0.0131: real time    0.0131
    --------------------------------------------
      LOOP:  cpu time   38.8359: real time   38.9457

 eigenvalue-minimisations  :  6744
 total energy-change (2. order) :-0.1810218E+00  (-0.1000782E-01)
 number of electron     640.0000098 magnetization      16.2211977
 augmentation part      197.0778052 magnetization       8.2473364

 Broyden mixing:
  rms(total) = 0.16498E+00    rms(broyden)= 0.16498E+00
  rms(prec ) = 0.18530E+00
  weight for this iteration     100.00

 eigenvalues of (default mixing * dielectric matrix)
  average eigenvalue GAMMA=   1.0219
  5.4523  2.1750  1.4881  1.4881  0.8420  0.7710  0.7710  0.5460  0.1084  0.3471
  0.3096  0.3096  0.2734  0.2292  0.2180

 Free energy of the ion-electron system (eV)
  ---------------------------------------------------
  alpha Z        PSCENC =      2015.86452450
  Ewald energy   TEWEN  =    125270.11727223
  -Hartree energ DENC   =   -175675.80370659
  -exchange      EXHF   =         0.00000000
  -V(xc)+E(xc)   XCENC  =       216.06381392
  PAW double counting   =     60486.77488827   -58890.36062714
  entropy T*S    EENTRO =         0.00982303
  eigenvalues    EBANDS =      -451.96437314
  atomic energy  EATOM  =     46663.39518770
  Solvation  Ediel_sol  =         0.00000000
  ---------------------------------------------------
  free energy    TOTEN  =      -365.90319723 eV

  energy without entropy =     -365.91302026  energy(sigma->0) =     -365.90647157


--------------------------------------------------------------------------------------------------------




--------------------------------------- Iteration      1(  21)  ---------------------------------------


    POTLOK:  cpu time    0.3592: real time    0.3603
    SETDIJ:  cpu time    0.0321: real time    0.0322
    EDDIAG:  cpu time    7.4479: real time    7.4672
  RMM-DIIS:  cpu time   27.3398: real time   27.4092
    ORTHCH:  cpu time    0.6186: real time    0.6202
       DOS:  cpu time    0.0017: real time    0.0017
    CHARGE:  cpu time    3.0380: real time    3.0458
    MIXING:  cpu time    0.0152: real time    0.0152
    --------------------------------------------
      LOOP:  cpu time   38.8526: real time   38.9518

 eigenvalue-minimisations  :  6759
 total energy-change (2. order) :-0.7944804E-01  (-0.6635057E-02)
 number of electron     640.0000098 magnetization      15.4041673
 augmentation part      197.1254295 magnetization       7.7336447

 Broyden mixing:
  rms(total) = 0.13079E+00    rms(broyden)= 0.13079E+00
  rms(prec ) = 0.14384E+00
  weight for this iteration     100.00

 eigenvalues of (default mixing * dielectric matrix)
  average eigenvalue GAMMA=   1.0489
  6.1811  2.1698  1.6480  1.6480  0.8062  0.8062  0.8236  0.5285  0.1084  0.4115
  0.3147  0.3147  0.3014  0.2752  0.2288  0.2163

 Free energy of the ion-electron system (eV)
  ---------------------------------------------------
  alpha Z        PSCENC =      2015.86452450
  Ewald energy   TEWEN  =    125270.11727223
  -Hartree energ DENC   =   -175660.99785845
  -exchange      EXHF   =         0.00000000
  -V(xc)+E(xc)   XCENC  =       215.84313184
  PAW double counting   =     60490.39778946   -58894.00403141
  entropy T*S    EENTRO =        -0.00592042
  eigenvalues    EBANDS =      -466.59274072
  atomic energy  EATOM  =     46663.39518770
  Solvation  Ediel_sol  =         0.00000000
  ---------------------------------------------------
  free energy    TOTEN  =      -365.98264527 eV

  energy without entropy =     -365.97672485  energy(sigma->0) =     -365.98067180


--------------------------------------------------------------------------------------------------------




--------------------------------------- Iteration      1(  22)  ---------------------------------------


    POTLOK:  cpu time    0.3584: real time    0.3592
    SETDIJ:  cpu time    0.0323: real time    0.0324
    EDDIAG:  cpu time    7.4921: real time    7.5113
  RMM-DIIS:  cpu time   27.2486: real time   27.3186
    ORTHCH:  cpu time    0.6187: real time    0.6203
       DOS:  cpu time    0.0016: real time    0.0016
    CHARGE:  cpu time    3.0647: real time    3.0725
    MIXING:  cpu time    0.0133: real time    0.0133
    --------------------------------------------
      LOOP:  cpu time   38.8297: real time   38.9291

 eigenvalue-minimisations  :  6761
 total energy-change (2. order) :-0.2730651E-01  (-0.1839954E-02)
 number of electron     640.0000098 magnetization      14.9549371
 augmentation part      197.1361604 magnetization       7.4194119

 Broyden mixing:
  rms(total) = 0.86740E-01    rms(broyden)= 0.86740E-01
  rms(prec ) = 0.92421E-01
  weight for this iteration     100.00

 eigenvalues of (default mixing * dielectric matrix)
  average eigenvalue GAMMA=   1.0585
  6.6312  2.1091  1.7374  1.7374  0.9225  0.9225  0.6342  0.6117  0.6117  0.1084
  0.3346  0.3135  0.3135  0.2913  0.2728  0.2280  0.2155

 Free energy of the ion-electron system (eV)
  ---------------------------------------------------
  alpha Z        PSCENC =      2015.86452450
  Ewald energy   TEWEN  =    125270.11727223
  -Hartree energ DENC   =   -175654.22322903
  -exchange      EXHF   =         0.00000000
  -V(xc)+E(xc)   XCENC  =       215.74625557
  PAW double counting   =     60492.75297432   -58896.30102419
  entropy T*S    EENTRO =        -0.01085416
  eigenvalues    EBANDS =      -473.35105873
  atomic energy  EATOM  =     46663.39518770
  Solvation  Ediel_sol  =         0.00000000
  ---------------------------------------------------
  free energy    TOTEN  =      -366.00995179 eV

  energy without entropy =     -365.99909763  energy(sigma->0) =     -366.00633373


--------------------------------------------------------------------------------------------------------




--------------------------------------- Iteration      1(  23)  ---------------------------------------


    POTLOK:  cpu time    0.3576: real time    0.3586
    SETDIJ:  cpu time    0.0321: real time    0.0322
    EDDIAG:  cpu time    7.4667: real time    7.4849
  RMM-DIIS:  cpu time   27.3327: real time   27.4097
    ORTHCH:  cpu time    0.6159: real time    0.6178
       DOS:  cpu time    0.0017: real time    0.0017
    CHARGE:  cpu time    3.0461: real time    3.0546
    MIXING:  cpu time    0.0159: real time    0.0159
    --------------------------------------------
      LOOP:  cpu time   38.8688: real time   38.9754

 eigenvalue-minimisations  :  6763
 total energy-change (2. order) :-0.4530964E-01  (-0.7143217E-03)
 number of electron     640.0000098 magnetization      14.4144771
 augmentation part      197.1342866 magnetization       7.0024401

 Broyden mixing:
  rms(total) = 0.63190E-01    rms(broyden)= 0.63190E-01
  rms(prec ) = 0.68897E-01
  weight for this iteration     100.00

 eigenvalues of (default mixing * dielectric matrix)
  average eigenvalue GAMMA=   1.0783
  7.1504  1.9290  1.9290  1.8948  1.0363  1.0363  0.6791  0.6791  0.6146  0.1084
  0.4152  0.3384  0.3123  0.3123  0.2665  0.2665  0.2274  0.2146

 Free energy of the ion-electron system (eV)
  ---------------------------------------------------
  alpha Z        PSCENC =      2015.86452450
  Ewald energy   TEWEN  =    125270.11727223
  -Hartree energ DENC   =   -175648.82113303
  -exchange      EXHF   =         0.00000000
  -V(xc)+E(xc)   XCENC  =       215.65348335
  PAW double counting   =     60499.48329161   -58902.96507658
  entropy T*S    EENTRO =        -0.01246655
  eigenvalues    EBANDS =      -478.77034465
  atomic energy  EATOM  =     46663.39518770
  Solvation  Ediel_sol  =         0.00000000
  ---------------------------------------------------
  free energy    TOTEN  =      -366.05526143 eV

[...]
 -0.000   0.003  -0.025  -0.000   0.000   0.000  -0.002   0.013   0.000  -0.000  -0.009   0.000  -0.000   0.003  -0.000   0.000
 -0.000  -0.000   0.000   0.006  -0.000   0.000   0.000  -0.000  -0.004   0.000   0.000  -0.000  -0.000  -0.000  -0.001   0.000
  0.000   0.000  -0.000  -0.000  -0.000  -0.000  -0.000   0.000   0.000   0.000  -0.000  -0.000   0.000   0.000   0.000  -0.000
  0.000  -0.000  -0.000  -0.000  -0.000  -0.000   0.000  -0.000   0.000  -0.000   0.000  -0.000   0.000  -0.000   0.000  -0.000
 -0.000  -0.000  -0.000   0.000   0.000   0.000   0.000   0.000  -0.000  -0.000  -0.000  -0.000   0.000   0.000   0.000  -0.000


------------------------ aborting loop because EDIFF is reached ----------------------------------------


    CHARGE:  cpu time    3.0668: real time    3.0740
    FORLOC:  cpu time    0.0594: real time    0.0595
    FORNL :  cpu time   12.2548: real time   12.2844
    STRESS:  cpu time   36.4524: real time   36.5482
    FORCOR:  cpu time    0.3973: real time    0.3983
    FORHAR:  cpu time    0.0932: real time    0.0934
    MIXING:  cpu time    0.0102: real time    0.0102
    OFIELD:  cpu time    0.0001: real time    0.0001

 ---------------------------------------------------------------------------------------------

         DFTD3 V3.0 Rev 1        
 Edisp (eV)  -38.64684

 E6    (eV) :   -14.2406
 E8    (eV) :   -24.4063
 % E8        : 63.15
    FORVDW:  cpu time    0.2938: real time    0.2961

  FORCE on cell =-STRESS in cart. coord.  units (eV):
  Direction    XX          YY          ZZ          XY          YZ          ZX
  --------------------------------------------------------------------------------------
  Alpha Z  2015.86452  2015.86452  2015.86452
  Ewald  162757.28966162755.64382************     0.02979    -0.82890    -0.03059
  Hartree173641.29292173640.82021************     0.00817    -0.16920    -0.00632
  E(xc)   -2855.89306 -2855.90669 -2881.55824     0.00027    -0.00956    -0.00036
  Local  ************************358532.94537    -0.03047     0.68565     0.02508
  n-local   578.06130   577.91995   312.71600     0.00216    -0.01826    -0.00082
  augment  3252.48659  3252.65918  3534.35333    -0.00386     0.11615     0.00440
  Kinetic  9148.96035  9149.35369  9743.35084    -0.00801     0.24424     0.00948
  Fock        0.00000     0.00000     0.00000     0.00000     0.00000     0.00000
  vdW       -53.50627   -53.48073   -28.77465    -0.00047    -0.00439    -0.00016
  -------------------------------------------------------------------------------------
  Total      81.22184    81.30156    -1.42924    -0.00242     0.01574     0.00069
  in kB      67.37440    67.44053    -1.18557    -0.00200     0.01305     0.00057
  external pressure =       44.54 kB  Pullay stress =        0.00 kB


 VOLUME and BASIS-vectors are now :
 -----------------------------------------------------------------------------
  energy-cutoff  :      550.00
  volume of cell :     1931.47
      direct lattice vectors                 reciprocal lattice vectors
    10.560000420  0.000000000  0.000000000     0.094696966  0.054673319  0.000000000
    -5.280000210  9.145228627  0.000000000     0.000000000  0.109346638  0.000000000
     0.000000000  0.000000000 20.000000000     0.000000000  0.000000000  0.050000000

  length of vectors
    10.560000420 10.560000420 20.000000000     0.109346638  0.109346638  0.050000000


 FORCES acting on ions
    electron-ion (+dipol)            ewald-force                    non-local-force                 convergence-correction
 -----------------------------------------------------------------------------------------------
   0.410E-01 -.599E+01 0.232E+04   -.292E-01 0.594E+01 -.232E+04   -.282E-01 0.548E-01 -.118E+00   0.435E-02 -.108E-01 0.160E-01
   0.160E+01 -.284E+01 0.770E+03   -.162E+01 0.285E+01 -.769E+03   0.240E-01 -.226E-01 -.404E+00   -.291E-03 0.436E-02 0.101E-01
   0.137E+01 0.760E+00 -.808E+03   -.137E+01 -.762E+00 0.808E+03   0.150E-01 0.801E-02 0.235E+00   -.517E-02 -.250E-02 -.220E-01
   0.203E+01 0.629E+01 -.231E+04   -.199E+01 -.624E+01 0.231E+04   -.483E-01 -.406E-01 0.833E-01   -.115E-01 -.104E-02 -.100E-01
   -.496E+01 -.278E+01 0.230E+04   0.495E+01 0.278E+01 -.230E+04   -.141E-01 -.934E-02 -.834E-01   0.293E-02 0.136E-02 0.327E-02
   0.313E-03 -.183E-01 0.738E+03   -.418E-03 0.178E-01 -.737E+03   0.232E-04 0.240E-02 -.590E+00   -.578E-05 -.742E-03 0.136E-01
   0.668E-02 0.195E+01 -.781E+03   -.679E-02 -.195E+01 0.780E+03   -.217E-03 -.502E-03 0.402E+00   0.164E-03 0.100E-01 -.243E-01
   0.816E+01 0.453E+01 -.231E+04   -.805E+01 -.446E+01 0.231E+04   -.902E-01 -.465E-01 0.101E+00   -.205E-01 -.102E-01 -.435E-01
   -.390E-02 -.724E+01 0.229E+04   0.367E-02 0.720E+01 -.229E+04   0.834E-04 0.492E-01 -.606E-01   0.106E-03 -.244E-02 -.146E-01
   -.325E+01 -.163E-02 0.770E+03   0.327E+01 0.720E-02 -.770E+03   -.331E-01 -.845E-02 -.403E+00   0.396E-02 -.265E-02 0.107E-01
   -.729E+00 0.157E+01 -.771E+03   0.712E+00 -.158E+01 0.770E+03   0.208E-01 0.706E-02 0.433E+00   0.103E-01 0.116E-01 -.117E-01
   0.853E-02 0.745E+01 -.233E+04   -.854E-02 -.741E+01 0.233E+04   0.175E-04 -.306E-01 0.168E+00   -.716E-04 -.151E-02 0.136E-01
   -.454E-01 -.599E+01 0.232E+04   0.335E-01 0.594E+01 -.232E+04   0.290E-01 0.547E-01 -.117E+00   -.439E-02 -.108E-01 0.159E-01
   -.160E+01 -.284E+01 0.770E+03   0.162E+01 0.285E+01 -.769E+03   -.240E-01 -.226E-01 -.404E+00   0.334E-03 0.442E-02 0.100E-01
   -.136E+01 0.757E+00 -.808E+03   0.136E+01 -.759E+00 0.808E+03   -.153E-01 0.782E-02 0.235E+00   0.509E-02 -.274E-02 -.221E-01
   -.201E+01 0.630E+01 -.231E+04   0.197E+01 -.625E+01 0.231E+04   0.480E-01 -.409E-01 0.832E-01   0.115E-01 -.105E-02 -.101E-01
   -.145E+00 -.106E+00 0.232E+04   0.127E+00 0.943E-01 -.232E+04   0.175E-01 0.106E-01 -.133E+00   -.836E-02 -.402E-02 0.150E-01
   -.126E+01 -.715E+00 0.784E+03   0.125E+01 0.710E+00 -.784E+03   0.105E-01 0.600E-02 -.376E+00   0.878E-02 0.514E-02 0.108E-01
   -.172E+01 -.230E+00 -.770E+03   0.172E+01 0.254E+00 0.770E+03   0.495E-02 -.194E-01 0.437E+00   -.460E-02 -.142E-01 -.113E-01
   -.416E-01 0.439E-01 -.230E+04   0.138E-01 -.583E-01 0.231E+04   0.282E-02 -.102E-03 0.103E+00   0.668E-02 0.383E-02 -.116E-01
   0.495E+01 -.278E+01 0.230E+04   -.495E+01 0.278E+01 -.230E+04   0.143E-01 -.945E-02 -.834E-01   -.284E-02 0.151E-02 0.326E-02
   0.211E-02 -.242E+00 0.793E+03   -.195E-02 0.263E+00 -.793E+03   -.187E-03 -.314E-01 -.345E+00   -.151E-03 0.408E-02 0.198E-02
   0.540E-02 0.483E-01 -.775E+03   -.545E-02 -.466E-01 0.775E+03   -.120E-03 -.280E-02 0.379E+00   -.244E-04 -.455E-03 0.233E-01
   -.817E+01 0.452E+01 -.231E+04   0.806E+01 -.446E+01 0.231E+04   0.905E-01 -.465E-01 0.101E+00   0.204E-01 -.103E-01 -.435E-01
   0.723E-02 0.204E+00 0.232E+04   -.712E-02 -.185E+00 -.232E+04   -.290E-03 -.178E-01 -.133E+00   -.112E-03 0.957E-02 0.153E-01
   0.325E+01 0.835E-03 0.770E+03   -.327E+01 0.468E-02 -.770E+03   0.333E-01 -.844E-02 -.403E+00   -.381E-02 -.265E-02 0.107E-01
   0.718E+00 0.157E+01 -.771E+03   -.701E+00 -.159E+01 0.770E+03   -.209E-01 0.695E-02 0.433E+00   -.105E-01 0.116E-01 -.118E-01
   -.546E-02 -.942E-01 -.231E+04   0.539E-02 0.127E+00 0.231E+04   0.353E-03 -.306E-02 0.104E+00   0.690E-04 -.711E-02 -.115E-01
   0.147E+00 -.103E+00 0.232E+04   -.129E+00 0.908E-01 -.232E+04   -.172E-01 0.106E-01 -.132E+00   0.834E-02 -.405E-02 0.150E-01
   0.126E+01 -.718E+00 0.784E+03   -.125E+01 0.713E+00 -.784E+03   -.103E-01 0.613E-02 -.376E+00   -.883E-02 0.523E-02 0.107E-01
   0.172E+01 -.239E+00 -.771E+03   -.172E+01 0.263E+00 0.770E+03   -.530E-02 -.186E-01 0.437E+00   0.464E-02 -.143E-01 -.112E-01
   0.307E-01 0.486E-01 -.230E+04   -.291E-02 -.631E-01 0.231E+04   -.266E-02 -.322E-03 0.103E+00   -.662E-02 0.400E-02 -.116E-01
   -.512E+01 0.299E+01 0.232E+04   0.508E+01 -.295E+01 -.232E+04   0.305E-01 -.495E-01 -.118E+00   -.811E-02 0.945E-02 0.158E-01
   -.164E+01 0.281E+01 0.770E+03   0.164E+01 -.283E+01 -.769E+03   -.781E-02 0.343E-01 -.404E+00   0.368E-02 -.210E-02 0.110E-01
   0.384E+00 0.346E+00 -.763E+03   -.376E+00 -.339E+00 0.763E+03   -.185E-01 -.125E-01 0.397E+00   -.213E-03 -.510E-03 -.508E-02
   0.631E+01 -.125E+01 -.231E+04   -.625E+01 0.126E+01 0.231E+04   -.583E-01 -.250E-01 0.841E-01   -.613E-02 -.100E-01 -.109E-01
   -.978E-02 -.557E-01 0.232E+04   0.975E-02 0.523E-01 -.232E+04   0.184E-03 0.206E-02 -.946E-01   -.289E-04 0.205E-03 0.174E-01
   0.188E+00 0.875E-01 0.793E+03   -.206E+00 -.994E-01 -.793E+03   0.276E-01 0.177E-01 -.346E+00   -.411E-02 -.188E-02 0.143E-02
   0.173E+01 -.102E+01 -.780E+03   -.173E+01 0.102E+01 0.780E+03   0.151E-03 -.379E-03 0.404E+00   0.843E-02 -.493E-02 -.234E-01
   0.350E-03 -.680E-01 -.229E+04   -.428E-03 0.694E-01 0.229E+04   0.137E-03 0.556E-02 0.674E-01   0.437E-04 -.474E-03 -.247E-01
   -.516E+01 0.290E+01 0.232E+04   0.511E+01 -.289E+01 -.232E+04   0.597E-01 0.165E-03 -.118E+00   -.126E-01 0.232E-02 0.159E-01
   0.109E-02 -.176E+01 0.790E+03   -.111E-02 0.178E+01 -.790E+03   0.186E-03 -.908E-02 -.344E+00   0.343E-04 -.262E-02 0.506E-02
   -.118E-01 -.168E+01 -.808E+03   0.119E-01 0.168E+01 0.808E+03   0.412E-03 -.167E-01 0.236E+00   -.485E-04 0.621E-02 -.210E-01
   0.427E+01 -.472E+01 -.231E+04   -.426E+01 0.467E+01 0.231E+04   -.970E-02 0.602E-01 0.846E-01   0.582E-02 0.844E-02 -.106E-01
   -.635E+01 0.364E+01 0.229E+04   0.631E+01 -.362E+01 -.229E+04   0.439E-01 -.221E-01 -.603E-01   -.183E-02 0.851E-03 -.150E-01
   -.155E+01 0.893E+00 0.790E+03   0.156E+01 -.903E+00 -.790E+03   -.381E-02 0.385E-02 -.346E+00   -.258E-02 0.185E-02 0.528E-02
   0.943E+00 -.128E+01 -.771E+03   -.967E+00 0.128E+01 0.770E+03   0.186E-01 0.135E-01 0.435E+00   0.153E-01 0.237E-02 -.116E-01
   0.660E+01 -.389E+01 -.233E+04   -.657E+01 0.387E+01 0.233E+04   -.324E-01 0.201E-01 0.166E+00   -.236E-02 0.140E-02 0.123E-01
   0.635E+01 0.365E+01 0.229E+04   -.631E+01 -.362E+01 -.229E+04   -.442E-01 -.222E-01 -.604E-01   0.188E-02 0.846E-03 -.149E-01
   0.155E+01 0.891E+00 0.790E+03   -.156E+01 -.900E+00 -.790E+03   0.434E-02 0.382E-02 -.345E+00   0.256E-02 0.182E-02 0.534E-02
   -.954E+00 -.127E+01 -.771E+03   0.978E+00 0.126E+01 0.770E+03   -.189E-01 0.130E-01 0.436E+00   -.154E-01 0.247E-02 -.117E-01
   -.660E+01 -.390E+01 -.233E+04   0.656E+01 0.388E+01 0.233E+04   0.319E-01 0.205E-01 0.166E+00   0.219E-02 0.149E-02 0.124E-01
   -.215E-02 0.565E+01 0.230E+04   0.192E-02 -.565E+01 -.230E+04   0.317E-03 0.190E-01 -.832E-01   0.154E-03 -.284E-02 0.307E-02
   -.185E+00 0.966E-01 0.793E+03   0.202E+00 -.108E+00 -.793E+03   -.278E-01 0.173E-01 -.346E+00   0.400E-02 -.203E-02 0.150E-02
   -.172E+01 -.105E+01 -.780E+03   0.172E+01 0.105E+01 0.780E+03   -.168E-03 0.192E-03 0.404E+00   -.828E-02 -.490E-02 -.236E-01
   -.594E-02 -.919E+01 -.231E+04   0.610E-02 0.907E+01 0.231E+04   -.245E-04 0.976E-01 0.997E-01   -.372E-04 0.226E-01 -.432E-01
   0.517E+01 0.290E+01 0.232E+04   -.512E+01 -.289E+01 -.232E+04   -.600E-01 0.205E-03 -.118E+00   0.125E-01 0.224E-02 0.159E-01
   -.546E-02 0.142E+01 0.784E+03   0.532E-02 -.141E+01 -.783E+03   0.202E-03 -.993E-02 -.375E+00   0.522E-04 -.101E-01 0.113E-01
   0.638E-02 -.439E+00 -.763E+03   -.618E-02 0.430E+00 0.763E+03   -.752E-04 0.207E-01 0.394E+00   -.842E-04 -.631E-03 -.434E-02
   -.427E+01 -.473E+01 -.231E+04   0.425E+01 0.468E+01 0.231E+04   0.946E-02 0.608E-01 0.842E-01   -.567E-02 0.847E-02 -.105E-01
   0.512E+01 0.300E+01 0.232E+04   -.508E+01 -.297E+01 -.232E+04   -.305E-01 -.502E-01 -.117E+00   0.803E-02 0.938E-02 0.158E-01
   0.163E+01 0.280E+01 0.770E+03   -.164E+01 -.283E+01 -.769E+03   0.816E-02 0.341E-01 -.404E+00   -.364E-02 -.207E-02 0.110E-01
   -.369E+00 0.354E+00 -.763E+03   0.361E+00 -.347E+00 0.763E+03   0.178E-01 -.129E-01 0.396E+00   0.205E-03 -.675E-03 -.522E-02
   -.631E+01 -.125E+01 -.231E+04   0.625E+01 0.127E+01 0.231E+04   0.584E-01 -.249E-01 0.839E-01   0.622E-02 -.998E-02 -.108E-01
 -----------------------------------------------------------------------------------------------
   -.874E-04 -.189E-02 0.202E+00   0.290E-12 0.751E-12 0.455E-11   0.722E-03 0.335E-01 -.682E-01   -.833E-05 -.191E-04 -.158E+00
 
 
 POSITION                                       TOTAL-FORCE (eV/Angst)
 -----------------------------------------------------------------------------------
      0.00130      0.00034      1.10268        -0.010281     -0.012087     -0.004290
      2.64017      1.52518      3.57115         0.001982     -0.003590      0.005027
      0.00029      3.05017      6.01384         0.012406      0.005339     -0.032727
      0.00116      0.00188      8.38260        -0.019872     -0.001278     -0.007115
     -1.31805      2.28704      1.13361        -0.008888     -0.007439      0.004022
      1.31997      3.81067      3.62908        -0.000100      0.000760     -0.001882
      1.32005      0.76665      5.96189        -0.000185      0.003619      0.008139
     -1.32063      2.28806      8.39428        -0.001094      0.005610      0.005000
      1.31995      2.28706      1.15284        -0.000051      0.000963      0.029344
     -1.31943      3.81028      3.57081        -0.004628     -0.000804      0.003671
      3.95999      0.76392      5.94287         0.007863      0.002478      0.015569
      1.32004      2.28681      8.44499        -0.000070      0.005934      0.026291
      2.63859      0.00034      1.10273         0.010805     -0.012172     -0.004025
     -0.00022      1.52518      3.57114        -0.002092     -0.003552      0.005017
      2.63979      3.05019      6.01385        -0.012731      0.005253     -0.033138
      2.63896      0.00189      8.38257         0.019709     -0.001577     -0.007043
      5.27980     -0.00053      1.10714        -0.011348     -0.007297     -0.002890
      7.91802      1.52336      3.54627         0.016999      0.008747     -0.001911
      5.27999      3.05018      5.94239         0.003414     -0.004758      0.018536
      5.27973      0.00220      8.37963        -0.019296     -0.011743     -0.011996
      3.95795      2.28704      1.13361         0.009016     -0.007555      0.004159
      6.59998      3.81152      3.52956        -0.000172     -0.002079      0.003961
      6.60004      0.76400      5.94853        -0.000203     -0.002047     -0.036442
      3.96069      2.28805      8.39422         0.001398      0.005598      0.005237
      6.59996      2.28594      1.10693        -0.000301      0.013100     -0.003427
      3.95936      3.81028      3.57081         0.004727     -0.000836      0.003596
      9.24009      0.76392      5.94286        -0.007773      0.002410      0.015877
      6.60002      2.28909      8.37974         0.000329      0.023086     -0.011943
      7.92008     -0.00053      1.10715         0.011576     -0.007403     -0.002754
      5.28191      1.52336      3.54627        -0.016982      0.008818     -0.001872
      7.92011      3.05014      5.94240        -0.003508     -0.004047      0.018383
      7.92037      0.00221      8.37957         0.019551     -0.011892     -0.011787
     -2.63861      4.57284      1.10205        -0.016943     -0.003132     -0.003907
      0.00067      6.09679      3.57087        -0.002155      0.003269      0.004308
     -2.63802      7.62398      5.93099        -0.013337     -0.008763     -0.014617
     -2.63968      4.57618      8.38233        -0.009801     -0.019332     -0.007285
      6.59994      6.85839      1.09942         0.000119     -0.001579     -0.011394
     -1.32059      8.38292      3.52994         0.001459      0.001070      0.004528
     -1.31751      5.33508      5.96153         0.002690     -0.001310      0.009083
     -3.95996      6.86085      8.35174         0.000084      0.005867      0.020041
     -1.31996      6.85692      1.10214        -0.005815      0.014109     -0.004037
     -3.96002      8.38443      3.53398         0.000196     -0.001125     -0.022519
      1.32002      5.33607      6.01336         0.000419     -0.013118     -0.031556
     -1.32085      6.86063      8.38322         0.009673      0.018724     -0.008350
      0.00096      4.57157      1.15254         0.002307     -0.000681      0.029394
     -2.63917      6.09655      3.53379         0.003542     -0.002173     -0.022962
     -0.00011      7.62283      5.94262         0.006518      0.005794      0.017431
     -0.00112      4.57559      8.44347         0.000087      0.001236      0.026417
      2.63896      4.57158      1.15254        -0.002735     -0.000772      0.029336
      5.27912      6.09656      3.53374        -0.003001     -0.002149     -0.022619
      2.64021      7.62285      5.94259        -0.006599      0.005128      0.017858
      2.64125      4.57557      8.44347        -0.000465      0.001653      0.026111
      1.31994      6.85616      1.13382         0.000231      0.009801      0.003775
      3.96055      8.38295      3.52988        -0.001773      0.000759      0.004571
      3.95759      5.33506      5.96146        -0.002710     -0.000647      0.009211
      1.32007      6.86227      8.39369         0.000087     -0.002629      0.003856
      3.95985      6.85692      1.10213         0.005390      0.014268     -0.004155
      1.31996      8.38555      3.54632         0.000112     -0.018773     -0.001741
      6.60005      5.33427      5.93101         0.000027      0.014565     -0.016843
      3.96097      6.86060      8.38322        -0.009756      0.019161     -0.008778
      5.27853      4.57286      1.10210         0.016983     -0.003781     -0.003873
      2.63925      6.09679      3.57085         0.002326      0.003215      0.004509
      5.27812      7.62400      5.93096         0.012604     -0.009003     -0.014987
      5.27978      4.57616      8.38233         0.010035     -0.019210     -0.007392
 -----------------------------------------------------------------------------------
    total drift:                                0.000626      0.031646     -0.024498


--------------------------------------------------------------------------------------------------------



  FREE ENERGIE OF THE ION-ELECTRON SYSTEM (eV)
  ---------------------------------------------------
  free  energy   TOTEN  =      -405.09023099 eV

  energy  without entropy=     -405.07127984  energy(sigma->0) =     -405.08391394
 
 d Force = 0.6375886E-03[ 0.370E-03, 0.905E-03]  d Energy = 0.6827171E-03-0.451E-04
 d Force =-0.1634487E+02[-0.163E+02,-0.164E+02]  d Ewald  =-0.1634487E+02 0.108E-05


--------------------------------------------------------------------------------------------------------


    POTLOK:  cpu time    0.4050: real time    0.4062


--------------------------------------------------------------------------------------------------------




--------------------------------------------------------------------------------------------------------


  
 reached required accuracy - stopping structural energy minimisation
     LOOP+:  cpu time  382.4128: real time  383.4675
    4ORBIT:  cpu time    0.0000: real time    0.0000

 total amount of memory used by VASP MPI-rank0   198142. kBytes
=======================================================================

   base      :      30000. kBytes
   nonlr-proj:      30733. kBytes
   fftplans  :      17093. kBytes
   grid      :      42083. kBytes
   one-center:        497. kBytes
   wavefun   :      77736. kBytes
 
  
  
 General timing and accounting informations for this job:
 ========================================================
  
                  Total CPU time used (sec):     6711.618
                            User time (sec):     6702.298
                          System time (sec):        9.319
                         Elapsed time (sec):     6730.166
  
                   Maximum memory used (kb):      683528.
                   Average memory used (kb):           0.
  
                          Minor page faults:      2265682
                          Major page faults:            0
                 Voluntary context switches:         4110
