 vasp.5.4.4.18Apr17-6-g9f103f2a35 (build Nov 30 2020 22:55:02) complex          
  
 executed on             LinuxIFC date 2023.09.08  08:43:24
 running on   40 total cores
 distrk:  each k-point on   40 cores,    1 groups
 distr:  one band on NCORES_PER_BAND=   4 cores,   10 groups


--------------------------------------------------------------------------------------------------------


 INCAR:
 POTCAR:    PAW_PBE Co 02Aug2007                  
 POTCAR:    PAW_PBE Pt 04Feb2005                  
 POTCAR:    PAW_PBE H 15Jun2001                   
 POTCAR:    PAW_PBE Co 02Aug2007                  
   VRHFIN =Co: d8 s1                                                            
   LEXCH  = PE                                                                  
   EATOM  =   813.3670 eV,   59.7808 Ry                                         
                                                                                
   TITEL  = PAW_PBE Co 02Aug2007                                                
   LULTRA =        F    use ultrasoft PP ?                                      
   IUNSCR =        1    unscreen: 0-lin 1-nonlin 2-no                           
   RPACOR =    2.000    partial core radius                                     
   POMASS =   58.933; ZVAL   =    9.000    mass and valenz                      
   RCORE  =    2.300    outmost cutoff radius                                   
   RWIGS  =    2.460; RWIGS  =    1.302    wigner-seitz radius (au A)           
   ENMAX  =  267.968; ENMIN  =  200.976 eV                                      
   RCLOC  =    1.203    cutoff for local pot                                    
   LCOR   =        T    correct aug charges                                     
   LPAW   =        T    paw PP                                                  
   EAUG   =  477.818                                                            
   DEXC   =    0.000                                                            
   RMAX   =    2.360    core radius for proj-oper                               
   RAUG   =    1.300    factor for augmentation sphere                          
   RDEP   =    2.393    radius for radial grids                                 
   RDEPT  =    1.864    core radius for aug-charge                              
                                                                                
   Atomic configuration                                                         
    9 entries                                                                   
     n  l   j            E        occ.                                          
     1  0  0.50     -7587.6674   2.0000                                         
     2  0  0.50      -893.6084   2.0000                                         
     2  1  1.50      -764.5805   6.0000                                         
     3  0  0.50       -97.5973   2.0000                                         
     3  1  1.50       -60.9648   6.0000                                         
     3  2  2.50        -4.2382   8.0000                                         
     4  0  0.50        -4.3746   1.0000                                         
     4  1  1.50        -4.0817   0.0000                                         
     4  3  2.50        -1.3606   0.0000                                         
   Description                                                                  
     l       E           TYP  RCUT    TYP  RCUT                                 
     2     -4.2382362     23  2.300                                             
     2     -5.5988188     23  2.300                                             
     0     -4.3745797     23  2.300                                             
     0      5.7660125     23  2.300                                             
     1     -2.7211652     23  2.300                                             
     1     16.9860234     23  2.300                                             
  local pseudopotential read in
  partial core-charges read in
  partial kinetic energy density read in
  atomic valenz-charges read in
  non local Contribution for L=           2  read in
    real space projection operators read in
  non local Contribution for L=           2  read in
    real space projection operators read in
  non local Contribution for L=           0  read in
    real space projection operators read in
  non local Contribution for L=           0  read in
    real space projection operators read in
  non local Contribution for L=           1  read in
    real space projection operators read in
  non local Contribution for L=           1  read in
    real space projection operators read in
    PAW grid and wavefunctions read in
 
   number of l-projection  operators is LMAX  =           6
   number of lm-projection operators is LMMAX =          18
 
 POTCAR:    PAW_PBE Pt 04Feb2005                  
   VRHFIN =Pt: s1d9                                                             
   LEXCH  = PE                                                                  
   EATOM  =   729.1176 eV,   53.5886 Ry                                         
                                                                                
   TITEL  = PAW_PBE Pt 04Feb2005                                                
   LULTRA =        F    use ultrasoft PP ?                                      
   IUNSCR =        1    unscreen: 0-lin 1-nonlin 2-no                           
   RPACOR =    2.330    partial core radius                                     
   POMASS =  195.080; ZVAL   =   10.000    mass and valenz                      
   RCORE  =    2.600    outmost cutoff radius                                   
   RWIGS  =    2.750; RWIGS  =    1.455    wigner-seitz radius (au A)           
   ENMAX  =  230.283; ENMIN  =  172.712 eV                                      
   ICORE  =        3    local potential                                         
   LCOR   =        T    correct aug charges                                     
   LPAW   =        T    paw PP                                                  
   EAUG   =  358.966                                                            
   DEXC   =    0.000                                                            
   RMAX   =    2.658    core radius for proj-oper                               
   RAUG   =    1.300    factor for augmentation sphere                          
   RDEP   =    2.761    radius for radial grids                                 
   RDEPT  =    2.203    core radius for aug-charge                              
                                                                                
   Atomic configuration                                                         
   16 entries                                                                   
     n  l   j            E        occ.                                          
     1  0  0.50    -78401.1885   2.0000                                         
     2  0  0.50    -13770.7750   2.0000                                         
     2  1  1.50    -11931.0468   6.0000                                         
     3  0  0.50     -3234.7234   2.0000                                         
     3  1  1.50     -2699.2216   6.0000                                         
     3  2  2.50     -2119.5714  10.0000                                         
     4  0  0.50      -695.1528   2.0000                                         
     4  1  1.50      -519.6034   6.0000                                         
     4  2  2.50      -306.6786  10.0000                                         
     4  3  3.50       -70.1041  14.0000                                         
     5  0  0.50      -101.7747   2.0000                                         
     5  1  1.50       -55.9873   6.0000                                         
     5  2  2.50        -6.1423   9.0000                                         
     6  0  0.50        -5.6573   1.0000                                         
     6  1  1.50        -6.8029   0.0000                                         
     5  3  2.50        -1.3606   0.0000                                         
   Description                                                                  
     l       E           TYP  RCUT    TYP  RCUT                                 
     2     -6.1423404     23  2.500                                             
     2     -7.5029230     23  2.500                                             
     0     -5.6573207     23  2.500                                             
     0      0.7416693     23  2.500                                             
     1     -2.7211652     23  2.600                                             
     1     20.4087390     23  2.600                                             
     3     -1.3605826     23  2.500                                             
  local pseudopotential read in
  partial core-charges read in
  partial kinetic energy density read in
  atomic valenz-charges read in
  non local Contribution for L=           2  read in
    real space projection operators read in
  non local Contribution for L=           2  read in
    real space projection operators read in
  non local Contribution for L=           0  read in
    real space projection operators read in
  non local Contribution for L=           0  read in
    real space projection operators read in
  non local Contribution for L=           1  read in
    real space projection operators read in
  non local Contribution for L=           1  read in
    real space projection operators read in
    PAW grid and wavefunctions read in
 
   number of l-projection  operators is LMAX  =           6
   number of lm-projection operators is LMMAX =          18
 
 POTCAR:    PAW_PBE H 15Jun2001                   
   VRHFIN =H: ultrasoft test                                                    
   LEXCH  = PE                                                                  
   EATOM  =    12.4884 eV,    0.9179 Ry                                         
                                                                                
   TITEL  = PAW_PBE H 15Jun2001                                                 
   LULTRA =        F    use ultrasoft PP ?                                      
   IUNSCR =        0    unscreen: 0-lin 1-nonlin 2-no                           
   RPACOR =    0.000    partial core radius                                     
   POMASS =    1.000; ZVAL   =    1.000    mass and valenz                      
   RCORE  =    1.100    outmost cutoff radius                                   
   RWIGS  =    0.700; RWIGS  =    0.370    wigner-seitz radius (au A)           
   ENMAX  =  250.000; ENMIN  =  200.000 eV                                      
   RCLOC  =    0.701    cutoff for local pot                                    
   LCOR   =        T    correct aug charges                                     
   LPAW   =        T    paw PP                                                  
   EAUG   =  400.000                                                            
   RMAX   =    1.123    core radius for proj-oper                               
   RAUG   =    1.200    factor for augmentation sphere                          
   RDEP   =    1.112    radius for radial grids                                 
   RDEPT  =    0.926    core radius for aug-charge                              
                                                                                
   Atomic configuration                                                         
    2 entries                                                                   
     n  l   j            E        occ.                                          
     1  0  0.50        -6.4927   1.0000                                         
     2  1  0.50        -3.4015   0.0000                                         
   Description                                                                  
     l       E           TYP  RCUT    TYP  RCUT                                 
     0     -6.4927494     23  1.100                                             
     0      6.8029130     23  1.100                                             
     1     -4.0817478     23  1.100                                             
  local pseudopotential read in
  atomic valenz-charges read in
  non local Contribution for L=           0  read in
    real space projection operators read in
  non local Contribution for L=           0  read in
    real space projection operators read in
  non local Contribution for L=           1  read in
    real space projection operators read in
    PAW grid and wavefunctions read in
 
   number of l-projection  operators is LMAX  =           3
   number of lm-projection operators is LMMAX =           5
 
 Optimization of the real space projectors (new method)

 maximal supplied QI-value         = 16.25
 optimisation between [QCUT,QGAM] = [ 11.86, 23.89] = [ 39.41,159.82] Ry 
 Optimized for a Real-space Cutoff    1.33 Angstroem

   l    n(q)    QCUT    max X(q) W(low)/X(q) W(high)/X(q)  e(spline) 
   2      9    11.864    65.824    0.22E-03    0.53E-03    0.26E-06
   2      9    11.864    61.429    0.22E-03    0.53E-03    0.26E-06
   0      9    11.864    56.174    0.21E-03    0.32E-04    0.15E-06
   0      9    11.864    31.263    0.19E-03    0.30E-04    0.14E-06
   1      9    11.864    19.828    0.63E-04    0.30E-03    0.16E-06
   1      9    11.864    15.139    0.49E-04    0.25E-03    0.13E-06
 Optimization of the real space projectors (new method)

 maximal supplied QI-value         = 14.36
 optimisation between [QCUT,QGAM] = [ 11.92, 23.98] = [ 39.79,161.09] Ry 
 Optimized for a Real-space Cutoff    1.49 Angstroem

   l    n(q)    QCUT    max X(q) W(low)/X(q) W(high)/X(q)  e(spline) 
   2     10    11.920    66.195    0.79E-04    0.18E-03    0.24E-06
   2     10    11.920    64.643    0.81E-04    0.19E-03    0.24E-06
   0     11    11.920    95.520    0.28E-04    0.54E-04    0.18E-06
   0     11    11.920    63.403    0.27E-04    0.52E-04    0.17E-06
   1     10    11.920    19.961    0.18E-04    0.11E-03    0.23E-06
   1     10    11.920    13.289    0.25E-04    0.87E-04    0.19E-06
 Optimization of the real space projectors (new method)

 maximal supplied QI-value         = 34.20
 optimisation between [QCUT,QGAM] = [ 11.97, 23.94] = [ 40.13,160.53] Ry 
 Optimized for a Real-space Cutoff    1.18 Angstroem

   l    n(q)    QCUT    max X(q) W(low)/X(q) W(high)/X(q)  e(spline) 
   0      8    11.971    19.460    0.15E-03    0.31E-03    0.25E-06
   0      8    11.971    12.209    0.13E-03    0.29E-03    0.25E-06
   1      8    11.971     4.655    0.22E-03    0.24E-03    0.21E-06
  PAW_PBE Co 02Aug2007                  :
 energy of atom  1       EATOM= -813.3670
 kinetic energy error for atom=    0.0026 (will be added to EATOM!!)
  PAW_PBE Pt 04Feb2005                  :
 energy of atom  2       EATOM= -729.1176
 kinetic energy error for atom=    0.0021 (will be added to EATOM!!)
  PAW_PBE H 15Jun2001                   :
 energy of atom  3       EATOM=  -12.4884
 kinetic energy error for atom=    0.0008 (will be added to EATOM!!)
 
 
 POSCAR: PtM\(2)                                 
  positions in cartesian coordinates
  No initial velocities read in
 exchange correlation table for  LEXCH =        8
   RHO(1)=    0.500       N(1)  =     2000
   RHO(2)=  100.500       N(2)  =     4000
 


--------------------------------------------------------------------------------------------------------


 ion  position               nearest neighbor table
   1  0.785  0.869  0.311-  55 2.42  20 2.42  39 2.42  65 2.63  73 2.63  72 2.63  40 2.64   3 2.64
                             2 2.64  57 2.64  56 2.64  29 2.64
   2  0.035  0.869  0.311-  49 2.42  39 2.42  52 2.42  67 2.63  77 2.63  65 2.63  41 2.64   1 2.64
                            33 2.64   3 2.64  23 2.64  56 2.64
   3  0.035  0.619  0.311-  39 2.42  12 2.42  60 2.42  77 2.63  66 2.63  73 2.64  15 2.64   1 2.64
                            41 2.64  40 2.64   2 2.64   9 2.64
   4  0.787  0.868  0.051-  21 2.41  62 2.41  19 2.41   5 2.64   6 2.64  42 2.64  59 2.64  58 2.64
                            30 2.64
   5  0.037  0.868  0.051-  54 2.41  35 2.41  62 2.41  58 2.64  24 2.64   4 2.64  43 2.64   6 2.64
                            34 2.64
   6  0.037  0.618  0.051-  32 2.41  54 2.41  21 2.41  43 2.64  10 2.64  18 2.64   4 2.64  42 2.64
                             5 2.64
   7  0.620  0.202  0.136-  28 2.41  30 2.41  58 2.41  55 2.49  63 2.50  64 2.51  62 2.64  11 2.64
                            37 2.64  19 2.64  45 2.64  22 2.64
   8  0.370  0.952  0.136-  16 2.41  24 2.41  59 2.41  50 2.50  53 2.50  26 2.51  38 2.64  25 2.64
                            44 2.64  19 2.64  37 2.64  35 2.64
   9  0.035  0.369  0.311-  12 2.42  61 2.42  46 2.42  71 2.63  66 2.63  68 2.64  33 2.64  15 2.64
                            40 2.64   3 2.64  13 2.64  47 2.64
  10  0.037  0.368  0.051-  38 2.41  32 2.41  31 2.41   6 2.64  48 2.64  34 2.64  18 2.64  42 2.64
                            16 2.64
  11  0.870  0.202  0.136-  48 2.41  58 2.41  34 2.41  49 2.49  61 2.50  63 2.51  35 2.64   7 2.64
                            22 2.64  38 2.64  31 2.64  62 2.64
  12  0.952  0.536  0.226-   9 2.42   3 2.42  40 2.42  21 2.50  31 2.50  32 2.50  39 2.64  20 2.64
                            61 2.64  51 2.64  46 2.64  60 2.64
  13  0.285  0.119  0.311-  46 2.42  26 2.42  53 2.42  69 2.63  74 2.63  71 2.64  23 2.64  15 2.64
                            29 2.64  33 2.64  57 2.64   9 2.64
  14  0.535  0.619  0.311-  36 2.42  50 2.42  51 2.42  80 2.63  76 2.63  75 2.63  23 2.64  47 2.64
                            41 2.64  57 2.64  27 2.64  40 2.64
  15  0.285  0.369  0.311-  46 2.42  60 2.42  64 2.42  74 2.63  79 2.63  66 2.64   3 2.64   9 2.64
                            13 2.64  29 2.64  41 2.64  27 2.64
  16  0.287  0.118  0.051-   8 2.41  37 2.41  38 2.41  18 2.64  30 2.64  59 2.64  34 2.64  10 2.64
                            24 2.64
  17  0.536  0.618  0.051-  22 2.41  25 2.41  44 2.41  43 2.64  28 2.64  24 2.64  59 2.64  48 2.64
                            42 2.64
  18  0.287  0.368  0.051-  37 2.41  45 2.41  32 2.41  16 2.64   6 2.64  43 2.64  10 2.64  28 2.64
                            30 2.64
  19  0.620  0.952  0.136-  30 2.41  59 2.41   4 2.41  20 2.50  55 2.50  53 2.51  62 2.64  21 2.64
                            37 2.64   7 2.64  25 2.64   8 2.64
  20  0.702  0.786  0.226-  40 2.42   1 2.42  57 2.42  19 2.50  25 2.50  21 2.51  50 2.64  51 2.64
                            12 2.64  55 2.64  53 2.64  39 2.64
  21  0.870  0.702  0.136-   4 2.41  42 2.41   6 2.41  12 2.50  39 2.50  20 2.51  31 2.64  19 2.64
                            62 2.64  25 2.64  32 2.64  54 2.64
  22  0.620  0.452  0.136-  17 2.41  28 2.41  48 2.41  63 2.49  51 2.50  36 2.51  31 2.64  25 2.64
                            45 2.64  11 2.64  44 2.64   7 2.64
  23  0.285  0.869  0.311-  26 2.42  52 2.42  50 2.42  69 2.63  75 2.63  67 2.64  14 2.64  13 2.64
                            57 2.64   2 2.64  33 2.64  41 2.64
  24  0.286  0.868  0.051-  44 2.41   8 2.41  35 2.41  34 2.64   5 2.64  17 2.64  43 2.64  59 2.64
                            16 2.64
  25  0.620  0.702  0.136-  59 2.41  17 2.41  42 2.41  51 2.50  20 2.50  50 2.51  22 2.64  31 2.64
                             8 2.64  44 2.64  19 2.64  21 2.64
  26  0.202  0.036  0.226-  23 2.42  13 2.42  33 2.42  38 2.49  35 2.50   8 2.51  53 2.64  52 2.64
                            46 2.64  50 2.64  49 2.64  61 2.64
  27  0.535  0.369  0.311-  64 2.42  36 2.42  63 2.42  78 2.63  76 2.63  79 2.63  41 2.64  29 2.64
                            47 2.64  15 2.64  14 2.64  56 2.64
  28  0.537  0.368  0.051-   7 2.41  22 2.41  45 2.41  30 2.64  58 2.64  17 2.64  18 2.64  48 2.64
                            43 2.64
  29  0.535  0.119  0.311-  64 2.42  53 2.42  55 2.42  78 2.63  72 2.63  74 2.63  27 2.64  13 2.64
                            15 2.64  57 2.64  56 2.64   1 2.64
  30  0.537  0.118  0.051-  19 2.41   7 2.41  37 2.41  28 2.64  16 2.64  59 2.64  58 2.64  18 2.64
                             4 2.64
  31  0.870  0.452  0.136-  42 2.41  48 2.41  10 2.41  61 2.50  12 2.50  51 2.51  22 2.64  21 2.64
                            25 2.64  11 2.64  32 2.64  38 2.64
  32  0.120  0.452  0.136-   6 2.41  10 2.41  18 2.41  46 2.49  60 2.50  12 2.50  38 2.64  54 2.64
                            21 2.64  37 2.64  45 2.64  31 2.64
  33  0.035  0.119  0.311-  61 2.42  49 2.42  26 2.42  67 2.63  71 2.63  70 2.63   9 2.64   2 2.64
                            56 2.64  13 2.64  47 2.64  23 2.64
  34  0.037  0.118  0.051-  35 2.41  38 2.41  11 2.41  24 2.64  10 2.64  48 2.64  16 2.64  58 2.64
                             5 2.64
  35  0.120  0.952  0.136-  34 2.41   5 2.41  24 2.41  52 2.50  26 2.50  49 2.50  11 2.64  38 2.64
                            54 2.64  44 2.64   8 2.64  62 2.64
  36  0.452  0.536  0.226-  27 2.42  14 2.42  41 2.42  44 2.50  45 2.50  22 2.51  52 2.64  51 2.64
                            63 2.64  50 2.64  60 2.64  64 2.64
  37  0.370  0.202  0.136-  18 2.41  16 2.41  30 2.41  53 2.49  64 2.50  46 2.51   7 2.64  19 2.64
                             8 2.64  45 2.64  32 2.64  38 2.64
  38  0.120  0.202  0.136-  10 2.41  34 2.41  16 2.41  26 2.49  46 2.50  61 2.51   8 2.64  35 2.64
                            32 2.64  11 2.64  37 2.64  31 2.64
  39  0.952  0.786  0.226-   3 2.42   2 2.42   1 2.42  62 2.50  21 2.50  54 2.50  60 2.64  12 2.64
                            49 2.64  52 2.64  55 2.64  20 2.64
  40  0.785  0.619  0.311-  20 2.42  51 2.42  12 2.42  73 2.63  68 2.63  80 2.64   1 2.64  57 2.64
                             3 2.64   9 2.64  14 2.64  47 2.64
  41  0.285  0.619  0.311-  60 2.42  52 2.42  36 2.42  79 2.63  75 2.63  77 2.64  27 2.64   2 2.64
                             3 2.64  14 2.64  15 2.64  23 2.64
  42  0.787  0.618  0.051-  31 2.41  21 2.41  25 2.41  48 2.64  10 2.64   4 2.64   6 2.64  59 2.64
                            17 2.64
  43  0.287  0.618  0.051-  45 2.41  44 2.41  54 2.41   6 2.64  18 2.64  17 2.64   5 2.64  24 2.64
                            28 2.64
  44  0.370  0.702  0.136-  24 2.41  43 2.41  17 2.41  36 2.50  50 2.50  52 2.51  54 2.64  25 2.64
                            45 2.64   8 2.64  35 2.64  22 2.64
  45  0.370  0.452  0.136-  43 2.41  18 2.41  28 2.41  64 2.49  36 2.50  60 2.51  22 2.64  44 2.64
                            37 2.64   7 2.64  54 2.64  32 2.64
  46  0.202  0.286  0.226-  15 2.42  13 2.42   9 2.42  32 2.49  38 2.50  37 2.51  53 2.64  64 2.64
                            26 2.64  12 2.64  61 2.64  60 2.64
  47  0.785  0.369  0.311-  51 2.42  63 2.42  61 2.42  70 2.63  68 2.63  76 2.63  56 2.64  27 2.64
                            14 2.64   9 2.64  33 2.64  40 2.64
  48  0.787  0.368  0.051-  11 2.41  31 2.41  22 2.41  10 2.64  42 2.64  34 2.64  58 2.64  28 2.64
                            17 2.64
  49  0.952  0.036  0.226-   2 2.42  33 2.42  56 2.42  11 2.49  62 2.50  35 2.50  39 2.64  55 2.64
                            61 2.64  26 2.64  52 2.64  63 2.64
  50  0.452  0.786  0.226-  14 2.42  57 2.42  23 2.42   8 2.50  44 2.50  25 2.51  51 2.64  20 2.64
                            52 2.64  36 2.64  53 2.64  26 2.64
  51  0.702  0.536  0.226-  47 2.42  40 2.42  14 2.42  25 2.50  22 2.50  31 2.51  50 2.64  20 2.64
                            36 2.64  12 2.64  63 2.64  61 2.64
  52  0.202  0.786  0.226-  41 2.42  23 2.42   2 2.42  35 2.50  54 2.50  44 2.51  36 2.64  50 2.64
                            26 2.64  60 2.64  39 2.64  49 2.64
  53  0.452  0.036  0.226-  57 2.42  29 2.42  13 2.42  37 2.49   8 2.50  19 2.51  46 2.64  26 2.64
                            55 2.64  50 2.64  20 2.64  64 2.64
  54  0.120  0.702  0.136-   5 2.41   6 2.41  43 2.41  60 2.50  52 2.50  39 2.50  44 2.64  35 2.64
                            32 2.64  62 2.64  21 2.64  45 2.64
  55  0.702  0.036  0.226-   1 2.42  56 2.42  29 2.42   7 2.49  19 2.50  62 2.51  53 2.64  20 2.64
                            49 2.64  64 2.64  63 2.64  39 2.64
  56  0.785  0.119  0.311-  63 2.42  55 2.42  49 2.42  65 2.63  70 2.63  78 2.63  47 2.64  33 2.64
                            29 2.64   1 2.64  27 2.64   2 2.64
  57  0.535  0.869  0.311-  53 2.42  50 2.42  20 2.42  72 2.63  80 2.63  69 2.64  23 2.64  40 2.64
                            14 2.64  29 2.64   1 2.64  13 2.64
  58  0.787  0.118  0.051-  62 2.41  11 2.41   7 2.41   5 2.64  28 2.64  48 2.64  30 2.64  34 2.64
                             4 2.64
  59  0.537  0.868  0.051-  25 2.41  19 2.41   8 2.41  16 2.64  30 2.64  42 2.64   4 2.64  17 2.64
                            24 2.64
  60  0.202  0.536  0.226-  41 2.42  15 2.42   3 2.42  54 2.50  32 2.50  45 2.51  64 2.64  39 2.64
                            36 2.64  52 2.64  46 2.64  12 2.64
  61  0.952  0.286  0.226-   9 2.42  33 2.42  47 2.42  31 2.50  11 2.50  38 2.51  12 2.64  63 2.64
                            49 2.64  46 2.64  51 2.64  26 2.64
  62  0.870  0.952  0.136-  58 2.41   4 2.41   5 2.41  39 2.50  49 2.50  55 2.51   7 2.64  19 2.64
                            21 2.64  54 2.64  11 2.64  35 2.64
  63  0.702  0.286  0.226-  56 2.42  47 2.42  27 2.42  22 2.49   7 2.50  11 2.51  36 2.64  64 2.64
                            61 2.64  51 2.64  55 2.64  49 2.64
  64  0.452  0.286  0.226-  29 2.42  27 2.42  15 2.42  45 2.49  37 2.50   7 2.51  60 2.64  46 2.64
                            63 2.64  53 2.64  55 2.64  36 2.64
  65  0.867  0.953  0.409-   1 2.63  56 2.63   2 2.63  67 2.64  77 2.64  73 2.64  72 2.64  78 2.64
                            70 2.64
  66  0.118  0.453  0.409-   3 2.63   9 2.63  15 2.64  77 2.64  79 2.64  74 2.64  71 2.64  68 2.64
                            73 2.64
  67  0.117  0.953  0.409-   2 2.63  33 2.63  23 2.64  65 2.64  77 2.64  70 2.64  71 2.64  75 2.64
                            69 2.64
  68  0.867  0.453  0.409-  40 2.63  47 2.63   9 2.64  76 2.64  70 2.64  71 2.64  80 2.64  73 2.64
                            66 2.64
  69  0.367  0.953  0.409-  23 2.63  13 2.63  57 2.64  75 2.64  74 2.64  80 2.64  72 2.64  71 2.64
                            67 2.64
  70  0.867  0.203  0.409-  47 2.63  56 2.63  33 2.63  68 2.64  67 2.64  76 2.64  78 2.64  71 2.64
                            65 2.64
  71  0.117  0.203  0.409-  33 2.63   9 2.63  13 2.64  70 2.64  67 2.64  69 2.64  68 2.64  74 2.64
                            66 2.64
  72  0.618  0.953  0.409-  57 2.63  29 2.63   1 2.63  73 2.64  80 2.64  74 2.64  65 2.64  69 2.64
                            78 2.64
  73  0.867  0.703  0.409-   1 2.63  40 2.63   3 2.64  72 2.64  80 2.64  65 2.64  77 2.64  68 2.64
                            66 2.64
  74  0.368  0.203  0.409-  15 2.63  13 2.63  29 2.63  69 2.64  72 2.64  78 2.64  79 2.64  66 2.64
                            71 2.64
  75  0.368  0.703  0.409-  81 1.89  23 2.63  41 2.63  14 2.63  80 2.64  69 2.64  76 2.64  79 2.64
                            67 2.64  77 2.64
  76  0.617  0.453  0.409-  81 2.17  14 2.63  27 2.63  47 2.63  68 2.64  70 2.64  78 2.64  79 2.64
                            75 2.64  80 2.64
  77  0.117  0.703  0.409-   2 2.63   3 2.63  41 2.64  65 2.64  67 2.64  66 2.64  73 2.64  79 2.64
                            75 2.64
  78  0.617  0.203  0.409-  29 2.63  27 2.63  56 2.63  76 2.64  70 2.64  79 2.64  74 2.64  65 2.64
                            72 2.64
  79  0.368  0.453  0.409-  41 2.63  15 2.63  27 2.63  76 2.64  66 2.64  78 2.64  74 2.64  75 2.64
                            77 2.64
  80  0.617  0.703  0.409-  57 2.63  14 2.63  40 2.64  75 2.64  73 2.64  72 2.64  69 2.64  68 2.64
                            76 2.64
  81  0.439  0.565  0.473-  75 1.89  76 2.17
 
  LATTYP: Found a hexagonal cell.
 ALAT       =    10.5600004196
 C/A-ratio  =     2.0833332505
  
  Lattice vectors:
  
 A1 = (   5.2800002098,  -9.1452286274,   0.0000000000)
 A2 = ( -10.5600004196,   0.0000000000,   0.0000000000)
 A3 = (   0.0000000000,   0.0000000000, -22.0000000000)


Analysis of symmetry for initial positions (statically):
=====================================================================
 Subroutine PRICEL returns:
 Original cell was already a primitive cell.
 

 Routine SETGRP: Setting up the symmetry group for a 
 hexagonal supercell.


 Subroutine GETGRP returns: Found  1 space group operations
 (whereof  1 operations were pure point group operations)
 out of a pool of 24 trial point group operations.


The static configuration has the point symmetry C_1 .


Analysis of symmetry for dynamics (positions and initial velocities):
=====================================================================
 Subroutine PRICEL returns:
 Original cell was already a primitive cell.
 

 Routine SETGRP: Setting up the symmetry group for a 
 hexagonal supercell.


 Subroutine GETGRP returns: Found  1 space group operations
 (whereof  1 operations were pure point group operations)
 out of a pool of 24 trial point group operations.


The dynamic configuration has the point symmetry C_1 .


Analysis of constrained symmetry for selective dynamics:
=====================================================================
 Subroutine PRICEL returns:
 Original cell was already a primitive cell.
 

 Routine SETGRP: Setting up the symmetry group for a 
 hexagonal supercell.


 Subroutine GETGRP returns: Found  1 space group operations
 (whereof  1 operations were pure point group operations)
 out of a pool of 24 trial point group operations.


The constrained configuration has the point symmetry C_1 .


Analysis of structural, dynamic, and magnetic symmetry:
=====================================================================
 Subroutine PRICEL returns:
 Original cell was already a primitive cell.
 

 Routine SETGRP: Setting up the symmetry group for a 
 hexagonal supercell.


 Subroutine GETGRP returns: Found  1 space group operations
 (whereof  1 operations were pure point group operations)
 out of a pool of 24 trial point group operations.


The magnetic configuration has the point symmetry C_1 .


 Subroutine INISYM returns: Found  1 space group operations
 (whereof  1 operations are pure point group operations),
 and found     1 'primitive' translations

 
 
 KPOINTS: mesh auto                               

Automatic generation of k-mesh.
Space group operators:
 irot       det(A)        alpha          n_x          n_y          n_z        tau_x        tau_y        tau_z
    1     1.000000     0.000001     1.000000     0.000000     0.000000     0.000000     0.000000     0.000000
 
 Subroutine IBZKPT returns following result:
 ===========================================
 
 Found      4 irreducible k-points:
 
 Following reciprocal coordinates:
            Coordinates               Weight
  0.000000  0.000000  0.000000      1.000000
  0.500000  0.000000  0.000000      1.000000
  0.000000  0.500000  0.000000      1.000000
  0.500000  0.500000  0.000000      1.000000
 
 Following cartesian coordinates:
            Coordinates               Weight
  0.000000  0.000000  0.000000      1.000000
  0.047348 -0.027337  0.000000      1.000000
  0.000000  0.054673  0.000000      1.000000
  0.047348  0.027337  0.000000      1.000000
 


--------------------------------------------------------------------------------------------------------




 Dimension of arrays:
   k-points           NKPTS =      4   k-points in BZ     NKDIM =      4   number of bands    NBANDS=    490
   number of dos      NEDOS =    301   number of ions     NIONS =     81
   non local maximal  LDIM  =      6   non local SUM 2l+1 LMDIM =     18
   total plane-waves  NPLWV = ******
   max r-space proj   IRMAX =   7802   max aug-charges    IRDMAX=  33988
   dimension x,y,z NGX =    84 NGY =   84 NGZ =  168
   dimension x,y,z NGXF=   168 NGYF=  168 NGZF=  336
   support grid    NGXF=   168 NGYF=  168 NGZF=  336
   ions per type =              64  16   1
   NGX,Y,Z   is equivalent  to a cutoff of  13.22, 13.22, 12.70 a.u.
   NGXF,Y,Z  is equivalent  to a cutoff of  26.45, 26.45, 25.39 a.u.

 SYSTEM =  Pt111                                   
 POSCAR =  PtM\(2)                                 

 Startparameter for this run:
   NWRITE =      2    write-flag & timer
   PREC   = accura    normal or accurate (medium, high low for compatibility)
   ISTART =      0    job   : 0-new  1-cont  2-samecut
   ICHARG =      2    charge: 1-file 2-atom 10-const
   ISPIN  =      2    spin polarized calculation?
   LNONCOLLINEAR =      F non collinear calculations
   LSORBIT =      F    spin-orbit coupling
   INIWAV =      1    electr: 0-lowe 1-rand  2-diag
   LASPH  =      F    aspherical Exc in radial PAW
   METAGGA=      F    non-selfconsistent MetaGGA calc.

 Electronic Relaxation 1
   ENCUT  =  550.0 eV  40.42 Ry    6.36 a.u.  20.19 20.19 42.07*2*pi/ulx,y,z
   ENINI  =  550.0     initial cutoff
   ENAUG  =  477.8 eV  augmentation charge cutoff
   NELM   =    200;   NELMIN=  2; NELMDL= -5     # of ELM steps 
   EDIFF  = 0.1E-04   stopping-criterion for ELM
   LREAL  =      T    real-space projection
   NLSPLINE    = F    spline interpolate recip. space projectors
   LCOMPAT=      F    compatible to vasp.4.4
   GGA_COMPAT  = T    GGA compatible to vasp.4.4-vasp.4.6
   LMAXPAW     = -100 max onsite density
   LMAXMIX     =    2 max onsite mixed and CHGCAR
   VOSKOWN=      0    Vosko Wilk Nusair interpolation
   ROPT   =   -0.00025  -0.00025  -0.00025
 Ionic relaxation
   EDIFFG = -.5E-01   stopping-criterion for IOM
   NSW    =    300    number of steps for IOM
   NBLOCK =      1;   KBLOCK =    300    inner block; outer block 
   IBRION =      2    ionic relax: 0-MD 1-quasi-New 2-CG
   NFREE  =      1    steps in history (QN), initial steepest desc. (CG)
   ISIF   =      2    stress and relaxation
   IWAVPR =     11    prediction:  0-non 1-charg 2-wave 3-comb
   ISYM   =      2    0-nonsym 1-usesym 2-fastsym
   LCORR  =      T    Harris-Foulkes like correction to forces

   POTIM  = 0.5000    time-step for ionic-motion
   TEIN   =    0.0    initial temperature
   TEBEG  =    0.0;   TEEND  =   0.0 temperature during run
   SMASS  =  -3.00    Nose mass-parameter (am)
   estimated Nose-frequenzy (Omega)   =  0.10E-29 period in steps =****** mass=  -0.255E-26a.u.
   SCALEE = 1.0000    scale energy and forces
   NPACO  =    256;   APACO  = 16.0  distance and # of slots for P.C.
   PSTRESS=    0.0 pullay stress

  Mass of Ions in am
   POMASS =  58.93195.08  1.00
  Ionic Valenz
   ZVAL   =   9.00 10.00  1.00
  Atomic Wigner-Seitz radii
   RWIGS  =  -1.00 -1.00 -1.00
  virtual crystal weights 
   VCA    =   1.00  1.00  1.00
   NELECT =     737.0000    total number of electrons
   NUPDOWN=      -1.0000    fix difference up-down

 DOS related values:
   EMIN   =  10.00;   EMAX   =-10.00  energy-range for DOS
   EFERMI =   0.00
   ISMEAR =     1;   SIGMA  =   0.10  broadening in eV -4-tet -1-fermi 0-gaus

 Electronic relaxation 2 (details)
   IALGO  =     68    algorithm
   LDIAG  =      T    sub-space diagonalisation (order eigenvalues)
   LSUBROT=      F    optimize rotation matrix (better conditioning)
   TURBO    =      0    0=normal 1=particle mesh
   IRESTART =      0    0=no restart 2=restart with 2 vectors
   NREBOOT  =      0    no. of reboots
   NMIN     =      0    reboot dimension
   EREF     =   0.00    reference energy to select bands
   IMIX   =      4    mixing-type and parameters
     AMIX     =   0.40;   BMIX     =  1.00
     AMIX_MAG =   1.60;   BMIX_MAG =  1.00
     AMIN     =   0.10
     WC   =   100.;   INIMIX=   1;  MIXPRE=   1;  MAXMIX= -45

 Intra band minimization:
   WEIMIN = 0.0010     energy-eigenvalue tresh-hold
   EBREAK =  0.51E-08  absolut break condition
   DEPER  =   0.30     relativ break condition  

   TIME   =   0.40     timestep for ELM

  volume/ion in A,a.u.               =      26.23       177.01
  Fermi-wavevector in a.u.,A,eV,Ry     =   1.150280  2.173714 18.002471  1.323144
  Thomas-Fermi vector in A             =   2.286945
 
 Write flags
   LWAVE        =      F    write WAVECAR
   LDOWNSAMPLE  =      F    k-point downsampling of WAVECAR
   LCHARG       =      F    write CHGCAR
   LVTOT        =      F    write LOCPOT, total local potential
   LVHAR        =      F    write LOCPOT, Hartree potential only
   LELF         =      F    write electronic localiz. function (ELF)
   LORBIT       =      0    0 simple, 1 ext, 2 COOP (PROOUT), +10 PAW based schemes


 Dipole corrections
   LMONO  =      F    monopole corrections only (constant potential shift)
   LDIPOL =      F    correct potential (dipole corrections)
   IDIPOL =      0    1-x, 2-y, 3-z, 4-all directions 
   EPSILON=  1.0000000 bulk dielectric constant

 Exchange correlation treatment:
   GGA     =    --    GGA type
   LEXCH   =     8    internal setting for exchange type
   VOSKOWN=      0    Vosko Wilk Nusair interpolation
   LHFCALC =     F    Hartree Fock is set to
   LHFONE  =     F    Hartree Fock one center treatment
   AEXX    =    0.0000 exact exchange contribution

 Linear response parameters
   LEPSILON=     F    determine dielectric tensor
   LRPA    =     F    only Hartree local field effects (RPA)
   LNABLA  =     F    use nabla operator in PAW spheres
   LVEL    =     F    velocity operator in full k-point grid
   LINTERFAST=   F  fast interpolation
   KINTER  =     0    interpolate to denser k-point grid
   CSHIFT  =0.1000    complex shift for real part using Kramers Kronig
   OMEGAMAX=  -1.0    maximum frequency
   DEG_THRESHOLD= 0.2000000E-02 threshold for treating states as degnerate
   RTIME   =   -0.100 relaxation time in fs
  (WPLASMAI=    0.000 imaginary part of plasma frequency in eV, 0.658/RTIME)
   DFIELD  = 0.0000000 0.0000000 0.0000000 field for delta impulse in time
 
 Orbital magnetization related:
   ORBITALMAG=     F  switch on orbital magnetization
   LCHIMAG   =     F  perturbation theory with respect to B field
   DQ        =  0.001000  dq finite difference perturbation B field
   LLRAUG    =     F  two centre corrections for induced B field



--------------------------------------------------------------------------------------------------------


 conjugate gradient relaxation of ions
   using selective dynamics as specified on POSCAR
   WARNING: If single coordinates had been selected the selection of coordinates
            is made according to the corresponding   d i r e c t   coordinates!
            Don't support selection of single cartesian coordinates -- sorry ...
  !
 charge density and potential will be updated during run
 spin polarized calculation
 RMM-DIIS sequential band-by-band and
  variant of blocked Davidson during initial phase
 perform sub-space diagonalisation
    before iterative eigenvector-optimisation
 modified Broyden-mixing scheme, WC =      100.0
 initial mixing is a Kerker type mixing with AMIX =  0.4000 and BMIX =      1.0000
 Hartree-type preconditioning will be used
 using additional bands          121
 real space projection scheme for non local part
 use partial core corrections
 calculate Harris-corrections to forces 
   (improved forces if not selfconsistent)
 use gradient corrections 
 use of overlap-Matrix (Vanderbilt PP)
 Methfessel and Paxton  Order N= 1 SIGMA  =   0.10


--------------------------------------------------------------------------------------------------------


  energy-cutoff  :      550.00
  volume of cell :     2124.62
      direct lattice vectors                 reciprocal lattice vectors
    10.560000420  0.000000000  0.000000000     0.094696966 -0.054673319  0.000000000
     5.280000210  9.145228627  0.000000000     0.000000000  0.109346638  0.000000000
     0.000000000  0.000000000 22.000000000     0.000000000  0.000000000  0.045454545

  length of vectors
    10.560000420 10.560000420 22.000000000     0.109346638  0.109346638  0.045454545


 
 k-points in units of 2pi/SCALE and weight: mesh auto                               
   0.00000000  0.00000000  0.00000000       0.250
   0.04734848 -0.02733666  0.00000000       0.250
   0.00000000  0.05467332  0.00000000       0.250
   0.04734848  0.02733666  0.00000000       0.250
 
 k-points in reciprocal lattice and weights: mesh auto                               
   0.00000000  0.00000000  0.00000000       0.250
   0.50000000  0.00000000  0.00000000       0.250
   0.00000000  0.50000000  0.00000000       0.250
   0.50000000  0.50000000  0.00000000       0.250
 
 position of ions in fractional coordinates (direct lattice) 
   0.78480867  0.86922226  0.31129747
   0.03480144  0.86921177  0.31128913
   0.03472771  0.61923215  0.31128732
   0.78672737  0.86796427  0.05124594
   0.03655829  0.86811559  0.05129685
   0.03663850  0.61800272  0.05132683
   0.61974581  0.20156539  0.13598422
   0.36965812  0.95165874  0.13596282
   0.03462695  0.36925248  0.31128774
   0.03659631  0.36812104  0.05134006
   0.86964458  0.20165938  0.13596857
   0.95177131  0.53569377  0.22601276
   0.28469597  0.11925519  0.31130317
   0.53462695  0.61935206  0.31132349
   0.28457194  0.36927545  0.31131050
   0.28668923  0.11816423  0.05129869
   0.53643122  0.61808880  0.05123215
   0.28654946  0.36808879  0.05135412
   0.61968552  0.95160862  0.13594574
   0.70174807  0.78565854  0.22596507
   0.86960684  0.70164345  0.13597445
   0.61967870  0.45169725  0.13595188
   0.28484109  0.86926307  0.31131098
   0.28644846  0.86814797  0.05128443
   0.61958777  0.70166494  0.13591218
   0.20183426  0.03566479  0.22601434
   0.53455102  0.36935681  0.31130756
   0.53667278  0.36796893  0.05129270
   0.53462524  0.11935562  0.31130716
   0.53667273  0.11808196  0.05128312
   0.86953476  0.45175991  0.13600323
   0.11968810  0.45163155  0.13605895
   0.03467749  0.11927288  0.31128877
   0.03670730  0.11813552  0.05129760
   0.11958412  0.95170982  0.13599964
   0.45181232  0.53575618  0.22600979
   0.36976480  0.20160926  0.13602383
   0.11971248  0.20160801  0.13602195
   0.95186960  0.78562065  0.22599246
   0.78470476  0.61932155  0.31130378
   0.28469627  0.61922580  0.31129855
   0.78661220  0.61805706  0.05124911
   0.28651464  0.61802871  0.05130543
   0.36959900  0.70170145  0.13596552
   0.36974844  0.45164511  0.13601924
   0.20182404  0.28565594  0.22603199
   0.78454570  0.36931268  0.31128476
   0.78671851  0.36806138  0.05126972
   0.95178363  0.03565317  0.22596530
   0.45185094  0.78568653  0.22598117
   0.70171135  0.53578807  0.22600101
   0.20192263  0.78564434  0.22601942
   0.45176975  0.03569830  0.22599092
   0.11964839  0.70167811  0.13601062
   0.70174466  0.03566594  0.22597042
   0.78464263  0.11933727  0.31127725
   0.53476126  0.86928406  0.31133846
   0.78671389  0.11805280  0.05126078
   0.53658682  0.86813335  0.05124811
   0.20187113  0.53568700  0.22602262
   0.95174579  0.28571242  0.22599627
   0.86955967  0.95164736  0.13596443
   0.70169208  0.28575816  0.22596216
   0.45174022  0.28573770  0.22602209
   0.86747143  0.95290102  0.40877813
   0.11750876  0.45294547  0.40890880
   0.11732406  0.95294426  0.40883882
   0.86741425  0.45286700  0.40884516
   0.36748293  0.95291426  0.40886529
   0.86743479  0.20292806  0.40879977
   0.11744156  0.20287239  0.40887206
   0.61750856  0.95285519  0.40881014
   0.86731886  0.70303733  0.40883997
   0.36755553  0.20283200  0.40887767
   0.36755468  0.70296476  0.40887452
   0.61749003  0.45285981  0.40884914
   0.11737162  0.70298461  0.40887472
   0.61749348  0.20291040  0.40881922
   0.36751446  0.45288387  0.40889270
   0.61743399  0.70295419  0.40884696
   0.43850000  0.56520000  0.47300000
 
 position of ions in cartesian coordinates  (Angst):
  12.87707359  7.94923629  6.84854433
   4.95694154  7.94914038  6.84836089
   3.63627051  5.66301962  6.84832112
  12.89069282  7.93773165  1.12741065
   4.96970603  7.93911553  1.12853070
   3.64995711  5.65177617  1.12919030
   7.60878135  1.84336156  2.99165289
   8.92834820  8.70313676  2.99118200
   2.31531380  3.37689835  6.84833029
   2.33013621  3.36655108  1.12948134
  10.24820871  1.84422114  2.99130850
  12.87916863  4.89904203  4.97228080
   3.63605699  1.09061601  6.84866978
   8.91583985  5.66411618  6.84911680
   4.95485426  3.37710844  6.84883109
   3.65134558  1.08063889  1.12857113
   8.92822296  5.65256340  1.12710731
   4.96947128  3.36625614  1.12979070
  11.56837308  8.70267838  2.99080638
  11.55873713  7.18502696  4.97123162
  12.88772622  6.41668978  2.99143800
   8.92876895  4.13087463  2.99094130
   7.59763126  7.94960951  6.84884167
   7.60871732  7.93941164  1.12825737
  10.24763817  6.41688629  2.99006786
   2.31968003  0.32616270  4.97231542
   7.59506299  3.37785244  6.84876640
   7.61014081  3.36515998  1.12843932
   6.27584042  1.09153442  6.84875760
   6.29073703  1.07988653  1.12822855
  11.56757982  4.13144765  2.99207102
   3.64852106  4.13027377  2.99329699
   0.99595507  1.09077771  6.84835301
   1.01138472  1.08037638  1.12854727
   6.28783640  8.70360389  2.99199201
   7.59993103  4.89961276  4.97221537
   4.96921340  1.84376278  2.99252428
   2.32865418  1.84375135  2.99248299
  14.19982054  7.18468042  4.97183411
  11.55650047  5.66383714  6.84868306
   6.27590504  5.66296151  6.84856820
  11.56996659  5.65227313  1.12748032
   6.28878646  5.65201383  1.12871950
   7.60794938  6.41722021  2.99124143
   6.28923001  4.13039782  2.99242328
   3.63952534  2.61238886  4.97270383
  10.23477396  3.37744888  6.84826475
  10.25111193  3.36600545  1.12793384
  10.23908424  0.32605640  4.97123670
   8.91997117  7.18528291  4.97158580
  10.23903320  4.89990435  4.97202230
   6.28050539  7.18489713  4.97242734
   4.95917577  0.32646911  4.97180026
   4.96834764  6.41700677  2.99223361
   7.59874004  0.32617320  4.97134921
   8.91592731  1.09136659  6.84809952
  10.23689914  7.94980146  6.84944622
   8.93101782  1.07961985  1.12773711
  10.25010137  7.93927801  1.12745837
   4.96018669  4.89898005  4.97249774
  11.55899763  2.61290541  4.97191787
  14.20724879  8.70303269  2.99121738
   8.91867179  2.61332367  4.97116748
   6.27907205  2.61313656  4.97248592
  14.19181624  8.71449772  8.99311888
   3.63244471  4.14228991  8.99599351
   6.27048803  8.71489317  8.99445405
  11.55103274  4.14157223  8.99459350
   8.91200738  8.71461879  8.99503637
  10.23157188  1.85582347  8.99359490
   2.31134921  1.85531435  8.99518524
  11.55196621  8.71407852  8.99382312
  12.87092479  6.42943709  8.99447924
   4.95233956  1.85494506  8.99530883
   7.59303164  6.42877346  8.99523937
   8.91179490  4.14150646  8.99468111
   4.95120328  6.42895498  8.99524383
   7.59209837  1.85566200  8.99402291
   6.27217972  4.14172649  8.99563943
  10.23170140  6.42867677  8.99463322
   7.61481630  5.16888322 10.40600000
 


--------------------------------------------------------------------------------------------------------


 k-point  1 :   0.0000 0.0000 0.0000  plane waves:   62167
 k-point  2 :   0.5000 0.0000 0.0000  plane waves:   62242
 k-point  3 :   0.0000 0.5000 0.0000  plane waves:   62242
 k-point  4 :   0.5000 0.5000 0.0000  plane waves:   62242

 maximum and minimum number of plane-waves per node :     15586    15521

 maximum number of plane-waves:     62242
 maximum index in each direction: 
   IXMAX=   20   IYMAX=   20   IZMAX=   42
   IXMIN=  -20   IYMIN=  -20   IZMIN=  -42


 real space projection operators:
  total allocation   :      64378.80 KBytes
  max/ min on nodes  :      16096.84      16092.07


 parallel 3D FFT for wavefunctions:
    minimum data exchange during FFTs selected (reduces bandwidth)
 parallel 3D FFT for charge:
    minimum data exchange during FFTs selected (reduces bandwidth)


 total amount of memory used by VASP MPI-rank0   227769. kBytes
=======================================================================

   base      :      30000. kBytes
   nonlr-proj:      30520. kBytes
   fftplans  :      17962. kBytes
   grid      :      48722. kBytes
   one-center:        653. kBytes
   wavefun   :      99912. kBytes
 
     INWAV:  cpu time    0.0001: real time    0.0001
 Broyden mixing: mesh for mixing (old mesh)
   NGX = 41   NGY = 41   NGZ = 85
  (NGX  =168   NGY  =168   NGZ  =336)
  gives a total of 142885 points

 initial charge density was supplied:
 charge density of overlapping atoms calculated
 number of electron     737.0000000 magnetization      81.0000000
 keeping initial charge density in first step


--------------------------------------------------------------------------------------------------------


 Maximum index for non-local projection operator         1901
 Maximum index for augmentation-charges         1515 (set IRDMAX)


--------------------------------------------------------------------------------------------------------


 First call to EWALD:  gamma=   0.138
 Maximum number of real-space cells 4x 4x 2
 Maximum number of reciprocal cells 2x 2x 4

    FEWALD:  cpu time    0.0042: real time    0.0042


--------------------------------------- Iteration      1(   1)  ---------------------------------------


    POTLOK:  cpu time    0.4228: real time    0.4262
    SETDIJ:  cpu time    0.0330: real time    0.0334
     EDDAV:  cpu time   52.7480: real time   52.9007
       DOS:  cpu time    0.0018: real time    0.0019
    --------------------------------------------
      LOOP:  cpu time   53.2056: real time   53.3622

 eigenvalue-minimisations  :  7840
 total energy-change (2. order) : 0.6462425E+04  (-0.3250005E+05)
 number of electron     737.0000000 magnetization      81.0000000
 augmentation part      737.0000000 magnetization      81.0000000

 Free energy of the ion-electron system (eV)
  ---------------------------------------------------
  alpha Z        PSCENC =      1573.28966429
  Ewald energy   TEWEN  =    228838.90334562
  -Hartree energ DENC   =   -292855.14648198
  -exchange      EXHF   =         0.00000000
  -V(xc)+E(xc)   XCENC  =      1116.32620560
  PAW double counting   =     57276.07814875   -60216.95427584
  entropy T*S    EENTRO =        -0.00101073
  eigenvalues    EBANDS =      6996.26939737
  atomic energy  EATOM  =     63733.65965817
  Solvation  Ediel_sol  =         0.00000000
  ---------------------------------------------------
  free energy    TOTEN  =      6462.42465125 eV

  energy without entropy =     6462.42566198  energy(sigma->0) =     6462.42498816


--------------------------------------------------------------------------------------------------------




--------------------------------------- Iteration      1(   2)  ---------------------------------------


     EDDAV:  cpu time   52.5965: real time   52.7410
       DOS:  cpu time    0.0018: real time    0.0018
    --------------------------------------------
      LOOP:  cpu time   52.5983: real time   52.7429

 eigenvalue-minimisations  :  7840
 total energy-change (2. order) :-0.6183415E+04  (-0.5792532E+04)
 number of electron     737.0000000 magnetization      81.0000000
 augmentation part      737.0000000 magnetization      81.0000000

 Free energy of the ion-electron system (eV)
  ---------------------------------------------------
  alpha Z        PSCENC =      1573.28966429
  Ewald energy   TEWEN  =    228838.90334562
  -Hartree energ DENC   =   -292855.14648198
  -exchange      EXHF   =         0.00000000
  -V(xc)+E(xc)   XCENC  =      1116.32620560
  PAW double counting   =     57276.07814875   -60216.95427584
  entropy T*S    EENTRO =        -0.00052356
  eigenvalues    EBANDS =       812.85358622
  atomic energy  EATOM  =     63733.65965817
  Solvation  Ediel_sol  =         0.00000000
  ---------------------------------------------------
  free energy    TOTEN  =       279.00932726 eV

  energy without entropy =      279.00985082  energy(sigma->0) =      279.00950178


--------------------------------------------------------------------------------------------------------




--------------------------------------- Iteration      1(   3)  ---------------------------------------


     EDDAV:  cpu time   56.0708: real time   56.2280
       DOS:  cpu time    0.0021: real time    0.0021
    --------------------------------------------
      LOOP:  cpu time   56.0729: real time   56.2302

 eigenvalue-minimisations  :  8530
 total energy-change (2. order) :-0.7775704E+03  (-0.6192370E+03)
 number of electron     737.0000000 magnetization      81.0000000
 augmentation part      737.0000000 magnetization      81.0000000

 Free energy of the ion-electron system (eV)
  ---------------------------------------------------
  alpha Z        PSCENC =      1573.28966429
  Ewald energy   TEWEN  =    228838.90334562
  -Hartree energ DENC   =   -292855.14648198
  -exchange      EXHF   =         0.00000000
  -V(xc)+E(xc)   XCENC  =      1116.32620560
  PAW double counting   =     57276.07814875   -60216.95427584
  entropy T*S    EENTRO =         0.07282856
  eigenvalues    EBANDS =        35.20979534
  atomic energy  EATOM  =     63733.65965817
  Solvation  Ediel_sol  =         0.00000000
  ---------------------------------------------------
  free energy    TOTEN  =      -498.56111149 eV

  energy without entropy =     -498.63394005  energy(sigma->0) =     -498.58538768


--------------------------------------------------------------------------------------------------------




--------------------------------------- Iteration      1(   4)  ---------------------------------------


     EDDAV:  cpu time   63.3410: real time   63.5066
       DOS:  cpu time    0.0019: real time    0.0019
    --------------------------------------------
      LOOP:  cpu time   63.3429: real time   63.5085

 eigenvalue-minimisations  :  9980
 total energy-change (2. order) :-0.9086607E+02  (-0.8001466E+02)
 number of electron     737.0000000 magnetization      81.0000000
 augmentation part      737.0000000 magnetization      81.0000000

 Free energy of the ion-electron system (eV)
  ---------------------------------------------------
  alpha Z        PSCENC =      1573.28966429
  Ewald energy   TEWEN  =    228838.90334562
  -Hartree energ DENC   =   -292855.14648198
  -exchange      EXHF   =         0.00000000
  -V(xc)+E(xc)   XCENC  =      1116.32620560
  PAW double counting   =     57276.07814875   -60216.95427584
  entropy T*S    EENTRO =         0.08051074
  eigenvalues    EBANDS =       -55.66395230
  atomic energy  EATOM  =     63733.65965817
  Solvation  Ediel_sol  =         0.00000000
  ---------------------------------------------------
  free energy    TOTEN  =      -589.42717695 eV

  energy without entropy =     -589.50768769  energy(sigma->0) =     -589.45401386


--------------------------------------------------------------------------------------------------------




--------------------------------------- Iteration      1(   5)  ---------------------------------------


     EDDAV:  cpu time   63.7399: real time   63.8914
       DOS:  cpu time    0.0021: real time    0.0021
    CHARGE:  cpu time    4.2594: real time    4.2698
    MIXING:  cpu time    0.0091: real time    0.0097
    --------------------------------------------
      LOOP:  cpu time   68.0106: real time   68.1731

 eigenvalue-minimisations  : 10050
 total energy-change (2. order) :-0.2986169E+01  (-0.2905135E+01)
 number of electron     737.0000226 magnetization      80.6405948
 augmentation part      341.2436162 magnetization      60.7411521

 Broyden mixing:
  rms(total) = 0.88831E+01    rms(broyden)= 0.88831E+01
  rms(prec ) = 0.93577E+01
  weight for this iteration     100.00

 Free energy of the ion-electron system (eV)
  ---------------------------------------------------
  alpha Z        PSCENC =      1573.28966429
  Ewald energy   TEWEN  =    228838.90334562
  -Hartree energ DENC   =   -292855.14648198
  -exchange      EXHF   =         0.00000000
  -V(xc)+E(xc)   XCENC  =      1116.32620560
  PAW double counting   =     57276.07814875   -60216.95427584
  entropy T*S    EENTRO =         0.06550149
  eigenvalues    EBANDS =       -58.63511206
  atomic energy  EATOM  =     63733.65965817
  Solvation  Ediel_sol  =         0.00000000
  ---------------------------------------------------
  free energy    TOTEN  =      -592.41334596 eV

  energy without entropy =     -592.47884745  energy(sigma->0) =     -592.43517979


--------------------------------------------------------------------------------------------------------




--------------------------------------- Iteration      1(   6)  ---------------------------------------


    POTLOK:  cpu time    0.3896: real time    0.3906
    SETDIJ:  cpu time    0.0324: real time    0.0325
    EDDIAG:  cpu time    9.6277: real time    9.6508
  RMM-DIIS:  cpu time   33.1926: real time   33.2712
    ORTHCH:  cpu time    0.9453: real time    0.9475
       DOS:  cpu time    0.0019: real time    0.0019
    CHARGE:  cpu time    4.2439: real time    4.2540
    MIXING:  cpu time    0.0104: real time    0.0106
    --------------------------------------------
      LOOP:  cpu time   48.4438: real time   48.5591

 eigenvalue-minimisations  :  7858
 total energy-change (2. order) :-0.1269261E+03  (-0.8997168E+02)
 number of electron     737.0000255 magnetization      79.9479722
 augmentation part      385.4263039 magnetization      70.3913814

 Broyden mixing:
  rms(total) = 0.17269E+02    rms(broyden)= 0.17269E+02
  rms(prec ) = 0.20164E+02
  weight for this iteration     100.00

 eigenvalues of (default mixing * dielectric matrix)
  average eigenvalue GAMMA=   0.2357
  0.2357

 Free energy of the ion-electron system (eV)
  ---------------------------------------------------
  alpha Z        PSCENC =      1573.28966429
  Ewald energy   TEWEN  =    228838.90334562
  -Hartree energ DENC   =   -292127.29308290
  -exchange      EXHF   =         0.00000000
  -V(xc)+E(xc)   XCENC  =      1065.49950366
  PAW double counting   =     62054.26813695   -64701.24057913
  entropy T*S    EENTRO =        -0.06386058
  eigenvalues    EBANDS =     -1156.36219344
  atomic energy  EATOM  =     63733.65965817
  Solvation  Ediel_sol  =         0.00000000
  ---------------------------------------------------
  free energy    TOTEN  =      -719.33940735 eV

  energy without entropy =     -719.27554678  energy(sigma->0) =     -719.31812049


--------------------------------------------------------------------------------------------------------




--------------------------------------- Iteration      1(   7)  ---------------------------------------


    POTLOK:  cpu time    0.3908: real time    0.3918
    SETDIJ:  cpu time    0.0324: real time    0.0324
    EDDIAG:  cpu time    9.6156: real time    9.6386
  RMM-DIIS:  cpu time   33.5058: real time   33.5853
    ORTHCH:  cpu time    0.9504: real time    0.9527
       DOS:  cpu time    0.0019: real time    0.0019
    CHARGE:  cpu time    4.1792: real time    4.1892
    MIXING:  cpu time    0.0098: real time    0.0098
    --------------------------------------------
      LOOP:  cpu time   48.6859: real time   48.8017

 eigenvalue-minimisations  :  7887
 total energy-change (2. order) : 0.7163098E+02  (-0.3192372E+02)
 number of electron     737.0000267 magnetization      78.3882899
 augmentation part      395.4979336 magnetization      68.8025690

 Broyden mixing:
  rms(total) = 0.13812E+02    rms(broyden)= 0.13812E+02
  rms(prec ) = 0.17231E+02
  weight for this iteration     100.00

 eigenvalues of (default mixing * dielectric matrix)
  average eigenvalue GAMMA=   0.3575
  0.5960  0.1190

 Free energy of the ion-electron system (eV)
  ---------------------------------------------------
  alpha Z        PSCENC =      1573.28966429
  Ewald energy   TEWEN  =    228838.90334562
  -Hartree energ DENC   =   -291722.56644837
  -exchange      EXHF   =         0.00000000
  -V(xc)+E(xc)   XCENC  =      1065.36971651
  PAW double counting   =     62969.87012293   -65655.86096740
  entropy T*S    EENTRO =        -0.01666488
  eigenvalues    EBANDS =     -1450.35685535
  atomic energy  EATOM  =     63733.65965817
  Solvation  Ediel_sol  =         0.00000000
  ---------------------------------------------------
  free energy    TOTEN  =      -647.70842849 eV

  energy without entropy =     -647.69176361  energy(sigma->0) =     -647.70287353


--------------------------------------------------------------------------------------------------------




--------------------------------------- Iteration      1(   8)  ---------------------------------------


    POTLOK:  cpu time    0.3897: real time    0.3906
    SETDIJ:  cpu time    0.0324: real time    0.0324
    EDDIAG:  cpu time    9.6291: real time    9.6522
  RMM-DIIS:  cpu time   33.3039: real time   33.3830
    ORTHCH:  cpu time    1.0029: real time    1.0053
       DOS:  cpu time    0.0018: real time    0.0018
    CHARGE:  cpu time    4.2109: real time    4.2209
    MIXING:  cpu time    0.0104: real time    0.0104
    --------------------------------------------
      LOOP:  cpu time   48.5810: real time   48.6967

 eigenvalue-minimisations  :  7859
 total energy-change (2. order) :-0.2765200E+03  (-0.1664464E+02)
 number of electron     737.0000260 magnetization      77.4739833
 augmentation part      378.1110896 magnetization      72.1306105

 Broyden mixing:
  rms(total) = 0.22837E+02    rms(broyden)= 0.22837E+02
  rms(prec ) = 0.33197E+02
  weight for this iteration     100.00

 eigenvalues of (default mixing * dielectric matrix)
  average eigenvalue GAMMA=   0.2618
  0.6100  0.1205  0.0548

 Free energy of the ion-electron system (eV)
  ---------------------------------------------------
  alpha Z        PSCENC =      1573.28966429
  Ewald energy   TEWEN  =    228838.90334562
  -Hartree energ DENC   =   -291975.81195203
  -exchange      EXHF   =         0.00000000
  -V(xc)+E(xc)   XCENC  =      1075.34520808
  PAW double counting   =     65040.48123147   -67889.76521909
  entropy T*S    EENTRO =         0.00416573
  eigenvalues    EBANDS =     -1320.33454195
  atomic energy  EATOM  =     63733.65965817
  Solvation  Ediel_sol  =         0.00000000
  ---------------------------------------------------
  free energy    TOTEN  =      -924.22843972 eV

  energy without entropy =     -924.23260545  energy(sigma->0) =     -924.22982829


--------------------------------------------------------------------------------------------------------




--------------------------------------- Iteration      1(   9)  ---------------------------------------


    POTLOK:  cpu time    0.3878: real time    0.3888
    SETDIJ:  cpu time    0.0322: real time    0.0323
    EDDIAG:  cpu time    9.6253: real time    9.6484
  RMM-DIIS:  cpu time   33.3691: real time   33.4481
    ORTHCH:  cpu time    0.9469: real time    0.9491
       DOS:  cpu time    0.0018: real time    0.0019
    CHARGE:  cpu time    4.2361: real time    4.2486
    MIXING:  cpu time    0.0109: real time    0.0109
    --------------------------------------------
      LOOP:  cpu time   48.6101: real time   48.7281

 eigenvalue-minimisations  :  7869
 total energy-change (2. order) : 0.3925393E+03  (-0.4958172E+01)
 number of electron     737.0000251 magnetization      76.9591096
 augmentation part      375.3628639 magnetization      60.5526637

 Broyden mixing:
  rms(total) = 0.82959E+01    rms(broyden)= 0.82958E+01
  rms(prec ) = 0.10267E+02
  weight for this iteration     100.00

 eigenvalues of (default mixing * dielectric matrix)
  average eigenvalue GAMMA=   0.3667
  0.9221  0.3753  0.0846  0.0846

 Free energy of the ion-electron system (eV)
  ---------------------------------------------------
  alpha Z        PSCENC =      1573.28966429
  Ewald energy   TEWEN  =    228838.90334562
  -Hartree energ DENC   =   -292283.39481172
  -exchange      EXHF   =         0.00000000
  -V(xc)+E(xc)   XCENC  =      1075.08963285
  PAW double counting   =     65760.83091341   -68642.72782638
  entropy T*S    EENTRO =         0.08536154
  eigenvalues    EBANDS =      -587.42511414
  atomic energy  EATOM  =     63733.65965817
  Solvation  Ediel_sol  =         0.00000000
  ---------------------------------------------------
  free energy    TOTEN  =      -531.68917637 eV

  energy without entropy =     -531.77453791  energy(sigma->0) =     -531.71763021


--------------------------------------------------------------------------------------------------------




--------------------------------------- Iteration      1(  10)  ---------------------------------------


    POTLOK:  cpu time    0.3885: real time    0.3896
    SETDIJ:  cpu time    0.0392: real time    0.0393
    EDDIAG:  cpu time    9.6242: real time    9.6503
  RMM-DIIS:  cpu time   33.4598: real time   33.5514
    ORTHCH:  cpu time    0.9467: real time    0.9493
       DOS:  cpu time    0.0020: real time    0.0020
    CHARGE:  cpu time    4.2192: real time    4.2305
    MIXING:  cpu time    0.0105: real time    0.0105
    --------------------------------------------
      LOOP:  cpu time   48.6901: real time   48.8231

 eigenvalue-minimisations  :  7884
 total energy-change (2. order) :-0.3105586E+02  (-0.1032003E+02)
 number of electron     737.0000241 magnetization      76.8453601
 augmentation part      375.9662592 magnetization      63.0739089

 Broyden mixing:
  rms(total) = 0.10359E+02    rms(broyden)= 0.10359E+02
  rms(prec ) = 0.12502E+02
  weight for this iteration     100.00

 eigenvalues of (default mixing * dielectric matrix)
  average eigenvalue GAMMA=   0.3600
  1.0760  0.3308  0.2256  0.0838  0.0838

 Free energy of the ion-electron system (eV)
  ---------------------------------------------------
  alpha Z        PSCENC =      1573.28966429
  Ewald energy   TEWEN  =    228838.90334562
  -Hartree energ DENC   =   -292263.58926888
  -exchange      EXHF   =         0.00000000
  -V(xc)+E(xc)   XCENC  =      1086.48386701
  PAW double counting   =     67201.38485168   -70131.84396334
  entropy T*S    EENTRO =         0.01895578
  eigenvalues    EBANDS =      -601.05214413
  atomic energy  EATOM  =     63733.65965817
  Solvation  Ediel_sol  =         0.00000000
  ---------------------------------------------------
  free energy    TOTEN  =      -562.74503381 eV

  energy without entropy =     -562.76398959  energy(sigma->0) =     -562.75135240


--------------------------------------------------------------------------------------------------------




--------------------------------------- Iteration      1(  11)  ---------------------------------------


    POTLOK:  cpu time    0.4042: real time    0.4055
    SETDIJ:  cpu time    0.0326: real time    0.0326
    EDDIAG:  cpu time    9.6880: real time    9.7166
  RMM-DIIS:  cpu time   33.5804: real time   33.6602
    ORTHCH:  cpu time    0.9406: real time    0.9429
       DOS:  cpu time    0.0020: real time    0.0020
    CHARGE:  cpu time    4.2331: real time    4.2433
    MIXING:  cpu time    0.0113: real time    0.0113
    --------------------------------------------
      LOOP:  cpu time   48.8921: real time   49.0144

 eigenvalue-minimisations  :  7882
 total energy-change (2. order) : 0.3704164E+02  (-0.7172411E+01)
 number of electron     737.0000251 magnetization      77.1768410
 augmentation part      378.4876522 magnetization      60.7053831

 Broyden mixing:
  rms(total) = 0.69594E+01    rms(broyden)= 0.69593E+01
  rms(prec ) = 0.80601E+01
  weight for this iteration     100.00

 eigenvalues of (default mixing * dielectric matrix)
  average eigenvalue GAMMA=   0.3953
  1.2857  0.4058  0.4058  0.0969  0.0969  0.0810

 Free energy of the ion-electron system (eV)
  ---------------------------------------------------
  alpha Z        PSCENC =      1573.28966429
  Ewald energy   TEWEN  =    228838.90334562
  -Hartree energ DENC   =   -292263.02869981
  -exchange      EXHF   =         0.00000000
  -V(xc)+E(xc)   XCENC  =      1090.76550944
  PAW double counting   =     67680.86729572   -70621.20255495
  entropy T*S    EENTRO =         0.00734805
  eigenvalues    EBANDS =      -558.96496407
  atomic energy  EATOM  =     63733.65965817
  Solvation  Ediel_sol  =         0.00000000
  ---------------------------------------------------
  free energy    TOTEN  =      -525.70339755 eV

  energy without entropy =     -525.71074560  energy(sigma->0) =     -525.70584690


--------------------------------------------------------------------------------------------------------




--------------------------------------- Iteration      1(  12)  ---------------------------------------


    POTLOK:  cpu time    0.4052: real time    0.4061
    SETDIJ:  cpu time    0.0326: real time    0.0326
    EDDIAG:  cpu time    9.6095: real time    9.6325
  RMM-DIIS:  cpu time   33.4742: real time   33.5637
    ORTHCH:  cpu time    0.9433: real time    0.9459
       DOS:  cpu time    0.0018: real time    0.0018
    CHARGE:  cpu time    4.1736: real time    4.1849
    MIXING:  cpu time    0.0112: real time    0.0112
    --------------------------------------------
      LOOP:  cpu time   48.6512: real time   48.7789

 eigenvalue-minimisations  :  7884
 total energy-change (2. order) : 0.1476905E+01  (-0.3450310E+01)
 number of electron     737.0000254 magnetization      77.4510404
 augmentation part      379.6341893 magnetization      64.7314916

 Broyden mixing:
  rms(total) = 0.80442E+01    rms(broyden)= 0.80441E+01
  rms(prec ) = 0.94310E+01
  weight for this iteration     100.00

 eigenvalues of (default mixing * dielectric matrix)
  average eigenvalue GAMMA=   0.3998
  1.4493  0.4772  0.4772  0.0838  0.0838  0.1136  0.1136

 Free energy of the ion-electron system (eV)
  ---------------------------------------------------
  alpha Z        PSCENC =      1573.28966429
  Ewald energy   TEWEN  =    228838.90334562
  -Hartree energ DENC   =   -292290.28457150
  -exchange      EXHF   =         0.00000000
  -V(xc)+E(xc)   XCENC  =      1094.09438340
  PAW double counting   =     68250.92416921   -71202.84643091
  entropy T*S    EENTRO =         0.01536413
  eigenvalues    EBANDS =      -521.98207482
  atomic energy  EATOM  =     63733.65965817
  Solvation  Ediel_sol  =         0.00000000
  ---------------------------------------------------
  free energy    TOTEN  =      -524.22649242 eV

  energy without entropy =     -524.24185655  energy(sigma->0) =     -524.23161380


--------------------------------------------------------------------------------------------------------




--------------------------------------- Iteration      1(  13)  ---------------------------------------


    POTLOK:  cpu time    0.4040: real time    0.4049
    SETDIJ:  cpu time    0.0324: real time    0.0325
    EDDIAG:  cpu time    9.6112: real time    9.6376
  RMM-DIIS:  cpu time   33.7061: real time   33.7983
    ORTHCH:  cpu time    0.9468: real time    0.9494
       DOS:  cpu time    0.0020: real time    0.0020
    CHARGE:  cpu time    4.1564: real time    4.1677
    MIXING:  cpu time    0.0116: real time    0.0116
    --------------------------------------------
      LOOP:  cpu time   48.8705: real time   49.0041

 eigenvalue-minimisations  :  7883
 total energy-change (2. order) : 0.1347763E+02  (-0.3283961E+01)
 number of electron     737.0000251 magnetization      77.7078600
 augmentation part      378.7326762 magnetization      65.9852992

 Broyden mixing:
  rms(total) = 0.58180E+01    rms(broyden)= 0.58180E+01
  rms(prec ) = 0.68302E+01
  weight for this iteration     100.00

 eigenvalues of (default mixing * dielectric matrix)
  average eigenvalue GAMMA=   0.3842
  1.5302  0.4890  0.4890  0.1542  0.1542  0.0887  0.0887  0.0793

 Free energy of the ion-electron system (eV)
  ---------------------------------------------------
  alpha Z        PSCENC =      1573.28966429
  Ewald energy   TEWEN  =    228838.90334562
  -Hartree energ DENC   =   -292337.43455475
  -exchange      EXHF   =         0.00000000
  -V(xc)+E(xc)   XCENC  =      1097.18619115
  PAW double counting   =     68816.49406292   -71781.30220578
  entropy T*S    EENTRO =        -0.00529842
  eigenvalues    EBANDS =      -451.53972296
  atomic energy  EATOM  =     63733.65965817
  Solvation  Ediel_sol  =         0.00000000
  ---------------------------------------------------
  free energy    TOTEN  =      -510.74885975 eV

  energy without entropy =     -510.74356133  energy(sigma->0) =     -510.74709361


--------------------------------------------------------------------------------------------------------




--------------------------------------- Iteration      1(  14)  ---------------------------------------


    POTLOK:  cpu time    0.4069: real time    0.4079
    SETDIJ:  cpu time    0.0324: real time    0.0325
    EDDIAG:  cpu time    9.6147: real time    9.6412
  RMM-DIIS:  cpu time   33.5327: real time   33.6244
    ORTHCH:  cpu time    1.0148: real time    1.0176
       DOS:  cpu time    0.0020: real time    0.0020
    CHARGE:  cpu time    4.2238: real time    4.2351
    MIXING:  cpu time    0.0121: real time    0.0121
    --------------------------------------------
      LOOP:  cpu time   48.8394: real time   48.9728

 eigenvalue-minimisations  :  7881
 total energy-change (2. order) : 0.8142107E+01  (-0.1529965E+01)
 number of electron     737.0000250 magnetization      78.1004113
 augmentation part      378.0522587 magnetization      64.7773288

 Broyden mixing:
  rms(total) = 0.45227E+01    rms(broyden)= 0.45227E+01
  rms(prec ) = 0.50251E+01
  weight for this iteration     100.00

 eigenvalues of (default mixing * dielectric matrix)
  average eigenvalue GAMMA=   0.3840
  1.5354  0.5540  0.5540  0.3226  0.1292  0.0870  0.0870  0.0936  0.0936

 Free energy of the ion-electron system (eV)
  ---------------------------------------------------
  alpha Z        PSCENC =      1573.28966429
  Ewald energy   TEWEN  =    228838.90334562
  -Hartree energ DENC   =   -292390.01897475
  -exchange      EXHF   =         0.00000000
  -V(xc)+E(xc)   XCENC  =      1097.71790450
  PAW double counting   =     69163.98189094   -72138.95248613
  entropy T*S    EENTRO =         0.00057505
  eigenvalues    EBANDS =      -381.18833064
  atomic energy  EATOM  =     63733.65965817
  Solvation  Ediel_sol  =         0.00000000
  ---------------------------------------------------
  free energy    TOTEN  =      -502.60675296 eV

  energy without entropy =     -502.60732800  energy(sigma->0) =     -502.60694464


--------------------------------------------------------------------------------------------------------




--------------------------------------- Iteration      1(  15)  ---------------------------------------


    POTLOK:  cpu time    0.4070: real time    0.4079
    SETDIJ:  cpu time    0.0329: real time    0.0329
    EDDIAG:  cpu time    9.6190: real time    9.6455
  RMM-DIIS:  cpu time   33.4090: real time   33.5011
    ORTHCH:  cpu time    0.9411: real time    0.9434
       DOS:  cpu time    0.0020: real time    0.0020
    CHARGE:  cpu time    4.2036: real time    4.2153
    MIXING:  cpu time    0.0126: real time    0.0126
    --------------------------------------------
      LOOP:  cpu time   48.6272: real time   48.7608

 eigenvalue-minimisations  :  7873
 total energy-change (2. order) :-0.3194130E+00  (-0.6307433E+00)
 number of electron     737.0000247 magnetization      78.6964154
 augmentation part      376.0681260 magnetization      66.3331961

 Broyden mixing:
  rms(total) = 0.44973E+01    rms(broyden)= 0.44973E+01
  rms(prec ) = 0.49487E+01
  weight for this iteration     100.00

 eigenvalues of (default mixing * dielectric matrix)
  average eigenvalue GAMMA=   0.3832
  1.6269  0.6240  0.6240  0.3531  0.1325  0.1107  0.1107  0.0873  0.0873  0.0757

 Free energy of the ion-electron system (eV)
  ---------------------------------------------------
  alpha Z        PSCENC =      1573.28966429
  Ewald energy   TEWEN  =    228838.90334562
  -Hartree energ DENC   =   -292427.02018894
  -exchange      EXHF   =         0.00000000
  -V(xc)+E(xc)   XCENC  =      1097.04062501
  PAW double counting   =     69259.59111084   -72240.64060049
  entropy T*S    EENTRO =        -0.00356165
  eigenvalues    EBANDS =      -337.74621880
  atomic energy  EATOM  =     63733.65965817
  Solvation  Ediel_sol  =         0.00000000
  ---------------------------------------------------
  free energy    TOTEN  =      -502.92616595 eV

  energy without entropy =     -502.92260430  energy(sigma->0) =     -502.92497873


--------------------------------------------------------------------------------------------------------




--------------------------------------- Iteration      1(  16)  ---------------------------------------


    POTLOK:  cpu time    0.4082: real time    0.4092
    SETDIJ:  cpu time    0.0324: real time    0.0325
    EDDIAG:  cpu time    9.6519: real time    9.6784
  RMM-DIIS:  cpu time   33.4476: real time   33.5390
    ORTHCH:  cpu time    0.9428: real time    0.9454
       DOS:  cpu time    0.0020: real time    0.0020
    CHARGE:  cpu time    4.1861: real time    4.1975
    MIXING:  cpu time    0.0128: real time    0.0129
    --------------------------------------------
      LOOP:  cpu time   48.6840: real time   48.8170

 eigenvalue-minimisations  :  7879
 total energy-change (2. order) : 0.4194556E+00  (-0.5112530E+00)
 number of electron     737.0000247 magnetization      78.5895545
 augmentation part      376.9413394 magnetization      64.3246938

 Broyden mixing:
  rms(total) = 0.34525E+01    rms(broyden)= 0.34525E+01
  rms(prec ) = 0.37062E+01
  weight for this iteration     100.00

 eigenvalues of (default mixing * dielectric matrix)
  average eigenvalue GAMMA=   0.3517
  1.6228  0.6195  0.6195  0.3640  0.1286  0.1102  0.1102  0.0871  0.0871  0.0758
  0.0436

 Free energy of the ion-electron system (eV)
  ---------------------------------------------------
  alpha Z        PSCENC =      1573.28966429
  Ewald energy   TEWEN  =    228838.90334562
  -Hartree energ DENC   =   -292430.79987584
  -exchange      EXHF   =         0.00000000
  -V(xc)+E(xc)   XCENC  =      1096.64703187
  PAW double counting   =     69463.88599075   -72447.12512197
  entropy T*S    EENTRO =        -0.01883546
  eigenvalues    EBANDS =      -330.94856782
  atomic energy  EATOM  =     63733.65965817
  Solvation  Ediel_sol  =         0.00000000
  ---------------------------------------------------
  free energy    TOTEN  =      -502.50671040 eV

  energy without entropy =     -502.48787494  energy(sigma->0) =     -502.50043191


--------------------------------------------------------------------------------------------------------




--------------------------------------- Iteration      1(  17)  ---------------------------------------


    POTLOK:  cpu time    0.4099: real time    0.4113
    SETDIJ:  cpu time    0.0330: real time    0.0331
    EDDIAG:  cpu time    9.5781: real time    9.6048
  RMM-DIIS:  cpu time   33.1612: real time   33.2515
    ORTHCH:  cpu time    0.9348: real time    0.9374
       DOS:  cpu time    0.0020: real time    0.0020
    CHARGE:  cpu time    4.1912: real time    4.2027
    MIXING:  cpu time    0.0134: real time    0.0135
    --------------------------------------------
      LOOP:  cpu time   48.3236: real time   48.4562

 eigenvalue-minimisations  :  7865
 total energy-change (2. order) :-0.1114120E+01  (-0.3909117E-01)
 number of electron     737.0000247 magnetization      78.1215686
 augmentation part      376.8180615 magnetization      63.9343091

 Broyden mixing:
  rms(total) = 0.37284E+01    rms(broyden)= 0.37284E+01
  rms(prec ) = 0.40336E+01
  weight for this iteration     100.00

 eigenvalues of (default mixing * dielectric matrix)
  average eigenvalue GAMMA=   0.3285
  1.6223  0.6209  0.6209  0.3669  0.0849  0.1283  0.1108  0.1108  0.0872  0.0872
  0.0759  0.0266

 Free energy of the ion-electron system (eV)
  ---------------------------------------------------
  alpha Z        PSCENC =      1573.28966429
  Ewald energy   TEWEN  =    228838.90334562
[...]
   0.182E+00 -.225E+00 0.275E+04   -.183E+00 0.233E+00 -.274E+04   -.430E-03 0.130E-02 -.231E+01   -.331E-02 -.489E-02 -.857E-02
   -.355E+00 0.650E-01 0.275E+04   0.377E+00 -.747E-01 -.274E+04   -.198E-01 0.138E-01 -.225E+01   -.227E-03 -.696E-02 -.887E-02
   -.199E+00 0.195E+00 0.274E+04   0.227E+00 -.201E+00 -.274E+04   -.254E-01 0.620E-02 -.225E+01   0.546E-04 -.240E-02 -.654E-02
   0.905E-01 -.100E+01 0.139E+04   -.915E-01 0.993E+00 -.139E+04   -.685E-03 -.127E-02 -.166E+00   -.147E-02 0.110E-01 -.344E-01
   0.161E+00 0.652E+00 0.139E+04   -.169E+00 -.645E+00 -.139E+04   -.228E-02 -.257E-02 -.155E+00   0.647E-02 -.931E-02 -.368E-01
   -.644E+00 -.368E+00 -.127E+04   0.644E+00 0.336E+00 0.127E+04   0.713E-03 0.308E-01 0.165E+01   0.218E-02 0.247E-02 0.556E-02
   -.128E+00 0.234E+00 0.274E+04   0.122E+00 -.192E+00 -.274E+04   0.594E-02 -.453E-01 -.224E+01   -.753E-03 0.987E-02 -.119E-01
   0.523E+00 -.324E+00 0.139E+04   -.523E+00 0.318E+00 -.139E+04   -.238E-03 0.282E-02 -.158E+00   -.964E-02 0.919E-02 -.361E-01
   -.346E-01 0.181E+01 0.786E+02   0.362E-01 -.184E+01 -.783E+02   -.152E-02 0.302E-01 -.310E+00   -.563E-03 0.362E-02 -.288E-01
   -.232E+01 0.233E+00 -.127E+04   0.230E+01 -.243E+00 0.127E+04   0.230E-01 -.266E-02 0.165E+01   0.545E-02 0.498E-02 0.755E-02
   0.233E+01 -.101E+01 -.129E+04   -.241E+01 0.952E+00 0.129E+04   0.639E-01 0.577E-01 0.170E+01   0.826E-02 0.358E-02 -.844E-02
   -.789E+00 0.552E+00 -.128E+04   0.869E+00 -.516E+00 0.128E+04   -.816E-01 -.359E-01 0.162E+01   -.785E-02 -.401E-02 -.492E-02
   0.304E+00 -.108E+00 0.275E+04   -.277E+00 0.924E-01 -.274E+04   -.292E-01 0.133E-01 -.225E+01   0.425E-02 -.705E-03 -.134E-01
   0.391E-01 -.162E-01 0.275E+04   -.676E-01 0.137E-01 -.274E+04   0.251E-01 0.530E-02 -.228E+01   -.163E-03 -.423E-02 -.312E-02
   -.215E+00 -.311E-01 0.274E+04   0.182E+00 0.170E-01 -.274E+04   0.277E-01 0.321E-02 -.227E+01   0.361E-02 0.731E-02 -.584E-02
   0.894E+00 -.392E+00 0.140E+04   -.897E+00 0.399E+00 -.140E+04   -.110E-02 0.295E-02 -.158E+00   -.295E-02 -.439E-02 -.368E-01
   0.620E+00 -.117E+00 0.804E+02   -.642E+00 0.104E+00 -.802E+02   0.291E-01 0.234E-01 -.325E+00   0.761E-04 -.400E-02 -.274E-01
   0.586E-01 0.472E+00 0.140E+04   -.593E-01 -.471E+00 -.140E+04   0.229E-02 0.533E-02 -.160E+00   -.433E-02 -.465E-02 -.377E-01
   0.258E+00 0.277E+00 0.139E+04   -.275E+00 -.270E+00 -.139E+04   0.311E-02 -.359E-02 -.156E+00   -.132E-02 0.443E-02 -.389E-01
   -.791E-01 0.457E+01 -.128E+04   0.838E-01 -.466E+01 0.127E+04   -.494E-02 0.594E-01 0.162E+01   0.202E-02 0.670E-02 -.170E-02
   -.217E+00 0.424E-01 0.275E+04   0.207E+00 0.206E-02 -.274E+04   0.881E-02 -.301E-01 -.228E+01   0.279E-02 -.103E-01 -.787E-02
   0.926E+00 -.641E-01 0.140E+04   -.932E+00 0.715E-01 -.140E+04   0.756E-02 0.869E-02 -.169E+00   -.128E-02 -.695E-02 -.392E-01
   -.210E+00 -.114E+01 0.810E+02   0.208E+00 0.109E+01 -.808E+02   -.221E-02 0.566E-01 -.306E+00   0.460E-02 -.294E-02 -.268E-01
   -.772E-01 -.820E+00 -.129E+04   0.861E-01 0.901E+00 0.129E+04   -.608E-02 -.731E-01 0.170E+01   -.264E-02 -.106E-01 -.146E-01
   0.168E+00 -.312E+00 0.275E+04   -.175E+00 0.333E+00 -.274E+04   0.234E-02 -.244E-01 -.227E+01   0.136E-02 0.911E-02 -.160E-02
   0.283E+01 -.240E+01 -.127E+04   -.281E+01 0.240E+01 0.127E+04   -.191E-01 0.179E-01 0.167E+01   -.162E-02 -.920E-02 0.186E-02
   0.224E+00 -.359E+00 0.275E+04   -.228E+00 0.398E+00 -.274E+04   -.138E-02 -.355E-01 -.226E+01   0.157E-02 0.109E-02 -.693E-02
   0.401E+00 0.250E-01 0.139E+04   -.402E+00 -.291E-01 -.139E+04   0.848E-03 0.241E-03 -.157E+00   -.687E-02 0.115E-01 -.383E-01
   -.470E+00 0.169E-02 0.139E+04   0.463E+00 -.450E-02 -.139E+04   0.533E-02 0.462E-02 -.157E+00   0.543E-02 0.852E-02 -.359E-01
   0.199E+01 0.559E+00 -.127E+04   -.196E+01 -.565E+00 0.127E+04   -.275E-01 -.618E-02 0.165E+01   -.147E-02 0.524E-02 0.782E-02
   -.974E-01 -.977E-01 0.275E+04   0.577E-01 0.803E-01 -.274E+04   0.312E-01 0.131E-01 -.225E+01   -.246E-02 0.144E-02 -.143E-01
   0.481E-01 0.584E+00 0.139E+04   -.530E-01 -.577E+00 -.139E+04   0.290E-02 -.660E-02 -.155E+00   -.756E-03 -.794E-02 -.382E-01
   0.388E+00 -.373E+00 0.732E+02   -.384E+00 0.379E+00 -.728E+02   -.537E-02 0.555E-02 -.340E+00   -.312E-03 -.454E-02 -.488E-01
   -.327E+00 -.472E+00 0.139E+04   0.320E+00 0.472E+00 -.139E+04   0.770E-03 0.277E-02 -.155E+00   0.933E-02 0.487E-02 -.335E-01
   -.834E-01 -.481E+00 0.139E+04   0.808E-01 0.482E+00 -.139E+04   0.852E-03 0.506E-02 -.988E-01   0.180E-02 0.479E-02 -.395E-01
   -.721E+00 -.596E-01 0.804E+02   0.750E+00 0.495E-01 -.801E+02   -.281E-01 0.228E-01 -.323E+00   -.623E-02 -.658E-02 -.246E-01
   0.113E+01 0.161E+01 -.127E+04   -.115E+01 -.162E+01 0.127E+04   0.611E-02 0.148E-01 0.166E+01   0.974E-02 0.325E-02 0.263E-03
   -.212E+01 -.115E+01 -.129E+04   0.221E+01 0.110E+01 0.129E+04   -.764E-01 0.574E-01 0.169E+01   -.897E-02 0.669E-03 -.636E-02
   0.324E+00 0.123E+00 0.275E+04   -.353E+00 -.130E+00 -.274E+04   0.263E-01 0.706E-02 -.226E+01   -.408E-02 -.108E-02 -.569E-02
   -.129E+00 0.723E-01 0.275E+04   0.143E+00 -.747E-01 -.274E+04   -.155E-01 0.529E-02 -.227E+01   0.421E-02 -.490E-02 -.465E-02
   0.813E-01 -.217E+00 0.139E+04   -.870E-01 0.213E+00 -.139E+04   0.337E-03 0.349E-02 -.156E+00   0.371E-02 -.102E-01 -.443E-01
   0.147E+00 0.185E+00 0.139E+04   -.136E+00 -.176E+00 -.139E+04   -.805E-02 -.221E-02 -.155E+00   0.280E-02 0.190E-02 -.366E-01
   0.552E+00 0.856E+00 0.783E+02   -.503E+00 -.831E+00 -.781E+02   -.627E-01 -.362E-01 -.319E+00   0.959E-02 0.713E-02 -.220E-01
   0.158E+01 0.295E+00 -.128E+04   -.165E+01 -.258E+00 0.128E+04   0.728E-01 -.405E-01 0.162E+01   0.705E-02 -.190E-02 -.388E-02
   0.364E+00 -.149E+00 0.275E+04   -.336E+00 0.127E+00 -.274E+04   -.261E-01 0.112E-01 -.228E+01   -.421E-02 0.107E-01 -.567E-02
   -.140E+01 -.110E+01 0.782E+02   0.143E+01 0.111E+01 -.779E+02   -.149E-01 -.101E-01 -.315E+00   -.617E-02 0.277E-02 -.248E-01
   0.593E+00 -.120E+01 0.735E+02   -.625E+00 0.121E+01 -.732E+02   0.249E-01 0.761E-02 -.319E+00   0.767E-02 -.629E-02 -.377E-01
   -.111E+01 0.795E+00 0.748E+02   0.111E+01 -.825E+00 -.745E+02   0.226E-01 0.200E-01 -.307E+00   -.628E-03 0.236E-02 -.376E-01
   -.676E+00 -.741E+00 0.733E+02   0.705E+00 0.753E+00 -.730E+02   -.273E-01 0.126E-02 -.320E+00   -.297E-02 -.889E-02 -.349E-01
   0.136E+01 -.121E+01 0.783E+02   -.138E+01 0.122E+01 -.780E+02   0.213E-01 -.104E-01 -.315E+00   0.523E-02 0.105E-02 -.247E-01
   -.719E+00 0.983E-01 0.139E+04   0.716E+00 -.847E-01 -.139E+04   -.399E-02 0.392E-02 -.172E+00   0.198E-02 -.103E-01 -.392E-01
   0.123E-01 -.108E+01 0.810E+02   -.422E-02 0.111E+01 -.808E+02   -.242E-02 -.257E-01 -.319E+00   -.450E-02 0.181E-02 -.220E-01
   -.281E+01 -.237E+01 -.127E+04   0.281E+01 0.237E+01 0.127E+04   0.123E-01 0.125E-01 0.167E+01   -.345E-02 -.899E-02 0.468E-02
   0.288E+01 -.675E+00 -.127E+04   -.289E+01 0.654E+00 0.127E+04   -.225E-02 0.241E-01 0.166E+01   0.131E-01 0.427E-02 -.656E-03
   -.334E-01 -.355E+00 0.275E+04   0.267E-01 0.391E+00 -.274E+04   0.661E-02 -.346E-01 -.226E+01   -.337E-02 0.388E-02 -.855E-02
   0.510E+00 -.139E-01 0.275E+04   -.542E+00 0.550E-02 -.274E+04   0.221E-01 0.157E-01 -.226E+01   0.741E-03 -.799E-02 -.545E-02
   0.590E+00 0.984E+00 0.742E+02   -.584E+00 -.101E+01 -.739E+02   -.147E-01 0.249E-01 -.317E+00   0.663E-03 -.273E-02 -.335E-01
   -.111E+01 0.952E+00 0.799E+02   0.107E+01 -.932E+00 -.796E+02   0.654E-01 -.345E-01 -.316E+00   -.661E-02 0.989E-02 -.244E-01
   -.767E+00 -.397E+00 0.140E+04   0.770E+00 0.403E+00 -.140E+04   0.387E-02 -.284E-03 -.159E+00   -.272E-02 -.229E-02 -.388E-01
   -.629E+00 0.107E+01 0.738E+02   0.653E+00 -.105E+01 -.736E+02   -.174E-01 -.226E-01 -.315E+00   -.196E-02 0.313E-02 -.373E-01
   0.930E+00 0.928E+00 0.734E+02   -.946E+00 -.905E+00 -.731E+02   0.140E-01 -.253E-01 -.314E+00   -.150E-02 0.139E-02 -.359E-01
   0.427E+00 0.668E+00 -.292E+04   -.393E+00 -.660E+00 0.292E+04   -.751E-02 -.210E-01 0.209E+01   -.195E-01 -.286E-02 0.333E-02
   0.300E+01 0.127E+01 -.292E+04   -.300E+01 -.128E+01 0.292E+04   0.389E-01 -.822E-02 0.210E+01   -.832E-02 -.827E-02 0.135E-01
   0.169E+01 -.319E+01 -.292E+04   -.167E+01 0.319E+01 0.291E+04   -.131E-01 -.257E-01 0.210E+01   -.376E-02 0.179E-01 0.134E-01
   -.313E+01 0.119E+01 -.292E+04   0.314E+01 -.120E+01 0.292E+04   -.429E-01 -.347E-02 0.210E+01   0.651E-02 -.371E-02 0.164E-01
   -.151E+01 -.308E+01 -.292E+04   0.149E+01 0.308E+01 0.292E+04   0.854E-02 -.307E-01 0.210E+01   0.400E-02 0.219E-01 0.115E-01
   -.241E+01 0.400E+01 -.292E+04   0.243E+01 -.399E+01 0.291E+04   -.321E-01 -.267E-02 0.210E+01   0.554E-02 -.594E-02 0.920E-02
   -.970E-01 0.119E+01 -.292E+04   0.894E-01 -.118E+01 0.292E+04   0.911E-02 -.286E-01 0.208E+01   0.325E-02 0.130E-02 0.922E-02
   -.842E+00 0.852E+00 -.292E+04   0.804E+00 -.834E+00 0.292E+04   0.268E-01 -.350E-01 0.208E+01   0.169E-01 -.558E-02 0.284E-02
   -.474E-01 -.208E+01 -.293E+04   0.533E-01 0.205E+01 0.292E+04   -.772E-03 0.250E-02 0.208E+01   -.237E-02 0.131E-01 0.616E-02
   0.238E+01 0.372E+01 -.292E+04   -.240E+01 -.372E+01 0.291E+04   0.322E-01 -.749E-02 0.209E+01   -.146E-01 -.629E-02 0.449E-02
   0.621E-01 -.137E+02 -.292E+04   -.714E-01 0.146E+02 0.291E+04   0.159E-01 -.990E+00 0.177E+01   -.422E-02 0.166E-01 0.303E-01
   -.112E+02 0.605E+01 -.292E+04   0.120E+02 -.654E+01 0.292E+04   -.832E+00 0.520E+00 0.176E+01   0.168E-01 -.636E-03 0.403E-01
   -.112E+01 -.776E+00 -.291E+04   0.832E+00 0.945E+00 0.291E+04   0.316E+00 -.161E+00 0.222E+01   -.129E-01 -.123E-02 0.130E-01
   0.316E-01 0.553E+00 -.291E+04   -.311E-01 -.865E+00 0.291E+04   0.664E-02 0.331E+00 0.222E+01   0.349E-03 -.275E-01 0.103E-01
   0.107E+02 0.565E+01 -.292E+04   -.116E+02 -.618E+01 0.292E+04   0.921E+00 0.548E+00 0.190E+01   -.175E-01 0.565E-02 0.338E-01
   0.109E+01 -.883E+00 -.291E+04   -.795E+00 0.106E+01 0.291E+04   -.316E+00 -.168E+00 0.223E+01   0.137E-01 0.708E-03 0.133E-01
   0.462E+00 0.358E-01 -.352E+03   -.535E+00 -.659E-01 0.354E+03   0.510E-01 0.194E-01 -.165E+01   -.485E-04 -.574E-03 0.319E-02
 -----------------------------------------------------------------------------------------------
   -.164E+00 -.836E-01 -.133E+02   0.835E-13 -.456E-12 0.115E-10   0.169E+00 0.873E-01 0.141E+02   -.227E-01 0.799E-02 -.976E+00
 
 
 POSITION                                       TOTAL-FORCE (eV/Angst)
 -----------------------------------------------------------------------------------
     12.87912      7.94638      6.85015        -0.000587      0.012255     -0.007110
      4.95436      7.94846      6.85263         0.003193      0.007090      0.000236
      3.63708      5.66548      6.85545         0.003962      0.011105     -0.020392
     12.89069      7.93773      1.12741        -0.005136      0.003859      0.004607
      4.96971      7.93912      1.12853         0.002204     -0.003042     -0.002565
      3.64996      5.65178      1.12919         0.002461     -0.002264     -0.002605
      7.60878      1.84336      2.99165        -0.002941      0.002509      0.009252
      8.92835      8.70314      2.99118        -0.003102     -0.005058      0.015129
      2.31858      3.37467      6.85195         0.002571      0.001785     -0.008994
      2.33014      3.36655      1.12948        -0.000991      0.006270     -0.002569
     10.24821      1.84422      2.99131        -0.009136      0.006380      0.014885
     12.88188      4.89957      4.97517        -0.000133      0.000547      0.002301
      3.63555      1.09682      6.85079         0.003491     -0.007746      0.003709
      8.91088      5.65884      6.87535        -0.006485      0.002247     -0.002498
      4.96699      3.38431      6.85979        -0.008992     -0.003756     -0.007465
      3.65135      1.08064      1.12857         0.002055     -0.003340      0.001057
      8.92822      5.65256      1.12711        -0.003463     -0.001587      0.005221
      4.96947      3.36626      1.12979        -0.001891     -0.003655     -0.011559
     11.56837      8.70268      2.99081        -0.007589      0.004874      0.001106
     11.55926      7.18199      4.97336         0.007668      0.005877      0.002385
     12.88773      6.41669      2.99144        -0.002659      0.001456     -0.002546
      8.92877      4.13087      2.99094        -0.015161      0.008446      0.007291
      7.59886      7.95852      6.85520         0.001942     -0.025732      0.014690
      7.60872      7.93941      1.12826         0.000889      0.003929     -0.007571
     10.24764      6.41689      2.99007         0.000504      0.008996      0.008639
      2.32199      0.32279      4.97178         0.001398      0.000723      0.004072
      7.60052      3.38966      6.87758         0.000349      0.002746     -0.027183
      7.61014      3.36516      1.12844        -0.003118      0.005636      0.001836
      6.28438      1.08820      6.85190        -0.006787      0.008164     -0.004113
      6.29074      1.07989      1.12823        -0.003448      0.004869     -0.001381
     11.56758      4.13145      2.99207        -0.006732      0.007246      0.010813
      3.64852      4.13027      2.99330         0.004196      0.009891      0.010255
      1.00201      1.09633      6.84951         0.003325     -0.006044      0.005346
      1.01138      1.08038      1.12855        -0.010786     -0.002978     -0.000658
      6.28784      8.70360      2.99199        -0.002372     -0.007334      0.012647
      7.60277      4.89795      4.98225        -0.000900      0.006888      0.010754
      4.96921      1.84376      2.99252         0.003193      0.007624      0.016750
      2.32865      1.84375      2.99248         0.000138      0.010833      0.027147
     14.20349      7.18204      4.97374        -0.005136      0.005605      0.001064
     11.55882      5.66450      6.85492         0.000216      0.010727     -0.019684
      6.28795      5.65968      6.87440         0.007364      0.001733     -0.004354
     11.56997      5.65227      1.12748        -0.006697     -0.000768      0.000673
      6.28879      5.65201      1.12872         0.002259     -0.002169     -0.000136
      7.60795      6.41722      2.99124        -0.001417     -0.011529      0.010118
      6.28923      4.13040      2.99242         0.005449      0.009029      0.008423
      3.64958      2.61802      4.97464        -0.003733     -0.004775      0.000640
     10.23489      3.38264      6.85807         0.010330     -0.005389     -0.003616
     10.25111      3.36601      1.12793        -0.002469     -0.000343     -0.004619
     10.24017      0.32522      4.97514         0.004389      0.005539     -0.001740
      8.91939      7.17666      4.98150         0.001085      0.009047     -0.009031
     10.23174      4.90375      4.98027         0.017656     -0.008182      0.005350
      6.28401      7.17826      4.98155        -0.001163      0.004394     -0.007307
      4.96253      0.32477      4.97490         0.001514      0.005789     -0.000568
      4.96835      6.41701      2.99223        -0.004829      0.007125      0.001970
      7.60135      0.32455      4.97271         0.001510      0.000825      0.005422
      8.91239      1.08837      6.85281         0.010715      0.005530     -0.003961
     10.24161      7.94894      6.85232         0.001643      0.006816      0.000150
      8.93102      1.07962      1.12774        -0.003274      0.005500      0.000839
     10.25010      7.93928      1.12746        -0.008101     -0.000815     -0.003224
      4.97065      4.90379      4.98077        -0.009092     -0.005387      0.000337
     11.55469      2.61821      4.97290         0.012184     -0.004301      0.002584
     14.20725      8.70303      2.99122         0.004053      0.002801     -0.000691
      8.91594      2.61798      4.98134         0.005477     -0.001275     -0.001143
      6.28925      2.61827      4.98176        -0.004005     -0.001816     -0.001131
     14.19729      8.72074      8.99988         0.008594     -0.014944     -0.000396
      3.63069      4.14740      8.99583         0.031353     -0.023927      0.000286
      6.27447      8.72491      8.99247         0.004371     -0.008899     -0.005832
     11.56558      4.14687      8.99626        -0.027310     -0.019761     -0.006517
      8.91953      8.72569      8.99384        -0.001065     -0.006807     -0.007520
     10.24151      1.85508      8.99181        -0.004771      0.000630     -0.001693
      2.31709      1.86166      8.99596         0.005071     -0.017101      0.001694
     11.55440      8.72174      8.99982         0.003417     -0.021025     -0.001410
     12.87651      6.43307      9.00259         0.002711     -0.010171     -0.003603
      4.95308      1.85699      8.99275         0.005297     -0.006515      0.000375
      7.59675      6.46793      9.05146         0.002155     -0.012798     -0.009155
      8.94827      4.12716      9.05831        -0.003620      0.021535     -0.018418
      4.94028      6.44161      8.99434         0.017330      0.008746      0.000373
      7.59665      1.84213      8.99523         0.007768     -0.011583     -0.003759
      6.24945      4.12997      9.05487         0.000940      0.014155     -0.008697
     10.25381      6.44159      8.99391        -0.006525      0.006804     -0.001334
      7.61851      4.92110     10.05748        -0.022773     -0.011756      0.008317
 -----------------------------------------------------------------------------------
    total drift:                               -0.016867      0.011716     -0.165758


--------------------------------------------------------------------------------------------------------



  FREE ENERGIE OF THE ION-ELECTRON SYSTEM (eV)
  ---------------------------------------------------
  free  energy   TOTEN  =      -553.70125749 eV

  energy  without entropy=     -553.67126649  energy(sigma->0) =     -553.69126049
 
 d Force = 0.1756526E-02[ 0.774E-03, 0.274E-02]  d Energy = 0.1725312E-02 0.312E-04
 d Force =-0.4385649E+02[-0.439E+02,-0.438E+02]  d Ewald  =-0.4385650E+02 0.795E-05


--------------------------------------------------------------------------------------------------------


    POTLOK:  cpu time    0.4383: real time    0.4393


--------------------------------------------------------------------------------------------------------


 Conjugate gradient step on ions:
 trial-energy change:   -0.001725  1 .order   -0.001757   -0.002739   -0.000774
  (g-gl).g = 0.220E-02      g.g   = 0.204E-02  gl.gl    = 0.539E-02
 g(Force)  = 0.204E-02   g(Stress)= 0.000E+00 ortho     =-0.535E-04
 gamma     =   0.40884
 trial     =   1.35808
 opt step  =   1.89312  (harmonic =   1.89312) maximal distance =0.00398339
 next E    =  -553.701441   (d E  =  -0.00191)


--------------------------------------------------------------------------------------------------------


  
 reached required accuracy - stopping structural energy minimisation
     LOOP+:  cpu time  622.7645: real time  624.4407
    4ORBIT:  cpu time    0.0000: real time    0.0000

 total amount of memory used by VASP MPI-rank0   227769. kBytes
=======================================================================

   base      :      30000. kBytes
   nonlr-proj:      30520. kBytes
   fftplans  :      17962. kBytes
   grid      :      48722. kBytes
   one-center:        653. kBytes
   wavefun   :      99912. kBytes
 
  
  
 General timing and accounting informations for this job:
 ========================================================
  
                  Total CPU time used (sec):    17239.789
                            User time (sec):    17226.210
                          System time (sec):       13.580
                         Elapsed time (sec):    17287.149
  
                   Maximum memory used (kb):      963124.
                   Average memory used (kb):           0.
  
                          Minor page faults:      3291297
                          Major page faults:            0
                 Voluntary context switches:         6692
