 vasp.5.4.4.18Apr17-6-g9f103f2a35 (build Nov 30 2020 22:55:02) complex          
  
 executed on             LinuxIFC date 2023.07.29  23:16:57
 running on   40 total cores
 distrk:  each k-point on   40 cores,    1 groups
 distr:  one band on NCORES_PER_BAND=   4 cores,   10 groups


--------------------------------------------------------------------------------------------------------


 INCAR:
 POTCAR:    PAW_PBE Pt 04Feb2005                  
 POTCAR:    PAW_PBE Cu 22Jun2005                  
 POTCAR:    PAW_PBE Ni 02Aug2007                  
 POTCAR:    PAW_PBE Fe 06Sep2000                  
 POTCAR:    PAW_PBE Co 02Aug2007                  
 POTCAR:    PAW_PBE H 15Jun2001                   
 POTCAR:    PAW_PBE Pt 04Feb2005                  
   VRHFIN =Pt: s1d9                                                             
   LEXCH  = PE                                                                  
   EATOM  =   729.1176 eV,   53.5886 Ry                                         
                                                                                
   TITEL  = PAW_PBE Pt 04Feb2005                                                
   LULTRA =        F    use ultrasoft PP ?                                      
   IUNSCR =        1    unscreen: 0-lin 1-nonlin 2-no                           
   RPACOR =    2.330    partial core radius                                     
   POMASS =  195.080; ZVAL   =   10.000    mass and valenz                      
   RCORE  =    2.600    outmost cutoff radius                                   
   RWIGS  =    2.750; RWIGS  =    1.455    wigner-seitz radius (au A)           
   ENMAX  =  230.283; ENMIN  =  172.712 eV                                      
   ICORE  =        3    local potential                                         
   LCOR   =        T    correct aug charges                                     
   LPAW   =        T    paw PP                                                  
   EAUG   =  358.966                                                            
   DEXC   =    0.000                                                            
   RMAX   =    2.658    core radius for proj-oper                               
   RAUG   =    1.300    factor for augmentation sphere                          
   RDEP   =    2.761    radius for radial grids                                 
   RDEPT  =    2.203    core radius for aug-charge                              
                                                                                
   Atomic configuration                                                         
   16 entries                                                                   
     n  l   j            E        occ.                                          
     1  0  0.50    -78401.1885   2.0000                                         
     2  0  0.50    -13770.7750   2.0000                                         
     2  1  1.50    -11931.0468   6.0000                                         
     3  0  0.50     -3234.7234   2.0000                                         
     3  1  1.50     -2699.2216   6.0000                                         
     3  2  2.50     -2119.5714  10.0000                                         
     4  0  0.50      -695.1528   2.0000                                         
     4  1  1.50      -519.6034   6.0000                                         
     4  2  2.50      -306.6786  10.0000                                         
     4  3  3.50       -70.1041  14.0000                                         
     5  0  0.50      -101.7747   2.0000                                         
     5  1  1.50       -55.9873   6.0000                                         
     5  2  2.50        -6.1423   9.0000                                         
     6  0  0.50        -5.6573   1.0000                                         
     6  1  1.50        -6.8029   0.0000                                         
     5  3  2.50        -1.3606   0.0000                                         
   Description                                                                  
     l       E           TYP  RCUT    TYP  RCUT                                 
     2     -6.1423404     23  2.500                                             
     2     -7.5029230     23  2.500                                             
     0     -5.6573207     23  2.500                                             
     0      0.7416693     23  2.500                                             
     1     -2.7211652     23  2.600                                             
     1     20.4087390     23  2.600                                             
     3     -1.3605826     23  2.500                                             
  local pseudopotential read in
  partial core-charges read in
  partial kinetic energy density read in
  atomic valenz-charges read in
  non local Contribution for L=           2  read in
    real space projection operators read in
  non local Contribution for L=           2  read in
    real space projection operators read in
  non local Contribution for L=           0  read in
    real space projection operators read in
  non local Contribution for L=           0  read in
    real space projection operators read in
  non local Contribution for L=           1  read in
    real space projection operators read in
  non local Contribution for L=           1  read in
    real space projection operators read in
    PAW grid and wavefunctions read in
 
   number of l-projection  operators is LMAX  =           6
   number of lm-projection operators is LMMAX =          18
 
 POTCAR:    PAW_PBE Cu 22Jun2005                  
   VRHFIN =Cu: d10 p1                                                           
   LEXCH  = PE                                                                  
   EATOM  =  1390.9808 eV,  102.2342 Ry                                         
                                                                                
   TITEL  = PAW_PBE Cu 22Jun2005                                                
   LULTRA =        F    use ultrasoft PP ?                                      
   IUNSCR =        1    unscreen: 0-lin 1-nonlin 2-no                           
   RPACOR =    2.000    partial core radius                                     
   POMASS =   63.546; ZVAL   =   11.000    mass and valenz                      
   RCORE  =    2.300    outmost cutoff radius                                   
   RWIGS  =    2.200; RWIGS  =    1.164    wigner-seitz radius (au A)           
   ENMAX  =  295.446; ENMIN  =  221.585 eV                                      
   ICORE  =        3    local potential                                         
   LCOR   =        T    correct aug charges                                     
   LPAW   =        T    paw PP                                                  
   EAUG   =  586.980                                                            
   DEXC   =    0.000                                                            
   RMAX   =    2.344    core radius for proj-oper                               
   RAUG   =    1.300    factor for augmentation sphere                          
   RDEP   =    2.302    radius for radial grids                                 
   RDEPT  =    1.771    core radius for aug-charge                              
                                                                                
   Atomic configuration                                                         
    9 entries                                                                   
     n  l   j            E        occ.                                          
     1  0  0.50     -8850.2468   2.0000                                         
     2  0  0.50     -1062.3498   2.0000                                         
     2  1  1.50      -916.8226   6.0000                                         
     3  0  0.50      -114.6929   2.0000                                         
     3  1  1.50       -72.1325   6.0000                                         
     3  2  2.50        -5.0394  10.0000                                         
     4  0  0.50        -4.6097   1.0000                                         
     4  1  0.50        -4.0817   0.0000                                         
     4  3  2.50        -1.3606   0.0000                                         
   Description                                                                  
     l       E           TYP  RCUT    TYP  RCUT                                 
     2     -5.0393973     23  2.200                                             
     2     10.8846608     23  2.200                                             
     0     -4.6097109     23  2.200                                             
     0      8.2520465     23  2.200                                             
     1     -2.7211652     23  2.200                                             
     1     21.7055443     23  2.200                                             
     3      2.7211652     23  2.300                                             
  local pseudopotential read in
  partial core-charges read in
  partial kinetic energy density read in
  atomic valenz-charges read in
  non local Contribution for L=           2  read in
    real space projection operators read in
  non local Contribution for L=           2  read in
    real space projection operators read in
  non local Contribution for L=           0  read in
    real space projection operators read in
  non local Contribution for L=           0  read in
    real space projection operators read in
  non local Contribution for L=           1  read in
    real space projection operators read in
  non local Contribution for L=           1  read in
    real space projection operators read in
    PAW grid and wavefunctions read in
 
   number of l-projection  operators is LMAX  =           6
   number of lm-projection operators is LMMAX =          18
 
 POTCAR:    PAW_PBE Ni 02Aug2007                  
   VRHFIN =Ni:                                                                  
   LEXCH  = PE                                                                  
   EATOM  =  1077.6739 eV,   79.2068 Ry                                         
                                                                                
   TITEL  = PAW_PBE Ni 02Aug2007                                                
   LULTRA =        F    use ultrasoft PP ?                                      
   IUNSCR =        1    unscreen: 0-lin 1-nonlin 2-no                           
   RPACOR =    2.000    partial core radius                                     
   POMASS =   58.690; ZVAL   =   10.000    mass and valenz                      
   RCORE  =    2.300    outmost cutoff radius                                   
   RWIGS  =    2.430; RWIGS  =    1.286    wigner-seitz radius (au A)           
   ENMAX  =  269.532; ENMIN  =  202.149 eV                                      
   RCLOC  =    1.201    cutoff for local pot                                    
   LCOR   =        T    correct aug charges                                     
   LPAW   =        T    paw PP                                                  
   EAUG   =  544.565                                                            
   DEXC   =    0.000                                                            
   RMAX   =    2.357    core radius for proj-oper                               
   RAUG   =    1.300    factor for augmentation sphere                          
   RDEP   =    2.390    radius for radial grids                                 
   RDEPT  =    1.838    core radius for aug-charge                              
                                                                                
   Atomic configuration                                                         
    9 entries                                                                   
     n  l   j            E        occ.                                          
     1  0  0.50     -8206.4253   2.0000                                         
     2  0  0.50      -976.1748   2.0000                                         
     2  1  1.50      -839.0571   6.0000                                         
     3  0  0.50      -105.9991   2.0000                                         
     3  1  1.50       -66.4603   6.0000                                         
     3  2  2.50        -4.6458   9.0000                                         
     4  0  0.50        -4.4926   1.0000                                         
     4  1  1.50        -4.0817   0.0000                                         
     4  3  2.50        -1.3606   0.0000                                         
   Description                                                                  
     l       E           TYP  RCUT    TYP  RCUT                                 
     2     -4.6457903     23  2.300                                             
     2     -6.0063729     23  2.300                                             
     0     -4.4925590     23  2.300                                             
     0      5.0102601     23  2.300                                             
     1     -2.7211652     23  2.300                                             
     1     16.5183231     23  2.300                                             
  local pseudopotential read in
  partial core-charges read in
  partial kinetic energy density read in
  atomic valenz-charges read in
  non local Contribution for L=           2  read in
    real space projection operators read in
  non local Contribution for L=           2  read in
    real space projection operators read in
  non local Contribution for L=           0  read in
    real space projection operators read in
  non local Contribution for L=           0  read in
    real space projection operators read in
  non local Contribution for L=           1  read in
    real space projection operators read in
  non local Contribution for L=           1  read in
    real space projection operators read in
    PAW grid and wavefunctions read in
 
   number of l-projection  operators is LMAX  =           6
   number of lm-projection operators is LMMAX =          18
 
 POTCAR:    PAW_PBE Fe 06Sep2000                  
   VRHFIN =Fe:  d7 s1                                                           
   LEXCH  = PE                                                                  
   EATOM  =   594.3153 eV,   43.6809 Ry                                         
                                                                                
   TITEL  = PAW_PBE Fe 06Sep2000                                                
   LULTRA =        F    use ultrasoft PP ?                                      
   IUNSCR =        1    unscreen: 0-lin 1-nonlin 2-no                           
   RPACOR =    2.000    partial core radius                                     
   POMASS =   55.847; ZVAL   =    8.000    mass and valenz                      
   RCORE  =    2.300    outmost cutoff radius                                   
   RWIGS  =    2.460; RWIGS  =    1.302    wigner-seitz radius (au A)           
   ENMAX  =  267.882; ENMIN  =  200.911 eV                                      
   RCLOC  =    1.701    cutoff for local pot                                    
   LCOR   =        T    correct aug charges                                     
   LPAW   =        T    paw PP                                                  
   EAUG   =  511.368                                                            
   DEXC   =    0.000                                                            
   RMAX   =    2.356    core radius for proj-oper                               
   RAUG   =    1.300    factor for augmentation sphere                          
   RDEP   =    2.442    radius for radial grids                                 
   RDEPT  =    1.890    core radius for aug-charge                              
                                                                                
   Atomic configuration                                                         
    9 entries                                                                   
     n  l   j            E        occ.                                          
     1  0  0.50     -6993.8440   2.0000                                         
     2  0  0.50      -814.6047   2.0000                                         
     2  1  1.50      -693.3689   6.0000                                         
     3  0  0.50       -89.4732   2.0000                                         
     3  1  1.50       -55.6373   6.0000                                         
     3  2  2.50        -3.8151   7.0000                                         
     4  0  0.50        -4.2551   1.0000                                         
     4  1  1.50        -3.4015   0.0000                                         
     4  3  2.50        -1.3606   0.0000                                         
   Description                                                                  
     l       E           TYP  RCUT    TYP  RCUT                                 
     2     -3.8151135     23  2.300                                             
     2     -5.1756961     23  2.300                                             
     0     -4.2550963     23  2.300                                             
     0      7.2035603     23  2.300                                             
     1     -2.7211652     23  2.300                                             
     1     18.4316424     23  2.300                                             
  local pseudopotential read in
  partial core-charges read in
  partial kinetic energy density read in
  atomic valenz-charges read in
  non local Contribution for L=           2  read in
    real space projection operators read in
  non local Contribution for L=           2  read in
    real space projection operators read in
  non local Contribution for L=           0  read in
    real space projection operators read in
  non local Contribution for L=           0  read in
    real space projection operators read in
  non local Contribution for L=           1  read in
    real space projection operators read in
  non local Contribution for L=           1  read in
    real space projection operators read in
    PAW grid and wavefunctions read in
 
   number of l-projection  operators is LMAX  =           6
   number of lm-projection operators is LMMAX =          18
 
 POTCAR:    PAW_PBE Co 02Aug2007                  
   VRHFIN =Co: d8 s1                                                            
   LEXCH  = PE                                                                  
   EATOM  =   813.3670 eV,   59.7808 Ry                                         
                                                                                
   TITEL  = PAW_PBE Co 02Aug2007                                                
   LULTRA =        F    use ultrasoft PP ?                                      
   IUNSCR =        1    unscreen: 0-lin 1-nonlin 2-no                           
   RPACOR =    2.000    partial core radius                                     
   POMASS =   58.933; ZVAL   =    9.000    mass and valenz                      
   RCORE  =    2.300    outmost cutoff radius                                   
   RWIGS  =    2.460; RWIGS  =    1.302    wigner-seitz radius (au A)           
   ENMAX  =  267.968; ENMIN  =  200.976 eV                                      
   RCLOC  =    1.203    cutoff for local pot                                    
   LCOR   =        T    correct aug charges                                     
   LPAW   =        T    paw PP                                                  
   EAUG   =  477.818                                                            
   DEXC   =    0.000                                                            
   RMAX   =    2.360    core radius for proj-oper                               
   RAUG   =    1.300    factor for augmentation sphere                          
   RDEP   =    2.393    radius for radial grids                                 
   RDEPT  =    1.864    core radius for aug-charge                              
                                                                                
   Atomic configuration                                                         
    9 entries                                                                   
     n  l   j            E        occ.                                          
     1  0  0.50     -7587.6674   2.0000                                         
     2  0  0.50      -893.6084   2.0000                                         
     2  1  1.50      -764.5805   6.0000                                         
     3  0  0.50       -97.5973   2.0000                                         
     3  1  1.50       -60.9648   6.0000                                         
     3  2  2.50        -4.2382   8.0000                                         
     4  0  0.50        -4.3746   1.0000                                         
     4  1  1.50        -4.0817   0.0000                                         
     4  3  2.50        -1.3606   0.0000                                         
   Description                                                                  
     l       E           TYP  RCUT    TYP  RCUT                                 
     2     -4.2382362     23  2.300                                             
     2     -5.5988188     23  2.300                                             
     0     -4.3745797     23  2.300                                             
     0      5.7660125     23  2.300                                             
     1     -2.7211652     23  2.300                                             
     1     16.9860234     23  2.300                                             
  local pseudopotential read in
  partial core-charges read in
  partial kinetic energy density read in
  atomic valenz-charges read in
  non local Contribution for L=           2  read in
    real space projection operators read in
  non local Contribution for L=           2  read in
    real space projection operators read in
  non local Contribution for L=           0  read in
    real space projection operators read in
  non local Contribution for L=           0  read in
    real space projection operators read in
  non local Contribution for L=           1  read in
    real space projection operators read in
  non local Contribution for L=           1  read in
    real space projection operators read in
    PAW grid and wavefunctions read in
 
   number of l-projection  operators is LMAX  =           6
   number of lm-projection operators is LMMAX =          18
 
 POTCAR:    PAW_PBE H 15Jun2001                   
   VRHFIN =H: ultrasoft test                                                    
   LEXCH  = PE                                                                  
   EATOM  =    12.4884 eV,    0.9179 Ry                                         
                                                                                
   TITEL  = PAW_PBE H 15Jun2001                                                 
   LULTRA =        F    use ultrasoft PP ?                                      
   IUNSCR =        0    unscreen: 0-lin 1-nonlin 2-no                           
   RPACOR =    0.000    partial core radius                                     
   POMASS =    1.000; ZVAL   =    1.000    mass and valenz                      
   RCORE  =    1.100    outmost cutoff radius                                   
   RWIGS  =    0.700; RWIGS  =    0.370    wigner-seitz radius (au A)           
   ENMAX  =  250.000; ENMIN  =  200.000 eV                                      
   RCLOC  =    0.701    cutoff for local pot                                    
   LCOR   =        T    correct aug charges                                     
   LPAW   =        T    paw PP                                                  
   EAUG   =  400.000                                                            
   RMAX   =    1.123    core radius for proj-oper                               
   RAUG   =    1.200    factor for augmentation sphere                          
   RDEP   =    1.112    radius for radial grids                                 
   RDEPT  =    0.926    core radius for aug-charge                              
                                                                                
   Atomic configuration                                                         
    2 entries                                                                   
     n  l   j            E        occ.                                          
     1  0  0.50        -6.4927   1.0000                                         
     2  1  0.50        -3.4015   0.0000                                         
   Description                                                                  
     l       E           TYP  RCUT    TYP  RCUT                                 
     0     -6.4927494     23  1.100                                             
     0      6.8029130     23  1.100                                             
     1     -4.0817478     23  1.100                                             
  local pseudopotential read in
  atomic valenz-charges read in
  non local Contribution for L=           0  read in
    real space projection operators read in
  non local Contribution for L=           0  read in
    real space projection operators read in
  non local Contribution for L=           1  read in
    real space projection operators read in
    PAW grid and wavefunctions read in
 
   number of l-projection  operators is LMAX  =           3
   number of lm-projection operators is LMMAX =           5
 
 Optimization of the real space projectors (new method)

 maximal supplied QI-value         = 14.36
 optimisation between [QCUT,QGAM] = [ 11.92, 23.98] = [ 39.79,161.09] Ry 
 Optimized for a Real-space Cutoff    1.49 Angstroem

   l    n(q)    QCUT    max X(q) W(low)/X(q) W(high)/X(q)  e(spline) 
   2     10    11.920    66.195    0.79E-04    0.18E-03    0.24E-06
   2     10    11.920    64.643    0.81E-04    0.19E-03    0.24E-06
   0     11    11.920    95.520    0.28E-04    0.54E-04    0.18E-06
   0     11    11.920    63.403    0.27E-04    0.52E-04    0.17E-06
   1     10    11.920    19.961    0.18E-04    0.11E-03    0.23E-06
   1     10    11.920    13.289    0.25E-04    0.87E-04    0.19E-06
 Optimization of the real space projectors (new method)

 maximal supplied QI-value         = 16.25
 optimisation between [QCUT,QGAM] = [ 11.86, 23.89] = [ 39.41,159.82] Ry 
 Optimized for a Real-space Cutoff    1.49 Angstroem

   l    n(q)    QCUT    max X(q) W(low)/X(q) W(high)/X(q)  e(spline) 
   2     10    11.864     4.610    0.10E-03    0.20E-03    0.29E-06
   2     10    11.864     8.522    0.17E-03    0.33E-03    0.50E-06
   0     11    11.864    51.609    0.52E-04    0.55E-04    0.33E-06
   0     11    11.864    27.747    0.46E-04    0.52E-04    0.31E-06
   1     10    11.864    20.408    0.54E-04    0.25E-04    0.21E-06
   1     10    11.864    13.425    0.48E-04    0.22E-04    0.18E-06
 Optimization of the real space projectors (new method)

 maximal supplied QI-value         = 16.25
 optimisation between [QCUT,QGAM] = [ 11.86, 23.89] = [ 39.41,159.82] Ry 
 Optimized for a Real-space Cutoff    1.33 Angstroem

   l    n(q)    QCUT    max X(q) W(low)/X(q) W(high)/X(q)  e(spline) 
   2      9    11.864    60.317    0.21E-03    0.51E-03    0.25E-06
   2      9    11.864    55.921    0.21E-03    0.51E-03    0.26E-06
   0      9    11.864    51.690    0.22E-03    0.30E-04    0.17E-06
   0      9    11.864    30.015    0.20E-03    0.28E-04    0.15E-06
   1      9    11.864    18.849    0.76E-04    0.33E-03    0.17E-06
   1      9    11.864    14.624    0.60E-04    0.28E-03    0.15E-06
 Optimization of the real space projectors (new method)

 maximal supplied QI-value         = 16.25
 optimisation between [QCUT,QGAM] = [ 11.86, 23.89] = [ 39.41,159.82] Ry 
 Optimized for a Real-space Cutoff    1.49 Angstroem

   l    n(q)    QCUT    max X(q) W(low)/X(q) W(high)/X(q)  e(spline) 
   2     10    11.864    80.901    0.13E-03    0.23E-03    0.37E-06
   2     10    11.864    75.754    0.13E-03    0.23E-03    0.38E-06
   0     11    11.864    58.752    0.44E-04    0.11E-04    0.20E-06
   0     11    11.864    30.679    0.36E-04    0.10E-04    0.18E-06
   1     10    11.864    17.977    0.31E-04    0.45E-04    0.10E-06
   1     10    11.864    13.559    0.25E-04    0.37E-04    0.89E-07
 Optimization of the real space projectors (new method)

 maximal supplied QI-value         = 16.25
 optimisation between [QCUT,QGAM] = [ 11.86, 23.89] = [ 39.41,159.82] Ry 
 Optimized for a Real-space Cutoff    1.33 Angstroem

   l    n(q)    QCUT    max X(q) W(low)/X(q) W(high)/X(q)  e(spline) 
   2      9    11.864    65.824    0.22E-03    0.53E-03    0.26E-06
   2      9    11.864    61.429    0.22E-03    0.53E-03    0.26E-06
   0      9    11.864    56.174    0.21E-03    0.32E-04    0.15E-06
   0      9    11.864    31.263    0.19E-03    0.30E-04    0.14E-06
   1      9    11.864    19.828    0.63E-04    0.30E-03    0.16E-06
   1      9    11.864    15.139    0.49E-04    0.25E-03    0.13E-06
 Optimization of the real space projectors (new method)

 maximal supplied QI-value         = 34.20
 optimisation between [QCUT,QGAM] = [ 11.97, 23.94] = [ 40.13,160.53] Ry 
 Optimized for a Real-space Cutoff    1.18 Angstroem

   l    n(q)    QCUT    max X(q) W(low)/X(q) W(high)/X(q)  e(spline) 
   0      8    11.971    19.460    0.15E-03    0.31E-03    0.25E-06
   0      8    11.971    12.209    0.13E-03    0.29E-03    0.25E-06
   1      8    11.971     4.655    0.22E-03    0.24E-03    0.21E-06
  PAW_PBE Pt 04Feb2005                  :
 energy of atom  1       EATOM= -729.1176
 kinetic energy error for atom=    0.0021 (will be added to EATOM!!)
  PAW_PBE Cu 22Jun2005                  :
 energy of atom  2       EATOM=-1390.9808
 kinetic energy error for atom=    0.0036 (will be added to EATOM!!)
  PAW_PBE Ni 02Aug2007                  :
 energy of atom  3       EATOM=-1077.6739
 kinetic energy error for atom=    0.0027 (will be added to EATOM!!)
  PAW_PBE Fe 06Sep2000                  :
 energy of atom  4       EATOM= -594.3153
 kinetic energy error for atom=    0.0024 (will be added to EATOM!!)
  PAW_PBE Co 02Aug2007                  :
 energy of atom  5       EATOM= -813.3670
 kinetic energy error for atom=    0.0026 (will be added to EATOM!!)
  PAW_PBE H 15Jun2001                   :
 energy of atom  6       EATOM=  -12.4884
 kinetic energy error for atom=    0.0008 (will be added to EATOM!!)
 
 
 POSCAR: 10.56                                   
  positions in direct lattice
  velocities in cartesian coordinates
 exchange correlation table for  LEXCH =        8
   RHO(1)=    0.500       N(1)  =     2000
   RHO(2)=  100.500       N(2)  =     4000
 


--------------------------------------------------------------------------------------------------------


 ion  position               nearest neighbor table
   1  0.790  0.877  0.316-  49 2.55  59 2.56  19 2.63  33 2.66  61 2.67  60 2.67  29 2.68  28 2.69
                             2 2.71   4 2.81  11 2.84  12 2.86
   2  0.044  0.882  0.316-  79 2.55  77 2.56  60 2.62  30 2.64  22 2.65  28 2.66  52 2.68   1 2.71
                            33 2.74   6 2.78   4 2.86  16 2.90
   3  0.287  0.379  0.320-  64 2.57  39 2.60  33 2.60  68 2.64  31 2.65  19 2.68  43 2.69  30 2.71
                            18 2.78   5 2.79  25 2.82  13 2.82
   4  0.869  0.962  0.424-  17 2.61  11 2.62  12 2.66  60 2.68   9 2.68  16 2.72   6 2.76   1 2.81
                             2 2.86
   5  0.124  0.459  0.427-  10 2.60  16 2.61   7 2.62  12 2.63  13 2.63  25 2.67  39 2.78  33 2.79
                             3 2.79
   6  0.129  0.964  0.421-   8 2.59  10 2.60  14 2.66   9 2.68  16 2.75   4 2.76   2 2.78  52 2.80
                            22 2.85
   7  0.875  0.460  0.423-  81 1.78   9 2.61  12 2.61   5 2.62  10 2.63  15 2.63  27 2.67  39 2.70
                            29 2.74  75 2.77
   8  0.377  0.960  0.419-   6 2.59  11 2.60  27 2.61  14 2.64  43 2.64  13 2.64  10 2.66  61 2.67
                            52 2.70
   9  0.873  0.214  0.422-   7 2.61  15 2.61  17 2.64  60 2.65  10 2.65   6 2.68  75 2.68   4 2.68
                            22 2.83
  10  0.125  0.212  0.423-   6 2.60   5 2.60  13 2.62   7 2.63   9 2.65   8 2.66  39 2.73  43 2.74
                            22 2.84
  11  0.622  0.961  0.424-   8 2.60   4 2.62  27 2.62  13 2.63  17 2.66  12 2.66  61 2.81  19 2.83
                             1 2.84
  12  0.874  0.708  0.425-   7 2.61   5 2.63  27 2.63  16 2.66   4 2.66  11 2.66  33 2.75  29 2.81
                             1 2.86
  13  0.374  0.210  0.428-  10 2.62  11 2.63   5 2.63   8 2.64  17 2.65  25 2.65   3 2.82  43 2.84
                            19 2.90
  14  0.378  0.710  0.426-  27 2.60  15 2.62   8 2.64  25 2.64   6 2.66  16 2.67  44 2.74  30 2.79
                            52 2.86
  15  0.625  0.461  0.424-  81 1.77   9 2.61  14 2.62   7 2.63  27 2.64  25 2.64  17 2.65  44 2.74
                            18 2.77  75 2.80
  16  0.127  0.705  0.425-  25 2.60   5 2.61  12 2.66  14 2.67   4 2.72   6 2.75  33 2.75  30 2.79
                             2 2.90
  17  0.624  0.211  0.425-   4 2.61  25 2.63   9 2.64  15 2.65  13 2.65  11 2.66  60 2.73  18 2.77
                            19 2.90
  18  0.554  0.371  0.318-  67 2.54  75 2.55  60 2.56  68 2.60  26 2.67  44 2.68  19 2.72  30 2.75
                            15 2.77  17 2.77   3 2.78  25 2.90
  19  0.537  0.122  0.315-  59 2.54  68 2.54  80 2.54  43 2.60  61 2.61   1 2.63   3 2.68  18 2.72
                            60 2.75  11 2.83  13 2.90  17 2.90
  20  0.547  0.122  0.038-  57 2.54  37 2.59  48 2.60  62 2.60  47 2.60  34 2.65  45 2.68  63 2.71
                            56 2.75
  21  0.124  0.462  0.127-  36 2.55  47 2.57  40 2.58  58 2.61  42 2.61  64 2.63  31 2.66  69 2.66
                            50 2.67  74 2.69  70 2.69  57 2.69
  22  0.040  0.135  0.313-  65 2.46  75 2.54  55 2.54  77 2.58  39 2.59  43 2.59  60 2.65   2 2.65
                            52 2.74   9 2.83  10 2.84   6 2.85
  23  0.032  0.135  0.034-  70 2.57  62 2.59  40 2.59  41 2.60  76 2.63  45 2.70  24 2.70  35 2.71
                            53 2.86
  24  0.127  0.955  0.132-  79 2.52  55 2.55  53 2.61  35 2.62  77 2.62  58 2.62  73 2.64  70 2.65
                            38 2.67  66 2.68  23 2.70  41 2.74
  25  0.376  0.461  0.427-  16 2.60  17 2.63  15 2.64  14 2.64  13 2.65   5 2.67   3 2.82  30 2.84
                            18 2.90
  26  0.458  0.546  0.220-  73 2.50  74 2.51  51 2.53  79 2.60  64 2.61  30 2.65  68 2.66  18 2.67
                            32 2.69  44 2.71  78 2.71  67 2.74
  27  0.623  0.712  0.424-  81 1.72  14 2.60   8 2.61  11 2.62  12 2.63  15 2.64   7 2.67  44 2.71
                            61 2.76  29 2.77
  28  0.964  0.793  0.218-  66 2.54  50 2.56  58 2.58  77 2.63  42 2.64  64 2.65   2 2.66  79 2.68
                             1 2.69  59 2.70  33 2.74  49 2.75
  29  0.789  0.624  0.319-  44 2.59  42 2.59  32 2.61  39 2.61  75 2.64  61 2.65  49 2.65  33 2.66
                             1 2.68   7 2.74  27 2.77  12 2.81
  30  0.293  0.632  0.319-  79 2.56  44 2.60  64 2.61  52 2.62   2 2.64  26 2.65  33 2.71   3 2.71
                            18 2.75  14 2.79  16 2.79  25 2.84
  31  0.211  0.284  0.223-  57 2.55  70 2.55  65 2.59  55 2.61  43 2.61  80 2.64   3 2.65  21 2.66
                            68 2.67  39 2.67  42 2.71  64 2.72
  32  0.717  0.537  0.221-  69 2.51  54 2.56  51 2.57  65 2.60  29 2.61  42 2.61  75 2.64  67 2.64
                            49 2.68  26 2.69  44 2.75  78 2.78
  33  0.040  0.625  0.321-  42 2.58  39 2.59   3 2.60  64 2.65   1 2.66  29 2.66  30 2.71   2 2.74
                            28 2.74  12 2.75  16 2.75   5 2.79
  34  0.797  0.870  0.037-  50 2.48  66 2.50  36 2.54  48 2.61  35 2.62  63 2.64  71 2.65  20 2.65
                            62 2.72
  35  0.044  0.872  0.035-  58 2.56  36 2.57  66 2.61  24 2.62  34 2.62  72 2.70  23 2.71  62 2.72
                            53 2.74
  36  0.039  0.631  0.035-  58 2.54  34 2.54  21 2.55  35 2.57  50 2.59  40 2.68  71 2.72  72 2.76
                            47 2.78
  37  0.626  0.214  0.133-  68 2.52  59 2.52  67 2.52  41 2.56  51 2.57  56 2.58  66 2.59  20 2.59
                            74 2.60  62 2.60  57 2.64  48 2.76
  38  0.376  0.961  0.131-  80 2.47  53 2.51  55 2.53  78 2.53  63 2.53  45 2.55  54 2.58  48 2.61
                            57 2.62  24 2.67  70 2.69  73 2.69
  39  0.040  0.380  0.321-  22 2.59  33 2.59   3 2.60  42 2.60  29 2.61  75 2.63  65 2.67  31 2.67
                            43 2.70   7 2.70  10 2.73   5 2.78
  40  0.040  0.377  0.033-  69 2.55  21 2.58  23 2.59  76 2.61  70 2.61  45 2.66  71 2.67  36 2.68
                            47 2.81
  41  0.868  0.215  0.131-  67 2.47  65 2.53  76 2.53  77 2.53  37 2.56  51 2.56  62 2.57  69 2.59
                            23 2.60  70 2.61  66 2.63  24 2.74
  42  0.960  0.545  0.225-  33 2.58  29 2.59  39 2.60  50 2.61  32 2.61  21 2.61  28 2.64  64 2.65
                            69 2.68  65 2.69  49 2.70  31 2.71
  43  0.292  0.121  0.320-  52 2.54  55 2.58  22 2.59  19 2.60  61 2.60  31 2.61   8 2.64  80 2.66
                             3 2.69  39 2.70  10 2.74  13 2.84
  44  0.540  0.632  0.321-  61 2.56  52 2.56  29 2.59  30 2.60  78 2.63  18 2.68  26 2.71  27 2.71
                            75 2.73  14 2.74  15 2.74  32 2.75
  45  0.292  0.126  0.037-  38 2.55  57 2.57  70 2.59  40 2.66  53 2.66  20 2.68  23 2.70  47 2.70
                            63 2.74
  46  0.545  0.626  0.042-  73 2.43  51 2.44  54 2.47  71 2.53  53 2.54  76 2.54  63 2.55  72 2.56
                            56 2.56
  47  0.307  0.374  0.039-  74 2.45  57 2.52  56 2.54  21 2.57  20 2.60  72 2.62  45 2.70  36 2.78
                            40 2.81
  48  0.628  0.952  0.133-  49 2.43  80 2.48  59 2.50  63 2.52  50 2.54  54 2.54  20 2.60  34 2.61
                            66 2.61  38 2.61  57 2.66  37 2.76
  49  0.701  0.798  0.223-  48 2.43  54 2.51  80 2.51   1 2.55  78 2.56  50 2.57  61 2.58  59 2.60
                            29 2.65  32 2.68  42 2.70  28 2.75
  50  0.866  0.710  0.128-  71 2.42  34 2.48  48 2.54  28 2.56  49 2.57  54 2.58  36 2.59  42 2.61
                            69 2.64  21 2.67  66 2.71  58 2.84
  51  0.625  0.458  0.128-  56 2.42  76 2.43  46 2.44  26 2.53  41 2.56  37 2.57  32 2.57  74 2.58
                            73 2.62  69 2.63  67 2.64  54 2.70
  52  0.301  0.876  0.316-  78 2.46  55 2.49  61 2.50  79 2.52  43 2.54  44 2.56  30 2.62   2 2.68
                             8 2.70  22 2.74   6 2.80  14 2.86
  53  0.306  0.867  0.039-  73 2.44  38 2.51  46 2.54  63 2.56  72 2.59  24 2.61  45 2.66  35 2.74
                            23 2.86
  54  0.619  0.716  0.132-  63 2.41  71 2.47  46 2.47  49 2.51  78 2.53  48 2.54  32 2.56  38 2.58
                            50 2.58  73 2.61  51 2.70  69 2.72
  55  0.216  0.035  0.224-  52 2.49  78 2.50  79 2.52  38 2.53  22 2.54  24 2.55  43 2.58  80 2.59
                            31 2.61  70 2.62  65 2.68  77 2.79
  56  0.541  0.385  0.039-  51 2.42  74 2.47  72 2.50  47 2.54  46 2.56  37 2.58  76 2.61  62 2.65
                            20 2.75
  57  0.379  0.208  0.130-  47 2.52  20 2.54  31 2.55  68 2.55  80 2.56  45 2.57  38 2.62  37 2.64
                            74 2.66  48 2.66  21 2.69  70 2.75
  58  0.140  0.700  0.126-  72 2.40  74 2.53  36 2.54  73 2.54  35 2.56  28 2.58  21 2.61  64 2.62
                            24 2.62  79 2.68  50 2.84  66 2.84
  59  0.703  0.043  0.222-  48 2.50  37 2.52  19 2.54   1 2.56  66 2.57  77 2.58  49 2.60  80 2.61
                            68 2.61  67 2.65  28 2.70  60 2.73
  60  0.794  0.127  0.323-  18 2.56  75 2.58  77 2.58  67 2.61   2 2.62  22 2.65   9 2.65   1 2.67
                             4 2.68  17 2.73  59 2.73  19 2.75
  61  0.538  0.874  0.318-  78 2.48  52 2.50  44 2.56  49 2.58  80 2.58  43 2.60  19 2.61  29 2.65
                             1 2.67   8 2.67  27 2.76  11 2.81
  62  0.789  0.132  0.036-  66 2.52  41 2.57  23 2.59  20 2.60  37 2.60  56 2.65  76 2.70  35 2.72
                            34 2.72
  63  0.550  0.865  0.041-  54 2.41  71 2.50  48 2.52  38 2.53  46 2.55  53 2.56  34 2.64  20 2.71
                            45 2.74
  64  0.213  0.540  0.225-   3 2.57  74 2.59  68 2.60  30 2.61  26 2.61  58 2.62  21 2.63  33 2.65
                            42 2.65  28 2.65  79 2.71  31 2.72
  65  0.963  0.290  0.222-  70 2.46  22 2.46  41 2.53  69 2.59  31 2.59  32 2.60  67 2.61  75 2.62
                            77 2.63  39 2.67  55 2.68  42 2.69
  66  0.867  0.966  0.127-  34 2.50  62 2.52  28 2.54  59 2.57  77 2.58  37 2.59  35 2.61  48 2.61
                            41 2.63  24 2.68  50 2.71  58 2.84
  67  0.718  0.287  0.225-  77 2.44  41 2.47  37 2.52  18 2.54  75 2.54  65 2.61  60 2.61  51 2.64
                            32 2.64  59 2.65  68 2.70  26 2.74
  68  0.459  0.293  0.224-  37 2.52  19 2.54  57 2.55  74 2.58  18 2.60  64 2.60  59 2.61   3 2.64
                            26 2.66  31 2.67  67 2.70  80 2.73
  69  0.874  0.457  0.127-  76 2.36  71 2.40  32 2.51  40 2.55  65 2.59  70 2.59  41 2.59  51 2.63
                            50 2.64  21 2.66  42 2.68  54 2.72
  70  0.117  0.210  0.130-  65 2.46  31 2.55  23 2.57  69 2.59  45 2.59  41 2.61  40 2.61  55 2.62
                            24 2.65  38 2.69  21 2.69  57 2.75
  71  0.785  0.626  0.043-  69 2.40  50 2.42  54 2.47  76 2.50  63 2.50  46 2.53  34 2.65  40 2.67
                            36 2.72
  72  0.304  0.623  0.041-  73 2.38  58 2.40  74 2.44  56 2.50  46 2.56  53 2.59  47 2.62  35 2.70
                            36 2.76
  73  0.377  0.706  0.128-  72 2.38  46 2.43  53 2.44  26 2.50  58 2.54  74 2.59  79 2.60  54 2.61
                            51 2.62  24 2.64  78 2.68  38 2.69
  74  0.379  0.460  0.129-  72 2.44  47 2.45  56 2.47  26 2.51  58 2.53  51 2.58  68 2.58  73 2.59
                            64 2.59  37 2.60  57 2.66  21 2.69
  75  0.796  0.370  0.318-  22 2.54  67 2.54  18 2.55  60 2.58  65 2.62  39 2.63  32 2.64  29 2.64
                             9 2.68  44 2.73   7 2.77  15 2.80
  76  0.788  0.388  0.041-  69 2.36  51 2.43  71 2.50  41 2.53  46 2.54  40 2.61  56 2.61  23 2.63
                            62 2.70
  77  0.944  0.051  0.223-  67 2.44  41 2.53   2 2.56  22 2.58  66 2.58  60 2.58  59 2.58  24 2.62
                            65 2.63  28 2.63  55 2.79  79 2.79
  78  0.457  0.803  0.225-  52 2.46  80 2.47  61 2.48  55 2.50  38 2.53  54 2.53  49 2.56  79 2.58
                            44 2.63  73 2.68  26 2.71  32 2.78
  79  0.216  0.795  0.225-  52 2.52  24 2.52  55 2.52   2 2.55  30 2.56  78 2.58  73 2.60  26 2.60
                            58 2.68  28 2.68  64 2.71  77 2.79
  80  0.461  0.034  0.222-  78 2.47  38 2.47  48 2.48  49 2.51  19 2.54  57 2.56  61 2.58  55 2.59
                            59 2.61  31 2.64  43 2.66  68 2.73
  81  0.707  0.549  0.463-  27 1.72  15 1.77   7 1.78
 
  LATTYP: Found a hexagonal cell.
 ALAT       =    10.5600004196
 C/A-ratio  =     2.0833332505
  
  Lattice vectors:
  
 A1 = (   5.2800002098,  -9.1452286274,   0.0000000000)
 A2 = ( -10.5600004196,   0.0000000000,   0.0000000000)
 A3 = (   0.0000000000,   0.0000000000, -22.0000000000)


Analysis of symmetry for initial positions (statically):
=====================================================================
 Subroutine PRICEL returns:
 Original cell was already a primitive cell.
 

 Routine SETGRP: Setting up the symmetry group for a 
 hexagonal supercell.


 Subroutine GETGRP returns: Found  1 space group operations
 (whereof  1 operations were pure point group operations)
 out of a pool of 24 trial point group operations.


The static configuration has the point symmetry C_1 .


Analysis of symmetry for dynamics (positions and initial velocities):
=====================================================================
 Subroutine PRICEL returns:
 Original cell was already a primitive cell.
 

 Routine SETGRP: Setting up the symmetry group for a 
 hexagonal supercell.


 Subroutine GETGRP returns: Found  1 space group operations
 (whereof  1 operations were pure point group operations)
 out of a pool of 24 trial point group operations.


The dynamic configuration has the point symmetry C_1 .


Analysis of constrained symmetry for selective dynamics:
=====================================================================
 Subroutine PRICEL returns:
 Original cell was already a primitive cell.
 

 Routine SETGRP: Setting up the symmetry group for a 
 hexagonal supercell.


 Subroutine GETGRP returns: Found  1 space group operations
 (whereof  1 operations were pure point group operations)
 out of a pool of 24 trial point group operations.


The constrained configuration has the point symmetry C_1 .


Analysis of structural, dynamic, and magnetic symmetry:
=====================================================================
 Subroutine PRICEL returns:
 Original cell was already a primitive cell.
 

 Routine SETGRP: Setting up the symmetry group for a 
 hexagonal supercell.


 Subroutine GETGRP returns: Found  1 space group operations
 (whereof  1 operations were pure point group operations)
 out of a pool of 24 trial point group operations.


The magnetic configuration has the point symmetry C_1 .


 Subroutine INISYM returns: Found  1 space group operations
 (whereof  1 operations are pure point group operations),
 and found     1 'primitive' translations

 
 
 KPOINTS: mesh auto                               

Automatic generation of k-mesh.
Space group operators:
 irot       det(A)        alpha          n_x          n_y          n_z        tau_x        tau_y        tau_z
    1     1.000000     0.000001     1.000000     0.000000     0.000000     0.000000     0.000000     0.000000
 
 Subroutine IBZKPT returns following result:
 ===========================================
 
 Found      4 irreducible k-points:
 
 Following reciprocal coordinates:
            Coordinates               Weight
  0.000000  0.000000  0.000000      1.000000
  0.500000  0.000000  0.000000      1.000000
  0.000000  0.500000  0.000000      1.000000
  0.500000  0.500000  0.000000      1.000000
 
 Following cartesian coordinates:
            Coordinates               Weight
  0.000000  0.000000  0.000000      1.000000
  0.047348 -0.027337  0.000000      1.000000
  0.000000  0.054673  0.000000      1.000000
  0.047348  0.027337  0.000000      1.000000
 


--------------------------------------------------------------------------------------------------------




 Dimension of arrays:
   k-points           NKPTS =      4   k-points in BZ     NKDIM =      4   number of bands    NBANDS=    590
   number of dos      NEDOS =    301   number of ions     NIONS =     81
   non local maximal  LDIM  =      6   non local SUM 2l+1 LMDIM =     18
   total plane-waves  NPLWV = ******
   max r-space proj   IRMAX =   7802   max aug-charges    IRDMAX=  33988
   dimension x,y,z NGX =    84 NGY =   84 NGZ =  168
   dimension x,y,z NGXF=   168 NGYF=  168 NGZF=  336
   support grid    NGXF=   168 NGYF=  168 NGZF=  336
   ions per type =              32  13  10  13  12   1
   NGX,Y,Z   is equivalent  to a cutoff of  13.22, 13.22, 12.70 a.u.
   NGXF,Y,Z  is equivalent  to a cutoff of  26.45, 26.45, 25.39 a.u.

 SYSTEM =  Pt111                                   
 POSCAR =  10.56                                   

 Startparameter for this run:
   NWRITE =      2    write-flag & timer
   PREC   = accura    normal or accurate (medium, high low for compatibility)
   ISTART =      0    job   : 0-new  1-cont  2-samecut
   ICHARG =      2    charge: 1-file 2-atom 10-const
   ISPIN  =      2    spin polarized calculation?
   LNONCOLLINEAR =      F non collinear calculations
   LSORBIT =      F    spin-orbit coupling
   INIWAV =      1    electr: 0-lowe 1-rand  2-diag
   LASPH  =      F    aspherical Exc in radial PAW
   METAGGA=      F    non-selfconsistent MetaGGA calc.

 Electronic Relaxation 1
   ENCUT  =  550.0 eV  40.42 Ry    6.36 a.u.  20.19 20.19 42.07*2*pi/ulx,y,z
   ENINI  =  550.0     initial cutoff
   ENAUG  =  587.0 eV  augmentation charge cutoff
   NELM   =    200;   NELMIN=  2; NELMDL= -5     # of ELM steps 
   EDIFF  = 0.1E-04   stopping-criterion for ELM
   LREAL  =      T    real-space projection
   NLSPLINE    = F    spline interpolate recip. space projectors
   LCOMPAT=      F    compatible to vasp.4.4
   GGA_COMPAT  = T    GGA compatible to vasp.4.4-vasp.4.6
   LMAXPAW     = -100 max onsite density
   LMAXMIX     =    2 max onsite mixed and CHGCAR
   VOSKOWN=      0    Vosko Wilk Nusair interpolation
   ROPT   =   -0.00025  -0.00025  -0.00025  -0.00025
   ROPT   =   -0.00025  -0.00025
 Ionic relaxation
   EDIFFG = -.5E-01   stopping-criterion for IOM
   NSW    =    300    number of steps for IOM
   NBLOCK =      1;   KBLOCK =    300    inner block; outer block 
   IBRION =      2    ionic relax: 0-MD 1-quasi-New 2-CG
   NFREE  =      1    steps in history (QN), initial steepest desc. (CG)
   ISIF   =      2    stress and relaxation
   IWAVPR =     11    prediction:  0-non 1-charg 2-wave 3-comb
   ISYM   =      2    0-nonsym 1-usesym 2-fastsym
   LCORR  =      T    Harris-Foulkes like correction to forces

   POTIM  = 0.5000    time-step for ionic-motion
   TEIN   =    0.0    initial temperature
   TEBEG  =    0.0;   TEEND  =   0.0 temperature during run
   SMASS  =  -3.00    Nose mass-parameter (am)
   estimated Nose-frequenzy (Omega)   =  0.10E-29 period in steps =****** mass=  -0.255E-26a.u.
   SCALEE = 1.0000    scale energy and forces
   NPACO  =    256;   APACO  = 16.0  distance and # of slots for P.C.
   PSTRESS=    0.0 pullay stress

  Mass of Ions in am
   POMASS = 195.08 63.55 58.69 55.85 58.93  1.00
  Ionic Valenz
   ZVAL   =  10.00 11.00 10.00  8.00  9.00  1.00
  Atomic Wigner-Seitz radii
   RWIGS  =  -1.00 -1.00 -1.00 -1.00 -1.00 -1.00
  virtual crystal weights 
   VCA    =   1.00  1.00  1.00  1.00  1.00  1.00
   NELECT =     776.0000    total number of electrons
   NUPDOWN=      -1.0000    fix difference up-down

 DOS related values:
   EMIN   =  10.00;   EMAX   =-10.00  energy-range for DOS
   EFERMI =   0.00
   ISMEAR =     1;   SIGMA  =   0.10  broadening in eV -4-tet -1-fermi 0-gaus

 Electronic relaxation 2 (details)
   IALGO  =     68    algorithm
   LDIAG  =      T    sub-space diagonalisation (order eigenvalues)
   LSUBROT=      F    optimize rotation matrix (better conditioning)
   TURBO    =      0    0=normal 1=particle mesh
   IRESTART =      0    0=no restart 2=restart with 2 vectors
   NREBOOT  =      0    no. of reboots
   NMIN     =      0    reboot dimension
   EREF     =   0.00    reference energy to select bands
   IMIX   =      4    mixing-type and parameters
     AMIX     =   0.40;   BMIX     =  1.00
     AMIX_MAG =   1.60;   BMIX_MAG =  1.00
     AMIN     =   0.10
     WC   =   100.;   INIMIX=   1;  MIXPRE=   1;  MAXMIX= -45

 Intra band minimization:
   WEIMIN = 0.0010     energy-eigenvalue tresh-hold
   EBREAK =  0.42E-08  absolut break condition
   DEPER  =   0.30     relativ break condition  

   TIME   =   0.40     timestep for ELM

  volume/ion in A,a.u.               =      26.23       177.01
  Fermi-wavevector in a.u.,A,eV,Ry     =   1.170222  2.211399 18.632091  1.369420
  Thomas-Fermi vector in A             =   2.306684
 
 Write flags
   LWAVE        =      F    write WAVECAR
   LDOWNSAMPLE  =      F    k-point downsampling of WAVECAR
   LCHARG       =      F    write CHGCAR
   LVTOT        =      F    write LOCPOT, total local potential
   LVHAR        =      F    write LOCPOT, Hartree potential only
   LELF         =      F    write electronic localiz. function (ELF)
   LORBIT       =      0    0 simple, 1 ext, 2 COOP (PROOUT), +10 PAW based schemes


 Dipole corrections
   LMONO  =      F    monopole corrections only (constant potential shift)
   LDIPOL =      F    correct potential (dipole corrections)
   IDIPOL =      0    1-x, 2-y, 3-z, 4-all directions 
   EPSILON=  1.0000000 bulk dielectric constant

 Exchange correlation treatment:
   GGA     =    --    GGA type
   LEXCH   =     8    internal setting for exchange type
   VOSKOWN=      0    Vosko Wilk Nusair interpolation
   LHFCALC =     F    Hartree Fock is set to
   LHFONE  =     F    Hartree Fock one center treatment
   AEXX    =    0.0000 exact exchange contribution

 Linear response parameters
   LEPSILON=     F    determine dielectric tensor
   LRPA    =     F    only Hartree local field effects (RPA)
   LNABLA  =     F    use nabla operator in PAW spheres
   LVEL    =     F    velocity operator in full k-point grid
   LINTERFAST=   F  fast interpolation
   KINTER  =     0    interpolate to denser k-point grid
   CSHIFT  =0.1000    complex shift for real part using Kramers Kronig
   OMEGAMAX=  -1.0    maximum frequency
   DEG_THRESHOLD= 0.2000000E-02 threshold for treating states as degnerate
   RTIME   =   -0.100 relaxation time in fs
  (WPLASMAI=    0.000 imaginary part of plasma frequency in eV, 0.658/RTIME)
   DFIELD  = 0.0000000 0.0000000 0.0000000 field for delta impulse in time
 
 Orbital magnetization related:
   ORBITALMAG=     F  switch on orbital magnetization
   LCHIMAG   =     F  perturbation theory with respect to B field
   DQ        =  0.001000  dq finite difference perturbation B field
   LLRAUG    =     F  two centre corrections for induced B field



--------------------------------------------------------------------------------------------------------


 conjugate gradient relaxation of ions
   using selective dynamics as specified on POSCAR
 charge density and potential will be updated during run
 spin polarized calculation
 RMM-DIIS sequential band-by-band and
  variant of blocked Davidson during initial phase
 perform sub-space diagonalisation
    before iterative eigenvector-optimisation
 modified Broyden-mixing scheme, WC =      100.0
 initial mixing is a Kerker type mixing with AMIX =  0.4000 and BMIX =      1.0000
 Hartree-type preconditioning will be used
 using additional bands          202
 real space projection scheme for non local part
 use partial core corrections
 calculate Harris-corrections to forces 
   (improved forces if not selfconsistent)
 use gradient corrections 
 use of overlap-Matrix (Vanderbilt PP)
 Methfessel and Paxton  Order N= 1 SIGMA  =   0.10


--------------------------------------------------------------------------------------------------------


  energy-cutoff  :      550.00
  volume of cell :     2124.62
      direct lattice vectors                 reciprocal lattice vectors
    10.560000420  0.000000000  0.000000000     0.094696966 -0.054673319  0.000000000
     5.280000210  9.145228627  0.000000000     0.000000000  0.109346638  0.000000000
     0.000000000  0.000000000 22.000000000     0.000000000  0.000000000  0.045454545

  length of vectors
    10.560000420 10.560000420 22.000000000     0.109346638  0.109346638  0.045454545


 
 k-points in units of 2pi/SCALE and weight: mesh auto                               
   0.00000000  0.00000000  0.00000000       0.250
   0.04734848 -0.02733666  0.00000000       0.250
   0.00000000  0.05467332  0.00000000       0.250
   0.04734848  0.02733666  0.00000000       0.250
 
 k-points in reciprocal lattice and weights: mesh auto                               
   0.00000000  0.00000000  0.00000000       0.250
   0.50000000  0.00000000  0.00000000       0.250
   0.00000000  0.50000000  0.00000000       0.250
   0.50000000  0.50000000  0.00000000       0.250
 
 position of ions in fractional coordinates (direct lattice) 
   0.78966075  0.87699132  0.31582816
   0.04393882  0.88214341  0.31605232
   0.28653974  0.37856517  0.32012636
   0.86906542  0.96217151  0.42361237
   0.12373211  0.45939747  0.42724070
   0.12936993  0.96419994  0.42147888
   0.87527689  0.45998313  0.42285094
   0.37659405  0.95980243  0.41936449
   0.87274996  0.21436955  0.42155033
   0.12505156  0.21220861  0.42344352
   0.62198977  0.96051358  0.42437942
   0.87403166  0.70807509  0.42521544
   0.37360580  0.21045533  0.42766717
   0.37760335  0.71005808  0.42622146
   0.62529841  0.46139891  0.42402079
   0.12691430  0.70523647  0.42527692
   0.62393134  0.21127627  0.42457877
   0.55381975  0.37118585  0.31757095
   0.53698848  0.12225337  0.31494777
   0.54745577  0.12241455  0.03835403
   0.12360644  0.46198687  0.12740666
   0.03999045  0.13512898  0.31338525
   0.03235129  0.13482511  0.03441534
   0.12671306  0.95484959  0.13162708
   0.37558044  0.46078793  0.42666899
   0.45779299  0.54562474  0.22008560
   0.62259046  0.71227498  0.42425852
   0.96413863  0.79272622  0.21761397
   0.78890433  0.62385503  0.31886247
   0.29315792  0.63210494  0.31907285
   0.21123592  0.28374023  0.22269626
   0.71709822  0.53685317  0.22058810
   0.04024294  0.62513796  0.32101864
   0.79720004  0.86975892  0.03740235
   0.04406258  0.87221915  0.03450723
   0.03926108  0.63118460  0.03512204
   0.62574752  0.21423502  0.13267817
   0.37608349  0.96104394  0.13055742
   0.03988096  0.37987827  0.32078985
   0.03961706  0.37680314  0.03348892
   0.86761936  0.21521963  0.13097207
   0.95962679  0.54542694  0.22473188
   0.29180541  0.12086216  0.31997602
   0.53973416  0.63166777  0.32130311
   0.29178315  0.12606023  0.03725420
   0.54545151  0.62597825  0.04206242
   0.30678791  0.37356804  0.03912988
   0.62788283  0.95185769  0.13263039
   0.70142059  0.79820208  0.22280830
   0.86633517  0.71047377  0.12834734
   0.62467538  0.45773867  0.12814478
   0.30056912  0.87625620  0.31618976
   0.30615091  0.86696452  0.03949459
   0.61892989  0.71603521  0.13157826
   0.21580132  0.03462027  0.22396955
   0.54130035  0.38549347  0.03924212
   0.37935969  0.20774149  0.13048593
   0.13970060  0.70042731  0.12601187
   0.70329280  0.04306983  0.22237866
   0.79417487  0.12723489  0.32288839
   0.53830947  0.87424721  0.31820141
   0.78866377  0.13163117  0.03568706
   0.55002307  0.86477454  0.04096764
   0.21334288  0.54014670  0.22460931
   0.96280137  0.28964998  0.22158834
   0.86740749  0.96641026  0.12740667
   0.71753219  0.28687300  0.22453182
   0.45915719  0.29304584  0.22376919
   0.87387308  0.45689803  0.12677291
   0.11726506  0.21049175  0.13008946
   0.78478084  0.62565658  0.04309165
   0.30446760  0.62284293  0.04138738
   0.37746416  0.70582480  0.12774454
   0.37902910  0.46003850  0.12899471
   0.79579489  0.37045697  0.31848945
   0.78782398  0.38752064  0.04111567
   0.94385566  0.05104212  0.22344851
   0.45702340  0.80263442  0.22502694
   0.21629647  0.79533135  0.22474012
   0.46108857  0.03393525  0.22161390
   0.70658420  0.54930812  0.46313028
 
 position of ions in cartesian coordinates  (Angst):
  12.96933215  8.02028612  6.94821946
   5.12171136  8.06740315  6.95315098
   5.02468400  3.46206507  7.04277984
  14.25759700  8.79927844  9.31947204
   3.73222993  4.20129493  9.39929530
   6.45712244  8.81782888  9.27253537
  11.67163531  4.20665087  9.30272061
   9.04459036  8.77761264  9.22601888
  10.34811119  1.96045855  9.27410718
   2.44100603  1.94069627  9.31575735
  11.63972415  8.78411628  9.33634725
  12.96841135  6.47550855  9.35473958
   5.05648162  1.92466212  9.40867767
   7.73659834  6.49364348  9.37687203
   9.03933781  4.21959848  9.32845738
   5.06386376  6.44954880  9.35609234
   7.70425395  1.93216976  9.34073294
   7.80819821  3.39457950  6.98656090
   6.31609637  1.11803506  6.92885099
   6.42748199  1.11950902  0.84378857
   3.74457485  4.22497551  2.80294662
   1.13578014  1.23578538  6.89447560
   1.05350625  1.23300646  0.75713746
   6.37969601  8.73231780  2.89579587
   6.39908994  4.21401098  9.38671783
   7.71519296  4.98986301  4.84188323
  10.33536759  6.51391754  9.33368744
  14.36689896  7.24966250  4.78750741
  11.62478471  5.70529691  7.01497445
   6.43326201  5.78074421  7.01960268
   3.72879985  2.59486929  4.89931774
  10.40714241  4.90964500  4.85293829
   3.72569409  5.71702961  7.06241001
  13.01076010  7.95414421  0.82285169
   5.07061818  7.97664351  0.75915899
   3.74725186  5.77232751  0.77268479
   7.73905501  1.95922823  2.91891969
   9.04575401  8.78896659  2.87226322
   2.42690033  3.47407364  7.05737670
   2.40787681  3.44595088  0.73675630
  10.29842047  1.96823277  2.88138548
  13.01351367  4.98805409  4.94410139
   3.71961751  1.10531211  7.03947253
   9.03479888  5.77674615  7.06866837
   3.74682824  1.15284966  0.81959249
   9.06513349  5.72471418  0.92537331
   5.21211980  3.41636512  0.86085731
  11.65625177  8.70495616  2.91786869
  11.62150883  7.29974048  4.90178269
  12.89980144  6.49744505  2.82364142
   9.01343253  4.18612478  2.81918506
   7.80064292  8.01356328  6.95617471
   7.81052654  7.92858872  0.86888091
  10.31656596  6.54830568  2.89472164
   2.46165709  0.31661030  4.92733016
   7.75153750  3.52542591  0.86332671
   5.10291361  1.89984346  2.87069041
   5.17349471  6.40556785  2.77226120
   7.65418102  0.39388344  4.89233061
   9.05828726  1.16359219  7.10354451
  10.30057364  7.99519058  7.00043101
   9.02330237  1.20379713  0.78511532
  10.37425363  7.90856090  0.90128811
   5.10487562  4.93976509  4.94140483
  11.69653478  2.64891530  4.87494337
  14.26246981  8.83804282  2.80294666
   9.09182970  2.62351917  4.93970002
   6.39598222  2.67997121  4.92292219
  11.64052176  4.17843690  2.78900405
   2.34971562  1.92499520  2.86196808
  11.59075286  5.72177244  0.94801637
   6.50378879  5.69604102  0.91052233
   7.71277679  6.45492912  2.81037998
   6.43155077  4.20715724  2.83788366
  10.35960732  3.38791373  7.00676796
  10.36553066  3.54396488  0.90454481
  10.23661853  0.46679185  4.91586728
   9.06407717  7.34027527  4.95059278
   6.48344052  7.27348698  4.94428261
   5.04827358  0.31034563  4.87550584
  10.36187641  5.02354834 10.18886614
 


--------------------------------------------------------------------------------------------------------


 k-point  1 :   0.0000 0.0000 0.0000  plane waves:   62167
 k-point  2 :   0.5000 0.0000 0.0000  plane waves:   62242
 k-point  3 :   0.0000 0.5000 0.0000  plane waves:   62242
 k-point  4 :   0.5000 0.5000 0.0000  plane waves:   62242

 maximum and minimum number of plane-waves per node :     15586    15521

 maximum number of plane-waves:     62242
 maximum index in each direction: 
   IXMAX=   20   IYMAX=   20   IZMAX=   42
   IXMIN=  -20   IYMIN=  -20   IZMIN=  -42


 real space projection operators:
  total allocation   :      77826.06 KBytes
  max/ min on nodes  :      19476.51      19427.41


 parallel 3D FFT for wavefunctions:
    minimum data exchange during FFTs selected (reduces bandwidth)
 parallel 3D FFT for charge:
    minimum data exchange during FFTs selected (reduces bandwidth)


 total amount of memory used by VASP MPI-rank0   259158. kBytes
=======================================================================

   base      :      30000. kBytes
   nonlr-proj:      34704. kBytes
   fftplans  :      17962. kBytes
   grid      :      55536. kBytes
   one-center:        653. kBytes
   wavefun   :     120303. kBytes
 
     INWAV:  cpu time    0.0000: real time    0.0000
 Broyden mixing: mesh for mixing (old mesh)
   NGX = 41   NGY = 41   NGZ = 85
  (NGX  =168   NGY  =168   NGZ  =336)
  gives a total of 142885 points

 initial charge density was supplied:
 charge density of overlapping atoms calculated
 number of electron     776.0000000 magnetization     233.0000000
 keeping initial charge density in first step


--------------------------------------------------------------------------------------------------------


 Maximum index for non-local projection operator         1905
 Maximum index for augmentation-charges         2130 (set IRDMAX)


--------------------------------------------------------------------------------------------------------


 First call to EWALD:  gamma=   0.138
 Maximum number of real-space cells 4x 4x 2
 Maximum number of reciprocal cells 2x 2x 4

    FEWALD:  cpu time    0.0057: real time    0.0057


--------------------------------------- Iteration      1(   1)  ---------------------------------------


    POTLOK:  cpu time    0.4349: real time    0.4380
    SETDIJ:  cpu time    0.0332: real time    0.0337
     EDDAV:  cpu time   68.8233: real time   69.0030
       DOS:  cpu time    0.0017: real time    0.0017
    --------------------------------------------
      LOOP:  cpu time   69.2931: real time   69.4764

 eigenvalue-minimisations  :  9440
 total energy-change (2. order) : 0.7892448E+04  (-0.3281734E+05)
 number of electron     776.0000000 magnetization     233.0000000
 augmentation part      776.0000000 magnetization     233.0000000

 Free energy of the ion-electron system (eV)
  ---------------------------------------------------
  alpha Z        PSCENC =      2230.33460859
  Ewald energy   TEWEN  =    217728.88257057
  -Hartree energ DENC   =   -289448.67629996
  -exchange      EXHF   =         0.00000000
  -V(xc)+E(xc)   XCENC  =      1360.22750802
  PAW double counting   =     63651.30740739   -65525.53323748
  entropy T*S    EENTRO =         0.00540496
  eigenvalues    EBANDS =      8205.85879262
  atomic energy  EATOM  =     69690.04112127
  Solvation  Ediel_sol  =         0.00000000
  ---------------------------------------------------
  free energy    TOTEN  =      7892.44787598 eV

  energy without entropy =     7892.44247103  energy(sigma->0) =     7892.44607433


--------------------------------------------------------------------------------------------------------




--------------------------------------- Iteration      1(   2)  ---------------------------------------


     EDDAV:  cpu time   67.4057: real time   67.5663
       DOS:  cpu time    0.0020: real time    0.0020
    --------------------------------------------
      LOOP:  cpu time   67.4077: real time   67.5683

 eigenvalue-minimisations  :  9440
 total energy-change (2. order) :-0.7046669E+04  (-0.6294420E+04)
 number of electron     776.0000000 magnetization     233.0000000
 augmentation part      776.0000000 magnetization     233.0000000

 Free energy of the ion-electron system (eV)
  ---------------------------------------------------
  alpha Z        PSCENC =      2230.33460859
  Ewald energy   TEWEN  =    217728.88257057
  -Hartree energ DENC   =   -289448.67629996
  -exchange      EXHF   =         0.00000000
  -V(xc)+E(xc)   XCENC  =      1360.22750802
  PAW double counting   =     63651.30740739   -65525.53323748
  entropy T*S    EENTRO =         0.00185341
  eigenvalues    EBANDS =      1159.19343327
  atomic energy  EATOM  =     69690.04112127
  Solvation  Ediel_sol  =         0.00000000
  ---------------------------------------------------
  free energy    TOTEN  =       845.77896509 eV

  energy without entropy =      845.77711168  energy(sigma->0) =      845.77834729


--------------------------------------------------------------------------------------------------------




--------------------------------------- Iteration      1(   3)  ---------------------------------------


     EDDAV:  cpu time   67.5083: real time   67.6811
       DOS:  cpu time    0.0021: real time    0.0021
    --------------------------------------------
      LOOP:  cpu time   67.5105: real time   67.6832

 eigenvalue-minimisations  :  9440
 total energy-change (2. order) :-0.1223226E+04  (-0.9899389E+03)
 number of electron     776.0000000 magnetization     233.0000000
 augmentation part      776.0000000 magnetization     233.0000000

 Free energy of the ion-electron system (eV)
  ---------------------------------------------------
  alpha Z        PSCENC =      2230.33460859
  Ewald energy   TEWEN  =    217728.88257057
  -Hartree energ DENC   =   -289448.67629996
  -exchange      EXHF   =         0.00000000
  -V(xc)+E(xc)   XCENC  =      1360.22750802
  PAW double counting   =     63651.30740739   -65525.53323748
  entropy T*S    EENTRO =         0.00899674
  eigenvalues    EBANDS =       -64.03985407
  atomic energy  EATOM  =     69690.04112127
  Solvation  Ediel_sol  =         0.00000000
  ---------------------------------------------------
  free energy    TOTEN  =      -377.44717892 eV

  energy without entropy =     -377.45617566  energy(sigma->0) =     -377.45017783


--------------------------------------------------------------------------------------------------------




--------------------------------------- Iteration      1(   4)  ---------------------------------------


     EDDAV:  cpu time   80.2339: real time   80.5059
       DOS:  cpu time    0.0021: real time    0.0021
    --------------------------------------------
      LOOP:  cpu time   80.2360: real time   80.5080

 eigenvalue-minimisations  : 11720
 total energy-change (2. order) :-0.1172055E+03  (-0.1079216E+03)
 number of electron     776.0000000 magnetization     233.0000000
 augmentation part      776.0000000 magnetization     233.0000000

 Free energy of the ion-electron system (eV)
  ---------------------------------------------------
  alpha Z        PSCENC =      2230.33460859
  Ewald energy   TEWEN  =    217728.88257057
  -Hartree energ DENC   =   -289448.67629996
  -exchange      EXHF   =         0.00000000
  -V(xc)+E(xc)   XCENC  =      1360.22750802
  PAW double counting   =     63651.30740739   -65525.53323748
  entropy T*S    EENTRO =         0.00482816
  eigenvalues    EBANDS =      -181.24120412
  atomic energy  EATOM  =     69690.04112127
  Solvation  Ediel_sol  =         0.00000000
  ---------------------------------------------------
  free energy    TOTEN  =      -494.65269754 eV

  energy without entropy =     -494.65752571  energy(sigma->0) =     -494.65430693


--------------------------------------------------------------------------------------------------------




--------------------------------------- Iteration      1(   5)  ---------------------------------------


     EDDAV:  cpu time   77.0851: real time   77.2943
       DOS:  cpu time    0.0021: real time    0.0021
    CHARGE:  cpu time    4.3822: real time    4.3942
    MIXING:  cpu time    0.0098: real time    0.0105
    --------------------------------------------
      LOOP:  cpu time   81.4792: real time   81.7011

 eigenvalue-minimisations  : 11170
 total energy-change (2. order) :-0.4395268E+01  (-0.4362472E+01)
 number of electron     776.0000022 magnetization     218.0944473
 augmentation part      333.0705808 magnetization     187.2175099

 Broyden mixing:
  rms(total) = 0.11899E+02    rms(broyden)= 0.11899E+02
  rms(prec ) = 0.12198E+02
  weight for this iteration     100.00

 Free energy of the ion-electron system (eV)
  ---------------------------------------------------
  alpha Z        PSCENC =      2230.33460859
  Ewald energy   TEWEN  =    217728.88257057
  -Hartree energ DENC   =   -289448.67629996
  -exchange      EXHF   =         0.00000000
  -V(xc)+E(xc)   XCENC  =      1360.22750802
  PAW double counting   =     63651.30740739   -65525.53323748
  entropy T*S    EENTRO =         0.00462834
  eigenvalues    EBANDS =      -185.63627225
  atomic energy  EATOM  =     69690.04112127
  Solvation  Ediel_sol  =         0.00000000
  ---------------------------------------------------
  free energy    TOTEN  =      -499.04796550 eV

  energy without entropy =     -499.05259384  energy(sigma->0) =     -499.04950828


--------------------------------------------------------------------------------------------------------




--------------------------------------- Iteration      1(   6)  ---------------------------------------


    POTLOK:  cpu time    0.4046: real time    0.4055
    SETDIJ:  cpu time    0.0340: real time    0.0340
    EDDIAG:  cpu time   11.7755: real time   11.8078
  RMM-DIIS:  cpu time   41.1535: real time   41.3521
    ORTHCH:  cpu time    1.3230: real time    1.3268
       DOS:  cpu time    0.0020: real time    0.0020
    CHARGE:  cpu time    4.2081: real time    4.2194
    MIXING:  cpu time    0.0101: real time    0.0382
    --------------------------------------------
      LOOP:  cpu time   58.9107: real time   59.1859

 eigenvalue-minimisations  :  9535
 total energy-change (2. order) :-0.1312301E+03  (-0.8671771E+02)
 number of electron     776.0000033 magnetization     213.7934561
 augmentation part      401.5153711 magnetization     179.9918613

 Broyden mixing:
  rms(total) = 0.18153E+02    rms(broyden)= 0.18152E+02
  rms(prec ) = 0.24033E+02
  weight for this iteration     100.00

 eigenvalues of (default mixing * dielectric matrix)
  average eigenvalue GAMMA=   0.2581
  0.2581

 Free energy of the ion-electron system (eV)
  ---------------------------------------------------
  alpha Z        PSCENC =      2230.33460859
  Ewald energy   TEWEN  =    217728.88257057
  -Hartree energ DENC   =   -287883.62654553
  -exchange      EXHF   =         0.00000000
  -V(xc)+E(xc)   XCENC  =      1313.72088788
  PAW double counting   =     68855.99500106   -70521.80480272
  entropy T*S    EENTRO =        -0.00822949
  eigenvalues    EBANDS =     -2043.81265312
  atomic energy  EATOM  =     69690.04112127
  Solvation  Ediel_sol  =         0.00000000
  ---------------------------------------------------
  free energy    TOTEN  =      -630.27804150 eV

  energy without entropy =     -630.26981201  energy(sigma->0) =     -630.27529833


--------------------------------------------------------------------------------------------------------




--------------------------------------- Iteration      1(   7)  ---------------------------------------


    POTLOK:  cpu time    0.4034: real time    0.4044
    SETDIJ:  cpu time    0.0342: real time    0.0342
    EDDIAG:  cpu time   11.7296: real time   11.7616
  RMM-DIIS:  cpu time   41.2790: real time   41.3922
    ORTHCH:  cpu time    1.3168: real time    1.3207
       DOS:  cpu time    0.0020: real time    0.0020
    CHARGE:  cpu time    4.2514: real time    4.2629
    MIXING:  cpu time    0.0098: real time    0.0098
    --------------------------------------------
      LOOP:  cpu time   59.0263: real time   59.1880

 eigenvalue-minimisations  :  9447
 total energy-change (2. order) : 0.7906671E+02  (-0.1662864E+02)
 number of electron     776.0000023 magnetization     208.0922558
 augmentation part      360.3776805 magnetization     164.6827344

 Broyden mixing:
  rms(total) = 0.15372E+02    rms(broyden)= 0.15372E+02
  rms(prec ) = 0.20402E+02
  weight for this iteration     100.00

 eigenvalues of (default mixing * dielectric matrix)
  average eigenvalue GAMMA=   0.3170
  0.4821  0.1519

 Free energy of the ion-electron system (eV)
  ---------------------------------------------------
  alpha Z        PSCENC =      2230.33460859
  Ewald energy   TEWEN  =    217728.88257057
  -Hartree energ DENC   =   -288634.57146331
  -exchange      EXHF   =         0.00000000
  -V(xc)+E(xc)   XCENC  =      1332.94765412
  PAW double counting   =     69980.18995375   -71815.74525804
  entropy T*S    EENTRO =         0.00445830
  eigenvalues    EBANDS =     -1063.29497233
  atomic energy  EATOM  =     69690.04112127
  Solvation  Ediel_sol  =         0.00000000
  ---------------------------------------------------
  free energy    TOTEN  =      -551.21132708 eV

  energy without entropy =     -551.21578538  energy(sigma->0) =     -551.21281318


--------------------------------------------------------------------------------------------------------




--------------------------------------- Iteration      1(   8)  ---------------------------------------


    POTLOK:  cpu time    0.4095: real time    0.4105
    SETDIJ:  cpu time    0.0338: real time    0.0341
    EDDIAG:  cpu time   11.7343: real time   11.7664
  RMM-DIIS:  cpu time   40.7673: real time   40.8790
    ORTHCH:  cpu time    1.4766: real time    1.4815
       DOS:  cpu time    0.0040: real time    0.0040
    CHARGE:  cpu time    4.2033: real time    4.2133
    MIXING:  cpu time    0.0109: real time    0.0113
    --------------------------------------------
      LOOP:  cpu time   58.6397: real time   58.8001

 eigenvalue-minimisations  :  9456
 total energy-change (2. order) : 0.4624634E+02  (-0.1196973E+02)
 number of electron     776.0000027 magnetization     202.0775921
 augmentation part      365.2409751 magnetization     160.0773806

 Broyden mixing:
  rms(total) = 0.16713E+02    rms(broyden)= 0.16713E+02
  rms(prec ) = 0.19593E+02
  weight for this iteration     100.00

 eigenvalues of (default mixing * dielectric matrix)
  average eigenvalue GAMMA=   0.3201
  0.6323  0.2386  0.0894

 Free energy of the ion-electron system (eV)
  ---------------------------------------------------
  alpha Z        PSCENC =      2230.33460859
  Ewald energy   TEWEN  =    217728.88257057
  -Hartree energ DENC   =   -288916.46780605
  -exchange      EXHF   =         0.00000000
  -V(xc)+E(xc)   XCENC  =      1340.37386432
  PAW double counting   =     71523.21250672   -73446.35079638
  entropy T*S    EENTRO =        -0.01432174
  eigenvalues    EBANDS =      -654.97673610
  atomic energy  EATOM  =     69690.04112127
  Solvation  Ediel_sol  =         0.00000000
  ---------------------------------------------------
  free energy    TOTEN  =      -504.96498881 eV

  energy without entropy =     -504.95066707  energy(sigma->0) =     -504.96021490


--------------------------------------------------------------------------------------------------------




--------------------------------------- Iteration      1(   9)  ---------------------------------------


    POTLOK:  cpu time    0.4057: real time    0.4067
    SETDIJ:  cpu time    0.0339: real time    0.0339
    EDDIAG:  cpu time   11.7695: real time   11.7973
  RMM-DIIS:  cpu time   40.8518: real time   40.9485
    ORTHCH:  cpu time    1.5388: real time    1.5424
       DOS:  cpu time    0.0030: real time    0.0030
    CHARGE:  cpu time    4.2158: real time    4.2258
    MIXING:  cpu time    0.0100: real time    0.0100
    --------------------------------------------
      LOOP:  cpu time   58.8284: real time   58.9676

 eigenvalue-minimisations  :  9468
 total energy-change (2. order) : 0.1173677E+03  (-0.1270558E+02)
 number of electron     776.0000021 magnetization     194.6366834
 augmentation part      367.9456515 magnetization     152.3237400

 Broyden mixing:
  rms(total) = 0.13023E+02    rms(broyden)= 0.13023E+02
  rms(prec ) = 0.15244E+02
  weight for this iteration     100.00

 eigenvalues of (default mixing * dielectric matrix)
  average eigenvalue GAMMA=   0.3811
  0.9684  0.3196  0.1000  0.1364

 Free energy of the ion-electron system (eV)
  ---------------------------------------------------
  alpha Z        PSCENC =      2230.33460859
  Ewald energy   TEWEN  =    217728.88257057
  -Hartree energ DENC   =   -288565.39985081
  -exchange      EXHF   =         0.00000000
  -V(xc)+E(xc)   XCENC  =      1355.73412287
  PAW double counting   =     72817.15264446   -74777.02122128
  entropy T*S    EENTRO =        -0.01232550
  eigenvalues    EBANDS =      -867.30896912
  atomic energy  EATOM  =     69690.04112127
  Solvation  Ediel_sol  =         0.00000000
  ---------------------------------------------------
  free energy    TOTEN  =      -387.59729895 eV

[...]
   0.464E+01 -.170E+02 -.287E+04   -.464E+01 0.173E+02 0.287E+04   0.268E-01 -.202E+00 0.104E+01   -.710E-03 -.579E-01 0.880E-01
   -.311E+02 -.276E+01 -.295E+04   0.311E+02 0.269E+01 0.295E+04   0.480E-01 0.940E-01 0.952E+00   -.596E-02 0.131E-02 0.126E+00
   0.371E+02 -.543E+01 -.289E+04   -.371E+02 0.529E+01 0.289E+04   -.816E-01 0.119E+00 0.891E+00   0.375E-01 -.343E-01 0.525E-01
   0.205E+02 0.828E+01 -.292E+04   -.196E+02 -.891E+01 0.291E+04   -.877E+00 0.506E+00 0.760E+00   0.851E-02 0.675E-01 0.235E+00
   -.164E+02 -.159E-01 -.289E+04   0.164E+02 -.238E+00 0.289E+04   -.547E-01 0.351E+00 0.165E+01   0.306E-01 -.174E-01 0.145E+00
   0.267E+02 0.224E+02 -.286E+04   -.270E+02 -.225E+02 0.286E+04   0.278E+00 0.876E-01 0.173E+01   0.130E-01 -.286E-01 0.211E+00
   0.220E+02 0.206E+02 -.293E+04   -.220E+02 -.206E+02 0.293E+04   -.491E-01 0.641E-02 0.765E+00   0.423E-01 -.437E-03 0.162E+00
   -.293E+02 -.169E+02 -.287E+04   0.291E+02 0.169E+02 0.287E+04   0.280E+00 -.725E-02 0.904E+00   0.251E-01 -.325E-01 0.157E+00
   0.591E+01 -.451E+02 -.291E+04   -.547E+01 0.451E+02 0.290E+04   -.370E+00 0.100E+00 0.902E+00   -.353E-01 0.926E-02 0.136E+00
   -.478E+02 0.387E+01 -.293E+04   0.477E+02 -.375E+01 0.292E+04   0.881E-01 -.100E+00 0.640E+00   0.238E-01 -.346E-01 0.375E-01
   0.245E+02 0.448E+01 -.293E+04   -.247E+02 -.427E+01 0.293E+04   0.193E+00 -.201E+00 0.102E+01   0.196E-01 -.199E-01 0.946E-01
   0.256E+02 0.422E+02 -.290E+04   -.260E+02 -.424E+02 0.290E+04   0.421E+00 0.212E+00 0.122E+00   -.364E-01 0.199E-01 0.274E+00
   -.558E+01 -.249E+02 -.291E+04   0.561E+01 0.248E+02 0.291E+04   -.699E-01 0.494E-01 0.800E+00   0.247E-01 0.469E-01 0.798E-01
   0.343E+01 0.148E+02 -.286E+04   -.309E+01 -.149E+02 0.286E+04   -.320E+00 0.514E-01 0.128E+01   -.510E-01 -.317E-01 0.142E+00
   0.433E+02 0.466E+02 -.142E+04   -.412E+02 -.475E+02 0.142E+04   -.197E+01 0.925E+00 0.255E+01   -.103E+00 0.232E-02 0.366E+00
   -.902E+02 -.387E+02 -.141E+04   0.899E+02 0.378E+02 0.141E+04   0.227E+00 0.926E+00 0.363E+01   -.248E-02 -.223E-02 0.301E+00
   -.228E+02 -.238E+02 0.300E+04   0.228E+02 0.241E+02 -.300E+04   -.242E-01 -.281E+00 -.194E+01   0.479E-02 0.210E-01 -.724E-01
   -.726E+02 0.225E+02 0.148E+04   0.731E+02 -.222E+02 -.148E+04   -.582E+00 -.323E+00 -.798E-01   0.644E-01 0.613E-01 0.133E+00
   0.100E+03 0.268E+02 -.140E+04   -.101E+03 -.256E+02 0.139E+04   0.603E+00 -.116E+01 0.321E+01   0.535E-01 -.111E+00 0.353E+00
   0.349E+02 0.500E+02 0.303E+04   -.355E+02 -.488E+02 -.303E+04   0.671E+00 -.119E+01 -.215E+01   -.325E-01 0.122E-02 -.139E+00
   0.906E+02 0.298E+01 0.147E+04   -.906E+02 -.417E+01 -.147E+04   0.727E-01 0.125E+01 -.115E+01   -.734E-01 -.503E-01 0.139E+00
   -.115E+02 0.224E+02 -.289E+04   0.114E+02 -.224E+02 0.289E+04   0.120E+00 -.866E-01 0.707E+00   0.149E-01 -.458E-02 0.111E+00
   0.499E+02 0.625E+02 0.204E+02   -.509E+02 -.626E+02 -.224E+02   0.111E+01 0.429E-02 0.174E+01   -.715E-01 -.280E-01 0.323E+00
   -.236E+02 -.228E+02 -.292E+04   0.233E+02 0.243E+02 0.291E+04   0.236E+00 -.147E+01 0.115E+01   0.504E-01 -.307E-01 0.223E+00
   -.664E+02 -.402E+02 0.116E+03   0.668E+02 0.402E+02 -.119E+03   -.314E+00 -.680E-01 0.175E+01   0.169E-01 -.565E-02 0.348E+00
   0.198E+02 -.378E+02 -.151E+04   -.204E+02 0.376E+02 0.150E+04   0.555E+00 0.768E-01 0.235E+01   0.668E-01 0.612E-01 0.429E+00
   0.364E+02 0.567E+02 -.145E+04   -.364E+02 -.559E+02 0.145E+04   -.434E-02 -.737E+00 0.271E+01   0.832E-02 0.163E-01 0.341E+00
   -.781E+02 -.494E+02 0.788E+02   0.782E+02 0.486E+02 -.802E+02   -.176E+00 0.735E+00 0.107E+01   0.109E+00 0.132E-01 0.384E+00
   0.489E+02 0.509E+02 0.961E+01   -.482E+02 -.520E+02 -.106E+02   -.824E+00 0.108E+01 0.850E+00   0.903E-02 0.226E-01 0.282E+00
   -.725E+02 -.714E+02 -.162E+04   0.724E+02 0.710E+02 0.162E+04   0.923E-01 0.477E+00 0.108E+01   0.122E-01 0.113E-01 0.392E+00
   0.101E+02 -.906E+02 0.332E+04   -.106E+02 0.907E+02 -.332E+04   0.373E+00 0.149E-01 -.234E+01   0.214E-01 -.764E-01 -.127E+00
   -.330E+02 -.507E+02 0.329E+04   0.324E+02 0.504E+02 -.328E+04   0.671E+00 0.464E+00 -.298E+01   -.728E-02 -.561E-01 -.960E-01
   -.547E+02 0.439E+02 0.331E+04   0.548E+02 -.437E+02 -.331E+04   -.136E+00 -.296E+00 -.359E+01   -.234E-01 -.459E-02 -.106E+00
   0.512E+02 0.280E+02 0.158E+04   -.512E+02 -.280E+02 -.158E+04   -.623E-01 -.828E-03 -.138E+01   -.262E-01 0.241E-01 0.204E+00
   0.220E+02 -.659E+02 0.167E+04   -.215E+02 0.657E+02 -.167E+04   -.621E+00 0.142E+00 -.885E+00   0.605E-01 0.195E-01 0.214E+00
   0.164E+02 0.168E+02 -.163E+04   -.170E+02 -.171E+02 0.163E+04   0.532E+00 0.243E+00 0.112E+01   0.998E-01 0.375E-01 0.443E+00
   -.317E+02 0.367E+01 0.335E+04   0.302E+02 -.410E+01 -.335E+04   0.152E+01 0.341E+00 -.327E+01   -.233E-01 0.113E+00 -.169E+00
   0.369E+01 0.811E+02 0.162E+04   -.391E+01 -.808E+02 -.162E+04   0.350E+00 -.406E+00 -.115E+01   -.801E-01 -.608E-02 0.164E+00
   -.546E+02 0.185E+02 0.368E+02   0.543E+02 -.183E+02 -.374E+02   0.132E+00 -.299E+00 0.758E-01   0.596E-01 0.205E-01 0.384E+00
   -.704E+02 -.391E+02 -.164E+04   0.701E+02 0.384E+02 0.163E+04   0.223E+00 0.793E+00 0.174E+01   0.569E-01 -.214E-01 0.371E+00
   0.710E+01 0.772E+02 -.165E+04   -.683E+01 -.765E+02 0.165E+04   -.208E+00 -.837E+00 0.891E+00   -.718E-01 0.609E-01 0.502E+00
   -.373E+02 -.248E+01 0.331E+04   0.377E+02 0.197E+01 -.330E+04   -.422E+00 0.480E+00 -.277E+01   0.277E-01 0.185E-01 -.144E+00
   0.205E+02 0.218E+02 0.304E+04   -.205E+02 -.215E+02 -.304E+04   -.126E+00 -.127E+00 -.613E+00   0.347E-01 -.552E-01 -.115E+00
   -.198E+02 0.569E+01 0.297E+04   0.215E+02 -.586E+01 -.297E+04   -.166E+01 0.122E+00 -.212E+01   0.487E-02 0.516E-01 -.576E-01
   -.664E+02 -.115E+03 0.148E+04   0.665E+02 0.114E+03 -.148E+04   -.107E+00 0.508E+00 -.935E+00   -.410E-02 0.595E-01 0.223E+00
   -.654E+02 -.135E+02 -.539E+02   0.646E+02 0.141E+02 0.528E+02   0.794E+00 -.720E+00 0.662E+00   0.300E-01 0.555E-01 0.358E+00
   -.110E+03 0.686E-01 0.148E+04   0.110E+03 0.366E+00 -.148E+04   0.605E-01 -.431E+00 -.470E+00   0.279E-01 -.360E-01 0.825E-01
   0.422E+02 0.328E+02 0.148E+04   -.421E+02 -.324E+02 -.148E+04   -.555E-01 -.372E+00 0.483E-01   -.248E-01 -.347E-01 0.118E+00
   0.737E+02 0.214E+02 -.147E+04   -.733E+02 -.216E+02 0.147E+04   -.432E+00 0.262E+00 0.164E+01   -.370E-01 -.153E-01 0.408E+00
   0.458E+02 -.349E+02 0.303E+04   -.449E+02 0.337E+02 -.303E+04   -.855E+00 0.129E+01 -.196E+01   -.505E-01 -.258E-01 -.103E+00
   0.177E+02 0.366E+02 0.146E+04   -.173E+02 -.364E+02 -.146E+04   -.436E+00 -.151E+00 -.370E+00   0.341E-01 -.369E-01 0.112E+00
   0.811E+02 -.491E+02 0.413E+02   -.809E+02 0.488E+02 -.416E+02   -.188E+00 0.311E+00 -.162E+00   0.424E-01 -.377E-01 0.410E+00
   0.859E+01 0.563E+02 0.244E+04   -.830E+01 -.558E+02 -.244E+04   -.293E+00 -.540E+00 -.282E+01   -.103E-01 0.285E-01 -.450E-01
   -.198E+02 -.502E+02 0.116E+04   0.198E+02 0.506E+02 -.116E+04   -.919E-01 -.343E+00 -.763E+00   0.541E-01 0.860E-02 0.171E+00
   0.214E+02 -.151E+02 0.117E+04   -.210E+02 0.148E+02 -.117E+04   -.397E+00 0.352E+00 -.781E+00   -.708E-02 -.301E-01 0.897E-01
   -.533E+02 -.458E+02 -.208E+02   0.535E+02 0.463E+02 0.202E+02   -.159E+00 -.550E+00 0.279E+00   -.388E-01 0.678E-02 0.274E+00
   0.424E+02 0.124E+02 -.118E+04   -.421E+02 -.121E+02 0.118E+04   -.274E+00 -.277E+00 0.114E+01   -.519E-01 -.523E-01 0.292E+00
   -.763E+02 -.959E+01 -.120E+04   0.762E+02 0.970E+01 0.119E+04   0.229E+00 -.964E-01 0.152E+01   0.311E-01 0.819E-02 0.362E+00
   0.159E+02 -.147E+02 0.243E+04   -.161E+02 0.151E+02 -.243E+04   0.219E+00 -.396E+00 -.326E+01   0.538E-02 -.890E-03 -.556E-01
   -.136E+02 -.507E+02 0.245E+04   0.134E+02 0.497E+02 -.245E+04   0.129E+00 0.115E+01 -.279E+01   0.324E-01 -.387E-01 -.884E-01
   -.341E+02 0.551E+01 0.305E+02   0.346E+02 -.560E+01 -.309E+02   -.556E+00 0.794E-01 0.646E-01   0.548E-02 -.112E-01 0.256E+00
   0.262E+02 0.481E+01 0.326E+02   -.267E+02 -.537E+01 -.329E+02   0.462E+00 0.579E+00 -.256E-01   0.132E-02 0.302E-02 0.257E+00
   -.385E+02 0.553E+01 0.120E+04   0.383E+02 -.525E+01 -.120E+04   0.217E+00 -.282E+00 -.108E+01   0.178E-01 -.109E-02 0.124E+00
   0.511E+02 0.175E+02 -.700E+02   -.509E+02 -.182E+02 0.705E+02   -.106E+00 0.838E+00 -.789E+00   -.537E-01 -.336E-01 0.192E+00
   -.681E+01 -.151E+02 -.785E+01   0.694E+01 0.146E+02 0.710E+01   -.660E-01 0.539E+00 0.445E+00   -.316E-01 -.181E-01 0.253E+00
   -.404E+02 0.287E+02 0.135E+04   0.403E+02 -.287E+02 -.135E+04   0.247E-01 -.175E-01 -.122E+00   -.174E-01 0.578E-01 0.514E-01
   -.234E+02 -.759E+01 0.134E+04   0.236E+02 0.812E+01 -.133E+04   -.254E+00 -.569E+00 -.952E+00   0.959E-02 0.170E-01 0.122E+00
   -.663E+01 -.797E+00 0.272E+04   0.543E+01 0.132E+01 -.271E+04   0.111E+01 -.453E+00 -.237E+01   0.323E-01 -.405E-01 -.129E+00
   0.347E+02 0.198E+02 0.270E+04   -.338E+02 -.201E+02 -.269E+04   -.830E+00 0.328E+00 -.275E+01   -.391E-01 -.109E-01 -.775E-01
   0.711E+02 0.307E+01 0.132E+04   -.713E+02 -.321E+01 -.132E+04   0.259E+00 0.227E+00 -.576E-02   -.563E-01 -.420E-01 0.103E+00
   0.633E+02 0.291E+02 0.130E+04   -.635E+02 -.289E+02 -.130E+04   0.232E+00 -.125E+00 -.114E+00   -.243E-01 -.296E-02 0.142E+00
   0.585E+02 0.237E+02 -.130E+04   -.588E+02 -.242E+02 0.130E+04   0.325E+00 0.489E+00 0.125E+01   0.399E-01 0.887E-02 0.317E+00
   0.499E+02 0.556E+02 0.274E+04   -.506E+02 -.551E+02 -.274E+04   0.623E+00 -.558E+00 -.181E+01   0.272E-01 0.585E-01 -.934E-01
   0.476E+02 0.298E+02 -.227E+01   -.481E+02 -.292E+02 0.199E+01   0.585E+00 -.598E+00 -.391E-01   -.281E-01 -.357E-01 0.287E+00
   0.226E+02 0.788E+02 -.167E+02   -.225E+02 -.779E+02 0.167E+02   -.969E-01 -.107E+01 -.388E+00   0.148E-02 0.450E-01 0.331E+00
   0.101E+03 0.448E+02 0.312E+02   -.100E+03 -.446E+02 -.318E+02   -.561E+00 -.222E+00 0.107E+00   -.395E-01 -.218E-01 0.344E+00
   -.764E+02 -.106E+03 0.127E+02   0.767E+02 0.106E+03 -.132E+02   -.415E+00 0.369E+00 0.154E+00   0.404E-01 0.513E-01 0.311E+00
   -.208E+01 -.132E+01 -.348E+03   0.230E+01 0.153E+01 0.349E+03   -.224E+00 -.246E+00 -.170E+01   0.215E-02 0.778E-02 -.151E-01
 -----------------------------------------------------------------------------------------------
   0.246E+00 0.554E+00 -.165E+02   -.572E-12 0.697E-12 0.767E-11   -.523E+00 -.426E+00 0.278E+01   0.311E+00 -.164E+00 0.137E+02
 
 
 POSITION                                       TOTAL-FORCE (eV/Angst)
 -----------------------------------------------------------------------------------
     12.97034      8.01679      6.94692        -0.009967      0.017311      0.003392
      5.12056      8.06553      6.96086         0.023657      0.009578     -0.037241
      5.03272      3.46232      7.03645         0.002195     -0.000518      0.032693
     14.31160      8.78113      9.33758         0.022329     -0.012164     -0.018425
      3.75430      4.20982      9.38491         0.008843     -0.006912      0.010906
      6.41549      8.79383      9.29965        -0.004097     -0.017965     -0.034433
     11.70852      4.19416      9.36278        -0.011902     -0.010059     -0.005827
      9.03512      8.77847      9.20852        -0.007337      0.028983      0.014569
     10.35748      1.91929      9.26175         0.013797     -0.002808      0.001122
      2.44569      1.92091      9.29887         0.004691     -0.025980      0.017721
     11.66108      8.78467      9.33014         0.018001      0.009258      0.009770
     13.01359      6.49567      9.33869         0.015439      0.006815      0.016161
      5.06127      1.92287      9.39611         0.006251     -0.001554     -0.030388
      7.71036      6.52010      9.35738        -0.002381     -0.004583      0.007514
      9.01744      4.20667      9.40944         0.008540     -0.007016      0.011254
      5.07769      6.50146      9.36944         0.012796      0.005495     -0.012585
      7.71263      1.91560      9.34024        -0.005457     -0.013306     -0.000755
      7.82035      3.40092      7.00089        -0.008879     -0.004531      0.027636
      6.32766      1.12068      6.92655        -0.004039     -0.005386      0.024565
      6.42748      1.11951      0.84379         0.000705      0.036508      0.015624
      3.74457      4.22498      2.80295         0.003944      0.012091     -0.025525
      1.14004      1.23484      6.89294        -0.005479     -0.030025      0.005651
      1.05351      1.23301      0.75714        -0.000552      0.010759      0.005379
      6.37970      8.73232      2.89580        -0.001056      0.013941      0.018087
      6.39350      4.22306      9.38423        -0.011703     -0.011591     -0.006450
      7.71519      4.98986      4.84188         0.029482     -0.060240      0.015366
     10.34514      6.54049      9.37695        -0.008455     -0.040685      0.009424
     14.36690      7.24966      4.78751         0.026805     -0.000044     -0.027783
     11.62366      5.69736      7.02787        -0.017253     -0.024312      0.011427
      6.43553      5.77818      7.01819        -0.004178      0.012279      0.013727
      3.72880      2.59487      4.89932        -0.019585      0.013686     -0.019884
     10.40714      4.90964      4.85294         0.010292      0.032061      0.058292
      3.73337      5.71759      7.05269         0.000528     -0.011726      0.009069
     13.01076      7.95414      0.82285        -0.022423      0.029030     -0.008361
      5.07062      7.97664      0.75916         0.001319      0.016231     -0.000725
      3.74725      5.77233      0.77268         0.000655      0.003470     -0.010281
      7.73906      1.95923      2.91892         0.007243     -0.003708     -0.001316
      9.04575      8.78897      2.87226        -0.007697     -0.013457      0.006656
      2.43011      3.47608      7.06154         0.006144      0.006716      0.013132
      2.40788      3.44595      0.73676        -0.009021      0.025511     -0.002735
     10.29842      1.96823      2.88139         0.021533     -0.014273     -0.015178
     13.01351      4.98805      4.94410        -0.011330     -0.019940      0.002550
      3.72472      1.10086      7.02731         0.010719     -0.008203      0.009406
      9.04514      5.76908      7.08270         0.012491     -0.007356      0.017808
      3.74683      1.15285      0.81959        -0.001661      0.003013      0.008732
      9.06513      5.72471      0.92537        -0.017053      0.027241     -0.004971
      5.21212      3.41637      0.86086        -0.000967      0.008010     -0.004537
     11.65625      8.70496      2.91787        -0.023885     -0.010351      0.003518
     11.62151      7.29974      4.90178         0.007091     -0.034774     -0.018077
     12.89980      6.49745      2.82364         0.022552     -0.015631     -0.017566
      9.01343      4.18612      2.81919        -0.002427      0.012880     -0.011210
      7.80243      8.01033      6.95389         0.006292     -0.000023     -0.001889
      7.81053      7.92859      0.86888        -0.016330     -0.004527      0.017943
     10.31657      6.54831      2.89472         0.016563      0.006795     -0.001031
      2.46166      0.31661      4.92733        -0.008108     -0.018686     -0.012367
      7.75154      3.52543      0.86333        -0.003265      0.004820      0.000480
      5.10291      1.89984      2.87069        -0.004738      0.023232     -0.019252
      5.17349      6.40557      2.77226        -0.030309      0.027458      0.002946
      7.65418      0.39388      4.89233         0.030749     -0.011540     -0.008634
      9.05727      1.15789      7.10688         0.009364      0.002772      0.003549
     10.30483      7.99263      6.98116         0.009389     -0.000631      0.025557
      9.02330      1.20380      0.78512        -0.021276     -0.012220      0.010751
     10.37425      7.90856      0.90129        -0.035863      0.010362      0.004554
      5.10488      4.93977      4.94140         0.013201      0.009149     -0.032006
     11.69653      2.64892      4.87494        -0.030728      0.019880      0.001309
     14.26247      8.83804      2.80295        -0.031666      0.015465     -0.038838
      9.09183      2.62352      4.93970         0.001538      0.033489      0.041124
      6.39598      2.67997      4.92292         0.026388     -0.002331     -0.059019
     11.64052      4.17844      2.78900        -0.007211      0.006285      0.008677
      2.34972      1.92500      2.86197         0.010340     -0.000543     -0.019920
     11.59075      5.72177      0.94802        -0.028438      0.011035     -0.005522
      6.50379      5.69604      0.91052         0.010192      0.005739      0.011781
      7.71278      6.45493      2.81038        -0.007521      0.016529      0.025582
      6.43155      4.20716      2.83788         0.019995     -0.015165     -0.004599
     10.37022      3.38924      7.00211         0.005854      0.012417     -0.005701
     10.36553      3.54396      0.90454        -0.010257      0.002666     -0.020526
     10.23662      0.46679      4.91587        -0.026889      0.000288      0.031504
      9.06408      7.34028      4.95059         0.007350     -0.045713     -0.014081
      6.48344      7.27349      4.94428         0.006772     -0.000865     -0.025505
      5.04827      0.31035      4.87551         0.017583      0.012013      0.007208
     10.33289      4.89494     10.39550        -0.008228     -0.029921     -0.010974
 -----------------------------------------------------------------------------------
    total drift:                                0.033154     -0.036147      0.022482


--------------------------------------------------------------------------------------------------------



  FREE ENERGIE OF THE ION-ELECTRON SYSTEM (eV)
  ---------------------------------------------------
  free  energy   TOTEN  =      -514.72722773 eV

  energy  without entropy=     -514.73056136  energy(sigma->0) =     -514.72833894
 
 d Force = 0.1387100E-02[ 0.948E-03, 0.183E-02]  d Energy = 0.1397170E-02-0.101E-04
 d Force = 0.4245002E+02[ 0.425E+02, 0.424E+02]  d Ewald  = 0.4245002E+02-0.104E-05


--------------------------------------------------------------------------------------------------------


    POTLOK:  cpu time    0.4416: real time    0.4426


--------------------------------------------------------------------------------------------------------


 Conjugate gradient step on ions:
 trial-energy change:   -0.001397  1 .order   -0.001387   -0.001826   -0.000948
  (g-gl).g = 0.264E-02      g.g   = 0.228E-02  gl.gl    = 0.356E-02
 g(Force)  = 0.228E-02   g(Stress)= 0.000E+00 ortho     =-0.379E-03
 gamma     =   0.74223
 trial     =   0.91157
 opt step  =   1.89592  (harmonic =   1.89592) maximal distance =0.01131247
 next E    =  -514.727730   (d E  =  -0.00190)


--------------------------------------------------------------------------------------------------------


  
 reached required accuracy - stopping structural energy minimisation
     LOOP+:  cpu time  504.3599: real time  505.7146
    4ORBIT:  cpu time    0.0000: real time    0.0000

 total amount of memory used by VASP MPI-rank0   259158. kBytes
=======================================================================

   base      :      30000. kBytes
   nonlr-proj:      34704. kBytes
   fftplans  :      17962. kBytes
   grid      :      55536. kBytes
   one-center:        653. kBytes
   wavefun   :     120303. kBytes
 
  
  
 General timing and accounting informations for this job:
 ========================================================
  
                  Total CPU time used (sec):    16897.453
                            User time (sec):    16885.201
                          System time (sec):       12.252
                         Elapsed time (sec):    16981.453
  
                   Maximum memory used (kb):      991372.
                   Average memory used (kb):           0.
  
                          Minor page faults:      3439571
                          Major page faults:            0
                 Voluntary context switches:         3016
