 vasp.5.4.4.18Apr17-6-g9f103f2a35 (build Nov 30 2020 22:55:02) complex          
  
 executed on             LinuxIFC date 2023.09.07  19:57:27
 running on   40 total cores
 distrk:  each k-point on   40 cores,    1 groups
 distr:  one band on NCORES_PER_BAND=   4 cores,   10 groups


--------------------------------------------------------------------------------------------------------


 INCAR:
 POTCAR:    PAW_PBE Pt 04Feb2005                  
 POTCAR:    PAW_PBE H 15Jun2001                   
 POTCAR:    PAW_PBE Pt 04Feb2005                  
   VRHFIN =Pt: s1d9                                                             
   LEXCH  = PE                                                                  
   EATOM  =   729.1176 eV,   53.5886 Ry                                         
                                                                                
   TITEL  = PAW_PBE Pt 04Feb2005                                                
   LULTRA =        F    use ultrasoft PP ?                                      
   IUNSCR =        1    unscreen: 0-lin 1-nonlin 2-no                           
   RPACOR =    2.330    partial core radius                                     
   POMASS =  195.080; ZVAL   =   10.000    mass and valenz                      
   RCORE  =    2.600    outmost cutoff radius                                   
   RWIGS  =    2.750; RWIGS  =    1.455    wigner-seitz radius (au A)           
   ENMAX  =  230.283; ENMIN  =  172.712 eV                                      
   ICORE  =        3    local potential                                         
   LCOR   =        T    correct aug charges                                     
   LPAW   =        T    paw PP                                                  
   EAUG   =  358.966                                                            
   DEXC   =    0.000                                                            
   RMAX   =    2.658    core radius for proj-oper                               
   RAUG   =    1.300    factor for augmentation sphere                          
   RDEP   =    2.761    radius for radial grids                                 
   RDEPT  =    2.203    core radius for aug-charge                              
                                                                                
   Atomic configuration                                                         
   16 entries                                                                   
     n  l   j            E        occ.                                          
     1  0  0.50    -78401.1885   2.0000                                         
     2  0  0.50    -13770.7750   2.0000                                         
     2  1  1.50    -11931.0468   6.0000                                         
     3  0  0.50     -3234.7234   2.0000                                         
     3  1  1.50     -2699.2216   6.0000                                         
     3  2  2.50     -2119.5714  10.0000                                         
     4  0  0.50      -695.1528   2.0000                                         
     4  1  1.50      -519.6034   6.0000                                         
     4  2  2.50      -306.6786  10.0000                                         
     4  3  3.50       -70.1041  14.0000                                         
     5  0  0.50      -101.7747   2.0000                                         
     5  1  1.50       -55.9873   6.0000                                         
     5  2  2.50        -6.1423   9.0000                                         
     6  0  0.50        -5.6573   1.0000                                         
     6  1  1.50        -6.8029   0.0000                                         
     5  3  2.50        -1.3606   0.0000                                         
   Description                                                                  
     l       E           TYP  RCUT    TYP  RCUT                                 
     2     -6.1423404     23  2.500                                             
     2     -7.5029230     23  2.500                                             
     0     -5.6573207     23  2.500                                             
     0      0.7416693     23  2.500                                             
     1     -2.7211652     23  2.600                                             
     1     20.4087390     23  2.600                                             
     3     -1.3605826     23  2.500                                             
  local pseudopotential read in
  partial core-charges read in
  partial kinetic energy density read in
  atomic valenz-charges read in
  non local Contribution for L=           2  read in
    real space projection operators read in
  non local Contribution for L=           2  read in
    real space projection operators read in
  non local Contribution for L=           0  read in
    real space projection operators read in
  non local Contribution for L=           0  read in
    real space projection operators read in
  non local Contribution for L=           1  read in
    real space projection operators read in
  non local Contribution for L=           1  read in
    real space projection operators read in
    PAW grid and wavefunctions read in
 
   number of l-projection  operators is LMAX  =           6
   number of lm-projection operators is LMMAX =          18
 
 POTCAR:    PAW_PBE H 15Jun2001                   
   VRHFIN =H: ultrasoft test                                                    
   LEXCH  = PE                                                                  
   EATOM  =    12.4884 eV,    0.9179 Ry                                         
                                                                                
   TITEL  = PAW_PBE H 15Jun2001                                                 
   LULTRA =        F    use ultrasoft PP ?                                      
   IUNSCR =        0    unscreen: 0-lin 1-nonlin 2-no                           
   RPACOR =    0.000    partial core radius                                     
   POMASS =    1.000; ZVAL   =    1.000    mass and valenz                      
   RCORE  =    1.100    outmost cutoff radius                                   
   RWIGS  =    0.700; RWIGS  =    0.370    wigner-seitz radius (au A)           
   ENMAX  =  250.000; ENMIN  =  200.000 eV                                      
   RCLOC  =    0.701    cutoff for local pot                                    
   LCOR   =        T    correct aug charges                                     
   LPAW   =        T    paw PP                                                  
   EAUG   =  400.000                                                            
   RMAX   =    1.123    core radius for proj-oper                               
   RAUG   =    1.200    factor for augmentation sphere                          
   RDEP   =    1.112    radius for radial grids                                 
   RDEPT  =    0.926    core radius for aug-charge                              
                                                                                
   Atomic configuration                                                         
    2 entries                                                                   
     n  l   j            E        occ.                                          
     1  0  0.50        -6.4927   1.0000                                         
     2  1  0.50        -3.4015   0.0000                                         
   Description                                                                  
     l       E           TYP  RCUT    TYP  RCUT                                 
     0     -6.4927494     23  1.100                                             
     0      6.8029130     23  1.100                                             
     1     -4.0817478     23  1.100                                             
  local pseudopotential read in
  atomic valenz-charges read in
  non local Contribution for L=           0  read in
    real space projection operators read in
  non local Contribution for L=           0  read in
    real space projection operators read in
  non local Contribution for L=           1  read in
    real space projection operators read in
    PAW grid and wavefunctions read in
 
   number of l-projection  operators is LMAX  =           3
   number of lm-projection operators is LMMAX =           5
 
 Optimization of the real space projectors (new method)

 maximal supplied QI-value         = 14.36
 optimisation between [QCUT,QGAM] = [ 11.92, 23.98] = [ 39.79,161.09] Ry 
 Optimized for a Real-space Cutoff    1.49 Angstroem

   l    n(q)    QCUT    max X(q) W(low)/X(q) W(high)/X(q)  e(spline) 
   2     10    11.920    66.195    0.79E-04    0.18E-03    0.24E-06
   2     10    11.920    64.643    0.81E-04    0.19E-03    0.24E-06
   0     11    11.920    95.520    0.28E-04    0.54E-04    0.18E-06
   0     11    11.920    63.403    0.27E-04    0.52E-04    0.17E-06
   1     10    11.920    19.961    0.18E-04    0.11E-03    0.23E-06
   1     10    11.920    13.289    0.25E-04    0.87E-04    0.19E-06
 Optimization of the real space projectors (new method)

 maximal supplied QI-value         = 34.20
 optimisation between [QCUT,QGAM] = [ 11.97, 23.94] = [ 40.13,160.53] Ry 
 Optimized for a Real-space Cutoff    1.18 Angstroem

   l    n(q)    QCUT    max X(q) W(low)/X(q) W(high)/X(q)  e(spline) 
   0      8    11.971    19.460    0.15E-03    0.31E-03    0.25E-06
   0      8    11.971    12.209    0.13E-03    0.29E-03    0.25E-06
   1      8    11.971     4.655    0.22E-03    0.24E-03    0.21E-06
  PAW_PBE Pt 04Feb2005                  :
 energy of atom  1       EATOM= -729.1176
 kinetic energy error for atom=    0.0021 (will be added to EATOM!!)
  PAW_PBE H 15Jun2001                   :
 energy of atom  2       EATOM=  -12.4884
 kinetic energy error for atom=    0.0008 (will be added to EATOM!!)
 
 
 POSCAR: Pt111                                   
  positions in cartesian coordinates
  No initial velocities read in
 exchange correlation table for  LEXCH =        8
   RHO(1)=    0.500       N(1)  =     2000
   RHO(2)=  100.500       N(2)  =     4000
 


--------------------------------------------------------------------------------------------------------


 ion  position               nearest neighbor table
   1  0.784  0.869  0.328-  71 2.74  20 2.75  55 2.75  43 2.79   3 2.79  27 2.79   2 2.79  73 2.79
                            56 2.79  72 2.79  35 2.79  34 2.79
   2  0.034  0.869  0.328-  55 2.74  65 2.75  68 2.75  29 2.79   3 2.79  57 2.79  72 2.79   1 2.79
                            23 2.79  47 2.79  39 2.79  27 2.79
   3  0.034  0.619  0.328-  12 2.74  55 2.75  76 2.75   9 2.79   1 2.79   2 2.79  39 2.79  56 2.79
                            28 2.79  57 2.79  15 2.79  35 2.80
   4  0.787  0.867  0.022-   6 2.79  21 2.79   5 2.79  58 2.79  75 2.79  78 2.79  74 2.79  44 2.79
                            19 2.80
   5  0.037  0.868  0.022-  74 2.78   4 2.79  48 2.79  49 2.79  70 2.79  24 2.79  59 2.79   6 2.79
                            78 2.80
   6  0.037  0.618  0.022-  46 2.79  18 2.79   4 2.79  70 2.79  59 2.79  10 2.79  58 2.79   5 2.79
                            21 2.80
   7  0.619  0.202  0.126-  71 2.74  79 2.74  80 2.75  42 2.78  78 2.79  53 2.79  44 2.79  22 2.79
                            11 2.79  61 2.79  19 2.79  74 2.80
   8  0.369  0.952  0.126-  66 2.74  69 2.74  26 2.75  16 2.79  25 2.79  19 2.79  54 2.79  24 2.79
                            49 2.79  60 2.79  53 2.79  75 2.80
   9  0.035  0.369  0.328-  12 2.74  77 2.75  62 2.75   3 2.79  33 2.79  15 2.79  13 2.79  56 2.79
                            47 2.79  63 2.79  30 2.79  28 2.79
  10  0.037  0.368  0.022-  54 2.78  48 2.79  64 2.79  46 2.79  18 2.79   6 2.79  58 2.79  16 2.79
                            45 2.80
  11  0.869  0.202  0.125-  65 2.74  77 2.75  79 2.75  64 2.79  45 2.79  49 2.79  74 2.79   7 2.79
                            22 2.79  54 2.79  78 2.79  48 2.80
  12  0.952  0.536  0.227-  21 2.74   9 2.74   3 2.74  45 2.74  56 2.75  46 2.75  77 2.79  55 2.79
                            20 2.79  67 2.79  76 2.79  62 2.79
  13  0.285  0.119  0.328-  62 2.74  26 2.74  69 2.75  73 2.79  43 2.79  31 2.79  36 2.79  23 2.79
                             9 2.79  47 2.79  15 2.79  33 2.80
  14  0.534  0.619  0.328-  51 2.74  66 2.74  67 2.75  41 2.79  56 2.79  73 2.79  57 2.79  52 2.79
                            23 2.79  63 2.79  38 2.79  37 2.80
  15  0.285  0.369  0.328-  62 2.75  76 2.75  80 2.75  41 2.79  57 2.79   9 2.79  50 2.79  43 2.79
                            36 2.79  13 2.79   3 2.79  28 2.80
  16  0.288  0.118  0.022-   8 2.79  44 2.79  75 2.79  53 2.79  18 2.79  48 2.79  24 2.79  10 2.79
                            54 2.80
  17  0.537  0.618  0.022-  22 2.79  59 2.79  24 2.79  25 2.79  42 2.79  64 2.79  58 2.79  75 2.79
                            60 2.80
  18  0.287  0.368  0.022-  53 2.79   6 2.79  59 2.79  61 2.79  16 2.79  10 2.79  44 2.79  42 2.79
                            46 2.80
  19  0.619  0.952  0.125-  20 2.74  71 2.75  69 2.75  44 2.79   8 2.79  75 2.79  21 2.79  53 2.79
                            25 2.79  78 2.79   7 2.79   4 2.80
  20  0.702  0.786  0.227-  19 2.74  56 2.74  25 2.75   1 2.75  73 2.75  21 2.75  67 2.79  66 2.79
                            69 2.79  12 2.79  71 2.79  55 2.79
  21  0.869  0.702  0.126-  12 2.74  55 2.75  20 2.75   4 2.79  45 2.79  19 2.79  58 2.79  46 2.79
                            70 2.79  78 2.79  25 2.79   6 2.80
  22  0.619  0.452  0.126-  79 2.74  67 2.74  51 2.75  17 2.79  25 2.79  61 2.79  42 2.79  45 2.79
                             7 2.79  11 2.79  60 2.79  64 2.80
  23  0.284  0.869  0.328-  26 2.74  68 2.75  66 2.75  31 2.79  73 2.79  47 2.79  13 2.79  14 2.79
                            57 2.79   2 2.79  37 2.79  29 2.80
  24  0.287  0.868  0.022-  60 2.79  17 2.79  48 2.79   8 2.79   5 2.79  59 2.79  16 2.79  75 2.79
                            49 2.80
  25  0.619  0.702  0.125-  67 2.74  20 2.75  66 2.75   8 2.79  75 2.79  22 2.79  17 2.79  60 2.79
                            19 2.79  45 2.79  21 2.79  58 2.80
  26  0.202  0.036  0.227-  54 2.74  13 2.74  23 2.74  49 2.75  47 2.75   8 2.75  69 2.79  62 2.79
                            77 2.79  66 2.79  65 2.79  68 2.79
  27  0.867  0.953  0.431-  29 2.78   1 2.79  34 2.79  72 2.79  39 2.79  40 2.79  32 2.79   2 2.79
                            35 2.79
  28  0.117  0.453  0.432-  39 2.78  50 2.79   3 2.79  30 2.79  35 2.79  33 2.79  36 2.79   9 2.79
                            15 2.80
  29  0.117  0.953  0.431-  27 2.78  32 2.79   2 2.79  47 2.79  39 2.79  31 2.79  37 2.79  33 2.79
                            23 2.80
  30  0.868  0.453  0.431-  33 2.78  32 2.79  35 2.79  28 2.79  63 2.79   9 2.79  56 2.79  38 2.79
                            52 2.79
  31  0.367  0.953  0.432-  37 2.79  33 2.79  23 2.79  36 2.79  13 2.79  29 2.79  52 2.80  34 2.80
                            73 2.80
  32  0.867  0.203  0.431-  30 2.79  38 2.79  29 2.79  63 2.79  40 2.79  33 2.79  27 2.79  72 2.79
                            47 2.79
  33  0.117  0.203  0.431-  30 2.78  31 2.79  36 2.79   9 2.79  32 2.79  47 2.79  28 2.79  29 2.79
                            13 2.80
  34  0.617  0.953  0.431-  36 2.79  35 2.79  43 2.79  73 2.79  40 2.79  27 2.79  52 2.79   1 2.79
                            31 2.80
  35  0.867  0.703  0.431-  52 2.79  34 2.79  30 2.79  56 2.79  28 2.79   1 2.79  27 2.79  39 2.79
                             3 2.80
  36  0.367  0.203  0.432-  34 2.79  33 2.79  40 2.79  31 2.79  13 2.79  15 2.79  50 2.79  28 2.79
                            43 2.80
  37  0.367  0.703  0.432-  81 1.62  31 2.79  52 2.79  23 2.79  38 2.79  50 2.79  57 2.79  39 2.79
                            29 2.79  14 2.80
  38  0.617  0.453  0.431-  81 1.97  32 2.79  40 2.79  41 2.79  50 2.79  52 2.79  37 2.79  14 2.79
                            30 2.79  63 2.80
  39  0.117  0.703  0.431-  28 2.78  50 2.79  29 2.79   3 2.79  27 2.79   2 2.79  37 2.79  57 2.79
                            35 2.79
  40  0.617  0.203  0.431-  38 2.79  43 2.79  41 2.79  36 2.79  34 2.79  27 2.79  50 2.79  32 2.79
                            72 2.80
  41  0.535  0.369  0.328-  80 2.74  51 2.74  79 2.75  15 2.79  14 2.79  40 2.79  38 2.79  63 2.79
                            72 2.79  57 2.79  43 2.79  50 2.80
  42  0.538  0.367  0.022-   7 2.78  74 2.79  44 2.79  64 2.79  22 2.79  17 2.79  18 2.79  59 2.79
                            61 2.80
  43  0.535  0.119  0.328-  80 2.74  69 2.74  71 2.75   1 2.79  40 2.79  34 2.79  72 2.79  13 2.79
                            15 2.79  41 2.79  73 2.79  36 2.80
  44  0.537  0.118  0.022-  19 2.79  42 2.79  16 2.79  75 2.79   7 2.79  74 2.79   4 2.79  18 2.79
                            53 2.80
  45  0.869  0.452  0.126-  77 2.74  12 2.74  67 2.75  21 2.79  58 2.79  11 2.79  22 2.79  46 2.79
                            25 2.79  64 2.79  54 2.79  10 2.80
  46  0.119  0.452  0.126-  62 2.74  76 2.75  12 2.75   6 2.79  54 2.79  10 2.79  21 2.79  53 2.79
                            45 2.79  70 2.79  61 2.79  18 2.80
  47  0.035  0.119  0.328-  77 2.74  65 2.75  26 2.75  23 2.79  29 2.79  63 2.79  72 2.79  13 2.79
                             9 2.79  33 2.79   2 2.79  32 2.79
  48  0.037  0.118  0.022-  49 2.79  10 2.79   5 2.79  24 2.79  54 2.79  74 2.79  64 2.79  16 2.79
                            11 2.80
  49  0.119  0.952  0.126-  68 2.75  26 2.75  65 2.75  48 2.79  60 2.79   5 2.79  11 2.79  54 2.79
                             8 2.79  70 2.79  78 2.79  24 2.80
  50  0.367  0.453  0.432-  81 2.01  28 2.79  39 2.79  15 2.79  38 2.79  40 2.79  57 2.79  37 2.79
                            36 2.79  41 2.80
  51  0.452  0.536  0.227-  41 2.74  61 2.74  14 2.74  60 2.74  57 2.75  22 2.75  76 2.79  80 2.79
                            66 2.79  68 2.79  67 2.79  79 2.79
  52  0.617  0.703  0.431-  35 2.79  37 2.79  14 2.79  38 2.79  73 2.79  34 2.79  30 2.79  31 2.80
                            56 2.80
  53  0.369  0.202  0.126-  69 2.74  80 2.74  62 2.75  18 2.79  61 2.79  16 2.79  54 2.79   7 2.79
                            19 2.79  46 2.79   8 2.79  44 2.80
  54  0.120  0.202  0.126-  26 2.74  62 2.75  77 2.75  10 2.78  46 2.79  53 2.79   8 2.79  49 2.79
                            48 2.79  11 2.79  45 2.79  16 2.80
  55  0.952  0.786  0.227-   2 2.74  78 2.74   3 2.75  21 2.75   1 2.75  70 2.75  71 2.79  68 2.79
                            12 2.79  76 2.79  65 2.79  20 2.79
  56  0.784  0.619  0.328-  67 2.74  20 2.74  12 2.75  63 2.79  14 2.79  73 2.79   3 2.79  35 2.79
                             9 2.79   1 2.79  30 2.79  52 2.80
  57  0.284  0.619  0.328-  76 2.74  68 2.74  51 2.75  15 2.79   2 2.79  14 2.79  23 2.79  41 2.79
                             3 2.79  50 2.79  37 2.79  39 2.79
  58  0.787  0.618  0.022-  75 2.79  64 2.79  45 2.79   4 2.79  21 2.79  10 2.79   6 2.79  17 2.79
                            25 2.80
  59  0.287  0.618  0.022-  61 2.79  17 2.79  18 2.79   6 2.79  60 2.79  24 2.79   5 2.79  42 2.79
                            70 2.80
  60  0.369  0.702  0.126-  51 2.74  66 2.75  68 2.75  24 2.79  49 2.79  70 2.79  59 2.79  61 2.79
                            25 2.79   8 2.79  22 2.79  17 2.80
  61  0.369  0.452  0.126-  80 2.74  51 2.74  76 2.75  59 2.79  53 2.79  22 2.79  18 2.79  60 2.79
                             7 2.79  46 2.79  70 2.79  42 2.80
  62  0.202  0.286  0.227-  13 2.74  46 2.74  15 2.75  54 2.75   9 2.75  53 2.75  26 2.79  77 2.79
                            69 2.79  76 2.79  80 2.79  12 2.79
  63  0.785  0.369  0.328-  67 2.74  79 2.75  77 2.75  56 2.79  32 2.79  72 2.79  47 2.79  41 2.79
                            30 2.79  14 2.79   9 2.79  38 2.80
  64  0.787  0.368  0.022-  10 2.79  11 2.79  58 2.79  42 2.79  45 2.79  17 2.79  74 2.79  48 2.79
                            22 2.80
  65  0.952  0.036  0.227-  11 2.74   2 2.75  78 2.75  47 2.75  72 2.75  49 2.75  79 2.79  68 2.79
                            71 2.79  77 2.79  55 2.79  26 2.79
  66  0.452  0.786  0.227-   8 2.74  14 2.74  73 2.74  60 2.75  23 2.75  25 2.75  20 2.79  67 2.79
                            51 2.79  26 2.79  69 2.79  68 2.79
  67  0.702  0.536  0.227-  56 2.74  22 2.74  25 2.74  63 2.74  45 2.75  14 2.75  20 2.79  66 2.79
                            12 2.79  51 2.79  79 2.79  77 2.79
  68  0.202  0.786  0.227-  70 2.74  57 2.74  49 2.75  23 2.75   2 2.75  60 2.75  76 2.79  55 2.79
                            65 2.79  51 2.79  66 2.79  26 2.79
  69  0.452  0.036  0.227-  53 2.74  73 2.74   8 2.74  43 2.74  13 2.75  19 2.75  26 2.79  20 2.79
                            66 2.79  62 2.79  71 2.79  80 2.79
  70  0.119  0.702  0.126-  68 2.74  76 2.74  55 2.75   6 2.79  60 2.79  78 2.79   5 2.79  21 2.79
                            46 2.79  49 2.79  61 2.79  59 2.80
  71  0.702  0.036  0.227-   7 2.74   1 2.74  72 2.75  19 2.75  78 2.75  43 2.75  55 2.79  80 2.79
                            79 2.79  69 2.79  65 2.79  20 2.79
  72  0.785  0.119  0.328-  79 2.74  71 2.75  65 2.75  43 2.79  63 2.79   2 2.79  47 2.79  41 2.79
                            27 2.79   1 2.79  32 2.79  40 2.80
  73  0.534  0.869  0.328-  69 2.74  66 2.74  20 2.75  13 2.79  23 2.79  14 2.79  34 2.79  56 2.79
                             1 2.79  52 2.79  43 2.79  31 2.80
  74  0.787  0.118  0.022-   5 2.78  42 2.79  78 2.79  44 2.79  11 2.79  48 2.79  64 2.79   4 2.79
                             7 2.80
  75  0.537  0.868  0.022-  58 2.79  16 2.79  25 2.79  19 2.79   4 2.79  44 2.79  24 2.79  17 2.79
                             8 2.80
  76  0.202  0.536  0.227-  57 2.74  70 2.74  46 2.75  15 2.75   3 2.75  61 2.75  68 2.79  51 2.79
                            55 2.79  62 2.79  12 2.79  80 2.79
  77  0.952  0.286  0.227-  47 2.74  45 2.74   9 2.75  11 2.75  63 2.75  54 2.75  12 2.79  26 2.79
                            62 2.79  65 2.79  79 2.79  67 2.79
  78  0.869  0.952  0.126-  55 2.74  65 2.75  71 2.75  74 2.79   7 2.79  70 2.79  19 2.79  49 2.79
                            11 2.79   4 2.79  21 2.79   5 2.80
  79  0.702  0.286  0.227-  22 2.74  72 2.74   7 2.74  63 2.75  11 2.75  41 2.75  80 2.79  65 2.79
                            71 2.79  67 2.79  77 2.79  51 2.79
  80  0.452  0.286  0.227-  41 2.74  43 2.74  61 2.74  53 2.74  15 2.75   7 2.75  79 2.79  51 2.79
                            71 2.79  62 2.79  69 2.79  76 2.79
  81  0.438  0.565  0.473-  37 1.62  38 1.97  50 2.01
 
  LATTYP: Found a hexagonal cell.
 ALAT       =    11.1599998850
 C/A-ratio  =     1.9713261852
  
  Lattice vectors:
  
 A1 = (   5.5799999991,  -9.6648433740,   0.0000000000)
 A2 = ( -11.1599999990,   0.0000000000,   0.0000000000)
 A3 = (   0.0000000000,   0.0000000000, -22.0000000000)


Analysis of symmetry for initial positions (statically):
=====================================================================
 Subroutine PRICEL returns:
 Original cell was already a primitive cell.
 

 Routine SETGRP: Setting up the symmetry group for a 
 hexagonal supercell.


 Subroutine GETGRP returns: Found  1 space group operations
 (whereof  1 operations were pure point group operations)
 out of a pool of 24 trial point group operations.


The static configuration has the point symmetry C_1 .


Analysis of symmetry for dynamics (positions and initial velocities):
=====================================================================
 Subroutine PRICEL returns:
 Original cell was already a primitive cell.
 

 Routine SETGRP: Setting up the symmetry group for a 
 hexagonal supercell.


 Subroutine GETGRP returns: Found  1 space group operations
 (whereof  1 operations were pure point group operations)
 out of a pool of 24 trial point group operations.


The dynamic configuration has the point symmetry C_1 .


Analysis of constrained symmetry for selective dynamics:
=====================================================================
 Subroutine PRICEL returns:
 Original cell was already a primitive cell.
 

 Routine SETGRP: Setting up the symmetry group for a 
 hexagonal supercell.


 Subroutine GETGRP returns: Found  1 space group operations
 (whereof  1 operations were pure point group operations)
 out of a pool of 24 trial point group operations.


The constrained configuration has the point symmetry C_1 .


Analysis of structural, dynamic, and magnetic symmetry:
=====================================================================
 Subroutine PRICEL returns:
 Original cell was already a primitive cell.
 

 Routine SETGRP: Setting up the symmetry group for a 
 hexagonal supercell.


 Subroutine GETGRP returns: Found  1 space group operations
 (whereof  1 operations were pure point group operations)
 out of a pool of 24 trial point group operations.


The magnetic configuration has the point symmetry C_1 .


 Subroutine INISYM returns: Found  1 space group operations
 (whereof  1 operations are pure point group operations),
 and found     1 'primitive' translations

 
 
 KPOINTS: mesh auto                               

Automatic generation of k-mesh.
Space group operators:
 irot       det(A)        alpha          n_x          n_y          n_z        tau_x        tau_y        tau_z
    1     1.000000     0.000000     1.000000     0.000000     0.000000     0.000000     0.000000     0.000000
 
 Subroutine IBZKPT returns following result:
 ===========================================
 
 Found      4 irreducible k-points:
 
 Following reciprocal coordinates:
            Coordinates               Weight
  0.000000  0.000000  0.000000      1.000000
  0.500000  0.000000  0.000000      1.000000
  0.000000  0.500000  0.000000      1.000000
  0.500000  0.500000  0.000000      1.000000
 
 Following cartesian coordinates:
            Coordinates               Weight
  0.000000  0.000000  0.000000      1.000000
  0.044803 -0.025867  0.000000      1.000000
  0.000000  0.051734  0.000000      1.000000
  0.044803  0.025867  0.000000      1.000000
 


--------------------------------------------------------------------------------------------------------




 Dimension of arrays:
   k-points           NKPTS =      4   k-points in BZ     NKDIM =      4   number of bands    NBANDS=    530
   number of dos      NEDOS =    301   number of ions     NIONS =     81
   non local maximal  LDIM  =      6   non local SUM 2l+1 LMDIM =     18
   total plane-waves  NPLWV = ******
   max r-space proj   IRMAX =   8018   max aug-charges    IRDMAX=  34929
   dimension x,y,z NGX =    90 NGY =   90 NGZ =  168
   dimension x,y,z NGXF=   180 NGYF=  180 NGZF=  336
   support grid    NGXF=   180 NGYF=  180 NGZF=  336
   ions per type =              80   1
   NGX,Y,Z   is equivalent  to a cutoff of  13.41, 13.41, 12.70 a.u.
   NGXF,Y,Z  is equivalent  to a cutoff of  26.81, 26.81, 25.39 a.u.

 SYSTEM =  Pt111                                   
 POSCAR =  Pt111                                   

 Startparameter for this run:
   NWRITE =      2    write-flag & timer
   PREC   = accura    normal or accurate (medium, high low for compatibility)
   ISTART =      0    job   : 0-new  1-cont  2-samecut
   ICHARG =      2    charge: 1-file 2-atom 10-const
   ISPIN  =      2    spin polarized calculation?
   LNONCOLLINEAR =      F non collinear calculations
   LSORBIT =      F    spin-orbit coupling
   INIWAV =      1    electr: 0-lowe 1-rand  2-diag
   LASPH  =      F    aspherical Exc in radial PAW
   METAGGA=      F    non-selfconsistent MetaGGA calc.

 Electronic Relaxation 1
   ENCUT  =  550.0 eV  40.42 Ry    6.36 a.u.  21.34 21.34 42.07*2*pi/ulx,y,z
   ENINI  =  550.0     initial cutoff
   ENAUG  =  400.0 eV  augmentation charge cutoff
   NELM   =    200;   NELMIN=  2; NELMDL= -5     # of ELM steps 
   EDIFF  = 0.1E-04   stopping-criterion for ELM
   LREAL  =      T    real-space projection
   NLSPLINE    = F    spline interpolate recip. space projectors
   LCOMPAT=      F    compatible to vasp.4.4
   GGA_COMPAT  = T    GGA compatible to vasp.4.4-vasp.4.6
   LMAXPAW     = -100 max onsite density
   LMAXMIX     =    2 max onsite mixed and CHGCAR
   VOSKOWN=      0    Vosko Wilk Nusair interpolation
   ROPT   =   -0.00025  -0.00025
 Ionic relaxation
   EDIFFG = -.5E-01   stopping-criterion for IOM
   NSW    =    300    number of steps for IOM
   NBLOCK =      1;   KBLOCK =    300    inner block; outer block 
   IBRION =      2    ionic relax: 0-MD 1-quasi-New 2-CG
   NFREE  =      1    steps in history (QN), initial steepest desc. (CG)
   ISIF   =      2    stress and relaxation
   IWAVPR =     11    prediction:  0-non 1-charg 2-wave 3-comb
   ISYM   =      2    0-nonsym 1-usesym 2-fastsym
   LCORR  =      T    Harris-Foulkes like correction to forces

   POTIM  = 0.5000    time-step for ionic-motion
   TEIN   =    0.0    initial temperature
   TEBEG  =    0.0;   TEEND  =   0.0 temperature during run
   SMASS  =  -3.00    Nose mass-parameter (am)
   estimated Nose-frequenzy (Omega)   =  0.10E-29 period in steps =****** mass=  -0.285E-26a.u.
   SCALEE = 1.0000    scale energy and forces
   NPACO  =    256;   APACO  = 16.0  distance and # of slots for P.C.
   PSTRESS=    0.0 pullay stress

  Mass of Ions in am
   POMASS = 195.08  1.00
  Ionic Valenz
   ZVAL   =  10.00  1.00
  Atomic Wigner-Seitz radii
   RWIGS  =  -1.00 -1.00
  virtual crystal weights 
   VCA    =   1.00  1.00
   NELECT =     801.0000    total number of electrons
   NUPDOWN=      -1.0000    fix difference up-down

 DOS related values:
   EMIN   =  10.00;   EMAX   =-10.00  energy-range for DOS
   EFERMI =   0.00
   ISMEAR =     1;   SIGMA  =   0.10  broadening in eV -4-tet -1-fermi 0-gaus

 Electronic relaxation 2 (details)
   IALGO  =     68    algorithm
   LDIAG  =      T    sub-space diagonalisation (order eigenvalues)
   LSUBROT=      F    optimize rotation matrix (better conditioning)
   TURBO    =      0    0=normal 1=particle mesh
   IRESTART =      0    0=no restart 2=restart with 2 vectors
   NREBOOT  =      0    no. of reboots
   NMIN     =      0    reboot dimension
   EREF     =   0.00    reference energy to select bands
   IMIX   =      4    mixing-type and parameters
     AMIX     =   0.40;   BMIX     =  1.00
     AMIX_MAG =   1.60;   BMIX_MAG =  1.00
     AMIN     =   0.10
     WC   =   100.;   INIMIX=   1;  MIXPRE=   1;  MAXMIX= -45

 Intra band minimization:
   WEIMIN = 0.0010     energy-eigenvalue tresh-hold
   EBREAK =  0.47E-08  absolut break condition
   DEPER  =   0.30     relativ break condition  

   TIME   =   0.40     timestep for ELM

  volume/ion in A,a.u.               =      29.30       197.69
  Fermi-wavevector in a.u.,A,eV,Ry     =   1.139878  2.154057 17.678352  1.299322
  Thomas-Fermi vector in A             =   2.276581
 
 Write flags
   LWAVE        =      F    write WAVECAR
   LDOWNSAMPLE  =      F    k-point downsampling of WAVECAR
   LCHARG       =      F    write CHGCAR
   LVTOT        =      F    write LOCPOT, total local potential
   LVHAR        =      F    write LOCPOT, Hartree potential only
   LELF         =      F    write electronic localiz. function (ELF)
   LORBIT       =      0    0 simple, 1 ext, 2 COOP (PROOUT), +10 PAW based schemes


 Dipole corrections
   LMONO  =      F    monopole corrections only (constant potential shift)
   LDIPOL =      F    correct potential (dipole corrections)
   IDIPOL =      0    1-x, 2-y, 3-z, 4-all directions 
   EPSILON=  1.0000000 bulk dielectric constant

 Exchange correlation treatment:
   GGA     =    --    GGA type
   LEXCH   =     8    internal setting for exchange type
   VOSKOWN=      0    Vosko Wilk Nusair interpolation
   LHFCALC =     F    Hartree Fock is set to
   LHFONE  =     F    Hartree Fock one center treatment
   AEXX    =    0.0000 exact exchange contribution

 Linear response parameters
   LEPSILON=     F    determine dielectric tensor
   LRPA    =     F    only Hartree local field effects (RPA)
   LNABLA  =     F    use nabla operator in PAW spheres
   LVEL    =     F    velocity operator in full k-point grid
   LINTERFAST=   F  fast interpolation
   KINTER  =     0    interpolate to denser k-point grid
   CSHIFT  =0.1000    complex shift for real part using Kramers Kronig
   OMEGAMAX=  -1.0    maximum frequency
   DEG_THRESHOLD= 0.2000000E-02 threshold for treating states as degnerate
   RTIME   =   -0.100 relaxation time in fs
  (WPLASMAI=    0.000 imaginary part of plasma frequency in eV, 0.658/RTIME)
   DFIELD  = 0.0000000 0.0000000 0.0000000 field for delta impulse in time
 
 Orbital magnetization related:
   ORBITALMAG=     F  switch on orbital magnetization
   LCHIMAG   =     F  perturbation theory with respect to B field
   DQ        =  0.001000  dq finite difference perturbation B field
   LLRAUG    =     F  two centre corrections for induced B field



--------------------------------------------------------------------------------------------------------


 conjugate gradient relaxation of ions
   using selective dynamics as specified on POSCAR
   WARNING: If single coordinates had been selected the selection of coordinates
            is made according to the corresponding   d i r e c t   coordinates!
            Don't support selection of single cartesian coordinates -- sorry ...
  !
 charge density and potential will be updated during run
 spin polarized calculation
 RMM-DIIS sequential band-by-band and
  variant of blocked Davidson during initial phase
 perform sub-space diagonalisation
    before iterative eigenvector-optimisation
 modified Broyden-mixing scheme, WC =      100.0
 initial mixing is a Kerker type mixing with AMIX =  0.4000 and BMIX =      1.0000
 Hartree-type preconditioning will be used
 using additional bands          129
 real space projection scheme for non local part
 use partial core corrections
 calculate Harris-corrections to forces 
   (improved forces if not selfconsistent)
 use gradient corrections 
 use of overlap-Matrix (Vanderbilt PP)
 Methfessel and Paxton  Order N= 1 SIGMA  =   0.10


--------------------------------------------------------------------------------------------------------


  energy-cutoff  :      550.00
  volume of cell :     2372.91
      direct lattice vectors                 reciprocal lattice vectors
    11.159999999  0.000000000  0.000000000     0.089605735 -0.051733896  0.000000000
     5.580000000  9.664843374  0.000000000     0.000000000  0.103467792  0.000000000
     0.000000000  0.000000000 22.000000000     0.000000000  0.000000000  0.045454545

  length of vectors
    11.159999999 11.159999885 22.000000000     0.103467791  0.103467792  0.045454545


 
 k-points in units of 2pi/SCALE and weight: mesh auto                               
   0.00000000  0.00000000  0.00000000       0.250
   0.04480287 -0.02586695  0.00000000       0.250
   0.00000000  0.05173390  0.00000000       0.250
   0.04480287  0.02586695  0.00000000       0.250
 
 k-points in reciprocal lattice and weights: mesh auto                               
   0.00000000  0.00000000  0.00000000       0.250
   0.50000000  0.00000000  0.00000000       0.250
   0.00000000  0.50000000  0.00000000       0.250
   0.50000000  0.50000000  0.00000000       0.250
 
 position of ions in fractional coordinates (direct lattice) 
   0.78442860  0.86936417  0.32772747
   0.03444920  0.86934389  0.32774937
   0.03434940  0.61944525  0.32787166
   0.78746358  0.86738893  0.02178175
   0.03690392  0.86812094  0.02193806
   0.03720893  0.61762341  0.02204379
   0.61948508  0.20173812  0.12551080
   0.36949462  0.95174463  0.12553035
   0.03476420  0.36948716  0.32785279
   0.03702877  0.36760129  0.02207390
   0.86945337  0.20190614  0.12544818
   0.95173937  0.53575761  0.22672529
   0.28472294  0.11934152  0.32783693
   0.53444012  0.61939898  0.32779539
   0.28474476  0.36940061  0.32794591
   0.28760234  0.11760726  0.02199112
   0.53679606  0.61768686  0.02189700
   0.28694763  0.36790968  0.02205190
   0.61930627  0.95174085  0.12544435
   0.70157043  0.78557199  0.22659826
   0.86924259  0.70176365  0.12552085
   0.61927542  0.45187626  0.12552888
   0.28446079  0.86945870  0.32783449
   0.28718183  0.86764020  0.02189363
   0.61902838  0.70183898  0.12543380
   0.20196204  0.03581541  0.22670703
   0.86732827  0.95299774  0.43131976
   0.11748820  0.45330032  0.43160761
   0.11678683  0.95308356  0.43141153
   0.86775559  0.45261734  0.43143417
   0.36674413  0.95316819  0.43152577
   0.86729215  0.20316055  0.43140923
   0.11738193  0.20320890  0.43146007
   0.61729739  0.95302702  0.43138177
   0.86689894  0.70294654  0.43146488
   0.36746420  0.20274786  0.43153810
   0.36745577  0.70314308  0.43155991
   0.61737073  0.45275518  0.43146682
   0.11730439  0.70285665  0.43149589
   0.61724243  0.20304326  0.43134600
   0.53456733  0.36943850  0.32776700
   0.53757566  0.36726642  0.02190423
   0.53473102  0.11928169  0.32775886
   0.53728833  0.11770181  0.02186281
   0.86924913  0.45191913  0.12558803
   0.11931973  0.45183186  0.12566723
   0.03461650  0.11942571  0.32778999
   0.03738296  0.11769372  0.02190132
   0.11936148  0.95191781  0.12555182
   0.36718189  0.45312368  0.43162956
   0.45170797  0.53574407  0.22672272
   0.61733128  0.70282656  0.43146148
   0.36945654  0.20192806  0.12563008
   0.11958360  0.20181156  0.12559832
   0.95176567  0.78572206  0.22668712
   0.78440850  0.61928528  0.32774519
   0.28445832  0.61943908  0.32787990
   0.78694236  0.61778603  0.02187955
   0.28706621  0.61761750  0.02196795
   0.36904601  0.70189939  0.12556586
   0.36943780  0.45180821  0.12561018
   0.20202637  0.28569234  0.22681224
   0.78460794  0.36937377  0.32775529
   0.78717484  0.36783173  0.02181551
   0.95189203  0.03573906  0.22663141
   0.45176624  0.78567801  0.22666953
   0.70172050  0.53577861  0.22664472
   0.20169358  0.78569819  0.22673061
   0.45191244  0.03558221  0.22668539
   0.11916120  0.70195931  0.12559869
   0.70190268  0.03563718  0.22657964
   0.78459646  0.11942264  0.32767112
   0.53443745  0.86931499  0.32781385
   0.78732785  0.11762776  0.02181509
   0.53737712  0.86774890  0.02176591
   0.20185002  0.53583121  0.22678605
   0.95205217  0.28573101  0.22672325
   0.86930589  0.95187157  0.12550997
   0.70194442  0.28563206  0.22657730
   0.45209968  0.28567475  0.22674081
   0.43850000  0.56520000  0.47300000
 
 position of ions in cartesian coordinates  (Angst):
  13.60527523  8.40226855  7.21000443
   5.23539191  8.40207249  7.21048623
   3.83984381  5.98684129  7.21317656
  13.62812377  8.38317819  0.47919859
   5.25596256  8.39025288  0.48263742
   3.86159027  5.96923349  0.48496328
   8.03915219  1.94976731  2.76123762
   9.43429495  9.19846273  2.76166777
   2.44970685  3.57103553  7.21276133
   2.46445632  3.55280894  0.48562570
  10.82973591  1.95139125  2.75985989
  13.61093877  5.17801337  4.98795630
   3.84343365  1.15341707  7.21241238
   9.42059802  5.98639408  7.21149859
   5.23900693  3.57019907  7.21481006
   3.86589065  1.13665573  0.48380465
   9.43733669  5.96984680  0.48173390
   5.25527159  3.55578944  0.48514189
  12.22217194  9.19842625  2.75977575
  12.21301763  7.59243021  4.98516180
  13.61658841  6.78243576  2.76145871
   9.43258321  4.36731326  2.76163536
   8.02616199  8.40318212  7.21235872
   8.04638157  8.38560661  0.48165984
  10.82461822  6.78316383  2.75954362
   2.45374640  0.34615036  4.98755467
  14.99711083  9.21057386  9.48903483
   3.84058406  4.38107656  9.49536751
   6.62154728  9.21140329  9.49105375
  12.20975716  4.37447567  9.49155179
   9.41154299  9.21222129  9.49356704
  10.81261621  1.96351487  9.49100303
   2.44388799  1.96398222  9.49212161
  12.20692958  9.21085685  9.49039903
  13.59703383  6.79386822  9.49222741
   5.23223349  1.95952629  9.49383822
   8.02434479  6.79576770  9.49431795
   9.41623126  4.37580786  9.49227005
   5.23105710  6.79299941  9.49290957
   8.02140692  1.96238132  9.48961193
   8.02723822  3.57056529  7.21087390
   8.04869094  3.54957243  0.48189296
   6.63318999  1.15283882  7.21069492
   6.65291383  1.13756958  0.48098189
  12.22252901  4.36772760  2.76293665
   3.85282993  4.36688419  2.76467895
   1.05271560  1.15423076  7.21137972
   1.07392473  1.13749137  0.48182908
   6.64377553  9.20013651  2.76213995
   6.62618010  4.37936944  9.49585041
   8.03051281  5.17788253  4.98789975
  10.81118925  6.79270861  9.49215254
   5.24989356  1.95160312  2.76386167
   2.46066145  1.95047712  2.76316298
  15.00603397  7.59388067  4.98711654
  12.20961075  5.98529527  7.21039424
   6.63102491  5.98678165  7.21335782
  12.22952279  5.97080522  0.48135011
   6.64996454  5.96917639  0.48329501
   8.03515208  6.78374767  2.76244901
   6.64401571  4.36665559  2.76342397
   3.84877759  2.76117175  4.98986925
  10.81733032  3.56993968  7.21061635
  10.83737225  3.55503609  0.47994118
  10.82253901  0.34541241  4.98589096
   9.42579450  7.59345491  4.98672967
  10.82084548  5.17821635  4.98618379
   6.63509624  7.59364993  4.98807335
   5.24189153  0.34389648  4.98707862
   5.24677188  6.78432674  2.76317115
   8.03208933  0.34442776  4.98475213
   9.42247477  1.15420108  7.20876462
  10.81509953  8.40179319  7.21190469
   9.44294172  1.13685390  0.47993201
  10.83916758  8.38665722  0.47885009
   5.24258434  5.17872475  4.98929307
  12.21928121  2.76154541  4.98791160
  15.01289704  9.19968960  2.76121924
   9.42752665  2.76058915  4.98470065
   6.63949759  2.76100176  4.98829778
   8.04747600  5.46256948 10.40600000
 


--------------------------------------------------------------------------------------------------------


 k-point  1 :   0.0000 0.0000 0.0000  plane waves:   69505
 k-point  2 :   0.5000 0.0000 0.0000  plane waves:   69454
 k-point  3 :   0.0000 0.5000 0.0000  plane waves:   69454
 k-point  4 :   0.5000 0.5000 0.0000  plane waves:   69454

 maximum and minimum number of plane-waves per node :     17422    17318

 maximum number of plane-waves:     69505
 maximum index in each direction: 
   IXMAX=   21   IYMAX=   21   IZMAX=   42
   IXMIN=  -21   IYMIN=  -21   IZMIN=  -42


 real space projection operators:
  total allocation   :      87111.38 KBytes
  max/ min on nodes  :      22265.26      21285.48


 parallel 3D FFT for wavefunctions:
    minimum data exchange during FFTs selected (reduces bandwidth)
 parallel 3D FFT for charge:
    minimum data exchange during FFTs selected (reduces bandwidth)


 total amount of memory used by VASP MPI-rank0   261993. kBytes
=======================================================================

   base      :      30000. kBytes
   nonlr-proj:      38379. kBytes
   fftplans  :      20284. kBytes
   grid      :      52194. kBytes
   one-center:        653. kBytes
   wavefun   :     120483. kBytes
 
     INWAV:  cpu time    0.0000: real time    0.0000
 Broyden mixing: mesh for mixing (old mesh)
   NGX = 43   NGY = 43   NGZ = 85
  (NGX  =180   NGY  =180   NGZ  =336)
  gives a total of 157165 points

 initial charge density was supplied:
 charge density of overlapping atoms calculated
 number of electron     801.0000000 magnetization      81.0000000
 keeping initial charge density in first step


--------------------------------------------------------------------------------------------------------


 Maximum index for non-local projection operator         2129
 Maximum index for augmentation-charges         1793 (set IRDMAX)


--------------------------------------------------------------------------------------------------------


 First call to EWALD:  gamma=   0.133
 Maximum number of real-space cells 4x 4x 2
 Maximum number of reciprocal cells 2x 2x 4

    FEWALD:  cpu time    0.0036: real time    0.0036


--------------------------------------- Iteration      1(   1)  ---------------------------------------


    POTLOK:  cpu time    0.4706: real time    0.4736
    SETDIJ:  cpu time    0.0392: real time    0.0400
     EDDAV:  cpu time   67.9641: real time   68.1439
       DOS:  cpu time    0.0022: real time    0.0022
    --------------------------------------------
      LOOP:  cpu time   68.4762: real time   68.6597

 eigenvalue-minimisations  :  8480
 total energy-change (2. order) : 0.5511032E+04  (-0.3894283E+05)
 number of electron     801.0000000 magnetization      81.0000000
 augmentation part      801.0000000 magnetization      81.0000000

 Free energy of the ion-electron system (eV)
  ---------------------------------------------------
  alpha Z        PSCENC =      2567.85090795
  Ewald energy   TEWEN  =    178353.56607454
  -Hartree energ DENC   =   -242513.67303874
  -exchange      EXHF   =         0.00000000
  -V(xc)+E(xc)   XCENC  =       291.47707326
  PAW double counting   =     55685.49641431   -53423.17961727
  entropy T*S    EENTRO =         0.00418505
  eigenvalues    EBANDS =      6207.75832270
  atomic energy  EATOM  =     58341.73154849
  Solvation  Ediel_sol  =         0.00000000
  ---------------------------------------------------
  free energy    TOTEN  =      5511.03187030 eV

  energy without entropy =     5511.02768525  energy(sigma->0) =     5511.03047528


--------------------------------------------------------------------------------------------------------




--------------------------------------- Iteration      1(   2)  ---------------------------------------


     EDDAV:  cpu time   74.2554: real time   74.4324
       DOS:  cpu time    0.0020: real time    0.0040
    --------------------------------------------
      LOOP:  cpu time   74.2574: real time   74.4364

 eigenvalue-minimisations  :  9510
 total energy-change (2. order) :-0.5700236E+04  (-0.5225705E+04)
 number of electron     801.0000000 magnetization      81.0000000
 augmentation part      801.0000000 magnetization      81.0000000

 Free energy of the ion-electron system (eV)
  ---------------------------------------------------
  alpha Z        PSCENC =      2567.85090795
  Ewald energy   TEWEN  =    178353.56607454
  -Hartree energ DENC   =   -242513.67303874
  -exchange      EXHF   =         0.00000000
  -V(xc)+E(xc)   XCENC  =       291.47707326
  PAW double counting   =     55685.49641431   -53423.17961727
  entropy T*S    EENTRO =        -0.01242440
  eigenvalues    EBANDS =       507.53904533
  atomic energy  EATOM  =     58341.73154849
  Solvation  Ediel_sol  =         0.00000000
  ---------------------------------------------------
  free energy    TOTEN  =      -189.20401653 eV

  energy without entropy =     -189.19159213  energy(sigma->0) =     -189.19987506


--------------------------------------------------------------------------------------------------------




--------------------------------------- Iteration      1(   3)  ---------------------------------------


     EDDAV:  cpu time   74.8551: real time   75.0336
       DOS:  cpu time    0.0021: real time    0.0021
    --------------------------------------------
      LOOP:  cpu time   74.8572: real time   75.0358

 eigenvalue-minimisations  :  9620
 total energy-change (2. order) :-0.2977482E+03  (-0.2741722E+03)
 number of electron     801.0000000 magnetization      81.0000000
 augmentation part      801.0000000 magnetization      81.0000000

 Free energy of the ion-electron system (eV)
  ---------------------------------------------------
  alpha Z        PSCENC =      2567.85090795
  Ewald energy   TEWEN  =    178353.56607454
  -Hartree energ DENC   =   -242513.67303874
  -exchange      EXHF   =         0.00000000
  -V(xc)+E(xc)   XCENC  =       291.47707326
  PAW double counting   =     55685.49641431   -53423.17961727
  entropy T*S    EENTRO =         0.04544488
  eigenvalues    EBANDS =       209.73301279
  atomic energy  EATOM  =     58341.73154849
  Solvation  Ediel_sol  =         0.00000000
  ---------------------------------------------------
  free energy    TOTEN  =      -486.95217979 eV

  energy without entropy =     -486.99762466  energy(sigma->0) =     -486.96732808


--------------------------------------------------------------------------------------------------------




--------------------------------------- Iteration      1(   4)  ---------------------------------------


     EDDAV:  cpu time   77.2795: real time   77.4627
       DOS:  cpu time    0.0019: real time    0.0019
    --------------------------------------------
      LOOP:  cpu time   77.2814: real time   77.4646

 eigenvalue-minimisations  : 10040
 total energy-change (2. order) :-0.7878508E+01  (-0.7792699E+01)
 number of electron     801.0000000 magnetization      81.0000000
 augmentation part      801.0000000 magnetization      81.0000000

 Free energy of the ion-electron system (eV)
  ---------------------------------------------------
  alpha Z        PSCENC =      2567.85090795
  Ewald energy   TEWEN  =    178353.56607454
  -Hartree energ DENC   =   -242513.67303874
  -exchange      EXHF   =         0.00000000
  -V(xc)+E(xc)   XCENC  =       291.47707326
  PAW double counting   =     55685.49641431   -53423.17961727
  entropy T*S    EENTRO =         0.04311042
  eigenvalues    EBANDS =       201.85683905
  atomic energy  EATOM  =     58341.73154849
  Solvation  Ediel_sol  =         0.00000000
  ---------------------------------------------------
  free energy    TOTEN  =      -494.83068799 eV

  energy without entropy =     -494.87379841  energy(sigma->0) =     -494.84505813


--------------------------------------------------------------------------------------------------------




--------------------------------------- Iteration      1(   5)  ---------------------------------------


     EDDAV:  cpu time   75.4335: real time   75.6158
       DOS:  cpu time    0.0021: real time    0.0021
    CHARGE:  cpu time    4.9810: real time    4.9928
    MIXING:  cpu time    0.0098: real time    0.0106
    --------------------------------------------
      LOOP:  cpu time   80.4264: real time   80.6213

 eigenvalue-minimisations  :  9690
 total energy-change (2. order) :-0.2580861E+00  (-0.2573740E+00)
 number of electron     801.0000018 magnetization      75.9113985
 augmentation part      233.0024692 magnetization      54.4785355

 Broyden mixing:
  rms(total) = 0.10466E+02    rms(broyden)= 0.10466E+02
  rms(prec ) = 0.10593E+02
  weight for this iteration     100.00

 Free energy of the ion-electron system (eV)
  ---------------------------------------------------
  alpha Z        PSCENC =      2567.85090795
  Ewald energy   TEWEN  =    178353.56607454
  -Hartree energ DENC   =   -242513.67303874
  -exchange      EXHF   =         0.00000000
  -V(xc)+E(xc)   XCENC  =       291.47707326
  PAW double counting   =     55685.49641431   -53423.17961727
  entropy T*S    EENTRO =         0.04260889
  eigenvalues    EBANDS =       201.59925445
  atomic energy  EATOM  =     58341.73154849
  Solvation  Ediel_sol  =         0.00000000
  ---------------------------------------------------
  free energy    TOTEN  =      -495.08877412 eV

  energy without entropy =     -495.13138301  energy(sigma->0) =     -495.10297708


--------------------------------------------------------------------------------------------------------




--------------------------------------- Iteration      1(   6)  ---------------------------------------


    POTLOK:  cpu time    0.4531: real time    0.4542
    SETDIJ:  cpu time    0.0387: real time    0.0388
    EDDIAG:  cpu time   12.0034: real time   12.0324
  RMM-DIIS:  cpu time   42.4830: real time   42.5836
    ORTHCH:  cpu time    1.1367: real time    1.1394
       DOS:  cpu time    0.0020: real time    0.0020
    CHARGE:  cpu time    4.9521: real time    4.9638
    MIXING:  cpu time    0.0109: real time    0.0112
    --------------------------------------------
      LOOP:  cpu time   61.0801: real time   61.2255

 eigenvalue-minimisations  :  8526
 total energy-change (2. order) : 0.1587150E+02  (-0.7968097E+01)
 number of electron     801.0000022 magnetization      71.8986616
 augmentation part      245.8210982 magnetization      52.1073529

 Broyden mixing:
  rms(total) = 0.80994E+01    rms(broyden)= 0.80994E+01
  rms(prec ) = 0.88825E+01
  weight for this iteration     100.00

 eigenvalues of (default mixing * dielectric matrix)
  average eigenvalue GAMMA=   0.8324
  0.8324

 Free energy of the ion-electron system (eV)
  ---------------------------------------------------
  alpha Z        PSCENC =      2567.85090795
  Ewald energy   TEWEN  =    178353.56607454
  -Hartree energ DENC   =   -241536.31828417
  -exchange      EXHF   =         0.00000000
  -V(xc)+E(xc)   XCENC  =       273.81578964
  PAW double counting   =     62196.86185403   -60056.31092170
  entropy T*S    EENTRO =        -0.04220776
  eigenvalues    EBANDS =      -620.37203627
  atomic energy  EATOM  =     58341.73154849
  Solvation  Ediel_sol  =         0.00000000
  ---------------------------------------------------
  free energy    TOTEN  =      -479.21727523 eV

  energy without entropy =     -479.17506747  energy(sigma->0) =     -479.20320598


--------------------------------------------------------------------------------------------------------




--------------------------------------- Iteration      1(   7)  ---------------------------------------


    POTLOK:  cpu time    0.4527: real time    0.4538
    SETDIJ:  cpu time    0.0378: real time    0.0379
    EDDIAG:  cpu time   12.0140: real time   12.0426
  RMM-DIIS:  cpu time   41.8342: real time   41.9334
    ORTHCH:  cpu time    1.1328: real time    1.1356
       DOS:  cpu time    0.0020: real time    0.0021
    CHARGE:  cpu time    5.0390: real time    5.0510
    MIXING:  cpu time    0.0109: real time    0.0109
    --------------------------------------------
      LOOP:  cpu time   60.5236: real time   60.6673

 eigenvalue-minimisations  :  8506
 total energy-change (2. order) :-0.1125126E+03  (-0.1339837E+02)
 number of electron     801.0000018 magnetization      64.2695845
 augmentation part      239.5023341 magnetization      53.1703057

 Broyden mixing:
  rms(total) = 0.98342E+01    rms(broyden)= 0.98342E+01
  rms(prec ) = 0.12567E+02
  weight for this iteration     100.00

 eigenvalues of (default mixing * dielectric matrix)
  average eigenvalue GAMMA=   0.8020
  1.3121  0.2920

 Free energy of the ion-electron system (eV)
  ---------------------------------------------------
  alpha Z        PSCENC =      2567.85090795
  Ewald energy   TEWEN  =    178353.56607454
  -Hartree energ DENC   =   -242516.68250837
  -exchange      EXHF   =         0.00000000
  -V(xc)+E(xc)   XCENC  =       267.30140832
  PAW double counting   =     65700.13484137   -63598.04730815
  entropy T*S    EENTRO =        -0.04257645
  eigenvalues    EBANDS =       292.45778596
  atomic energy  EATOM  =     58341.73154849
  Solvation  Ediel_sol  =         0.00000000
  ---------------------------------------------------
  free energy    TOTEN  =      -591.72982634 eV

  energy without entropy =     -591.68724990  energy(sigma->0) =     -591.71563419


--------------------------------------------------------------------------------------------------------




--------------------------------------- Iteration      1(   8)  ---------------------------------------


    POTLOK:  cpu time    0.4523: real time    0.4534
    SETDIJ:  cpu time    0.0381: real time    0.0382
    EDDIAG:  cpu time   11.9840: real time   12.0125
  RMM-DIIS:  cpu time   42.0952: real time   42.1948
    ORTHCH:  cpu time    1.1385: real time    1.1412
       DOS:  cpu time    0.0022: real time    0.0022
    CHARGE:  cpu time    5.0280: real time    5.0401
    MIXING:  cpu time    0.0124: real time    0.0124
    --------------------------------------------
      LOOP:  cpu time   60.7506: real time   60.8946

 eigenvalue-minimisations  :  8525
 total energy-change (2. order) : 0.1212114E+03  (-0.6490258E+01)
 number of electron     801.0000020 magnetization      60.6001615
 augmentation part      249.6913683 magnetization      46.5487943

 Broyden mixing:
  rms(total) = 0.46208E+01    rms(broyden)= 0.46208E+01
  rms(prec ) = 0.52966E+01
  weight for this iteration     100.00

 eigenvalues of (default mixing * dielectric matrix)
  average eigenvalue GAMMA=   0.9291
  1.9758  0.5537  0.2577

 Free energy of the ion-electron system (eV)
  ---------------------------------------------------
  alpha Z        PSCENC =      2567.85090795
  Ewald energy   TEWEN  =    178353.56607454
  -Hartree energ DENC   =   -241666.64631229
  -exchange      EXHF   =         0.00000000
  -V(xc)+E(xc)   XCENC  =       266.91737767
  PAW double counting   =     70603.83021992   -68568.51953014
  entropy T*S    EENTRO =        -0.10243514
  eigenvalues    EBANDS =      -369.14623861
  atomic energy  EATOM  =     58341.73154849
  Solvation  Ediel_sol  =         0.00000000
  ---------------------------------------------------
  free energy    TOTEN  =      -470.51838761 eV

  energy without entropy =     -470.41595248  energy(sigma->0) =     -470.48424257


--------------------------------------------------------------------------------------------------------




--------------------------------------- Iteration      1(   9)  ---------------------------------------


    POTLOK:  cpu time    0.5338: real time    0.5351
    SETDIJ:  cpu time    0.0459: real time    0.0460
    EDDIAG:  cpu time   11.9377: real time   11.9661
  RMM-DIIS:  cpu time   42.0690: real time   42.1686
    ORTHCH:  cpu time    1.1364: real time    1.1391
       DOS:  cpu time    0.0020: real time    0.0020
    CHARGE:  cpu time    5.0071: real time    5.0190
    MIXING:  cpu time    0.0137: real time    0.0138
    --------------------------------------------
      LOOP:  cpu time   60.7456: real time   60.8896

 eigenvalue-minimisations  :  8517
 total energy-change (2. order) :-0.9960413E+01  (-0.5640192E+01)
 number of electron     801.0000023 magnetization      58.4167019
 augmentation part      249.1492319 magnetization      43.0684932

 Broyden mixing:
  rms(total) = 0.53227E+01    rms(broyden)= 0.53227E+01
  rms(prec ) = 0.79099E+01
  weight for this iteration     100.00

 eigenvalues of (default mixing * dielectric matrix)
  average eigenvalue GAMMA=   0.8146
  2.1775  0.5876  0.2393  0.2539

 Free energy of the ion-electron system (eV)
  ---------------------------------------------------
  alpha Z        PSCENC =      2567.85090795
  Ewald energy   TEWEN  =    178353.56607454
  -Hartree energ DENC   =   -241615.16312135
  -exchange      EXHF   =         0.00000000
  -V(xc)+E(xc)   XCENC  =       269.09478106
  PAW double counting   =     71802.43359495   -69774.82784332
  entropy T*S    EENTRO =         0.02601161
  eigenvalues    EBANDS =      -425.19075438
  atomic energy  EATOM  =     58341.73154849
  Solvation  Ediel_sol  =         0.00000000
  ---------------------------------------------------
  free energy    TOTEN  =      -480.47880045 eV

  energy without entropy =     -480.50481206  energy(sigma->0) =     -480.48747099


--------------------------------------------------------------------------------------------------------




--------------------------------------- Iteration      1(  10)  ---------------------------------------


    POTLOK:  cpu time    0.5316: real time    0.5328
    SETDIJ:  cpu time    0.0447: real time    0.0448
    EDDIAG:  cpu time   11.9462: real time   11.9747
  RMM-DIIS:  cpu time   42.1562: real time   42.2573
    ORTHCH:  cpu time    1.1430: real time    1.1457
       DOS:  cpu time    0.0021: real time    0.0021
    CHARGE:  cpu time    5.0352: real time    5.0472
    MIXING:  cpu time    0.0132: real time    0.0133
    --------------------------------------------
      LOOP:  cpu time   60.8722: real time   61.0178

 eigenvalue-minimisations  :  8532
 total energy-change (2. order) :-0.1521171E+02  (-0.1479783E+01)
 number of electron     801.0000018 magnetization      55.2639601
 augmentation part      248.9124779 magnetization      41.1534007

 Broyden mixing:
  rms(total) = 0.58539E+01    rms(broyden)= 0.58539E+01
  rms(prec ) = 0.93011E+01
  weight for this iteration     100.00

 eigenvalues of (default mixing * dielectric matrix)
  average eigenvalue GAMMA=   0.7321
  2.3215  0.6355  0.3192  0.2707  0.1138

 Free energy of the ion-electron system (eV)
  ---------------------------------------------------
  alpha Z        PSCENC =      2567.85090795
  Ewald energy   TEWEN  =    178353.56607454
  -Hartree energ DENC   =   -241663.95323852
  -exchange      EXHF   =         0.00000000
  -V(xc)+E(xc)   XCENC  =       269.15505106
  PAW double counting   =     72346.01140073   -70321.79834937
  entropy T*S    EENTRO =        -0.03984992
  eigenvalues    EBANDS =      -388.21405721
  atomic energy  EATOM  =     58341.73154849
  Solvation  Ediel_sol  =         0.00000000
  ---------------------------------------------------
  free energy    TOTEN  =      -495.69051225 eV

  energy without entropy =     -495.65066233  energy(sigma->0) =     -495.67722894


--------------------------------------------------------------------------------------------------------




--------------------------------------- Iteration      1(  11)  ---------------------------------------


    POTLOK:  cpu time    0.4512: real time    0.4523
    SETDIJ:  cpu time    0.0439: real time    0.0440
    EDDIAG:  cpu time   11.8664: real time   11.8945
  RMM-DIIS:  cpu time   42.1812: real time   42.2810
    ORTHCH:  cpu time    1.1368: real time    1.1395
       DOS:  cpu time    0.0021: real time    0.0021
    CHARGE:  cpu time    4.9452: real time    4.9570
    MIXING:  cpu time    0.0139: real time    0.0139
    --------------------------------------------
      LOOP:  cpu time   60.6406: real time   60.7842

 eigenvalue-minimisations  :  8526
 total energy-change (2. order) : 0.4206857E+02  (-0.8795381E+00)
 number of electron     801.0000021 magnetization      54.6489403
 augmentation part      248.7365618 magnetization      35.8528225

 Broyden mixing:
  rms(total) = 0.24674E+01    rms(broyden)= 0.24674E+01
  rms(prec ) = 0.30532E+01
  weight for this iteration     100.00

 eigenvalues of (default mixing * dielectric matrix)
  average eigenvalue GAMMA=   0.6837
  2.1755  0.6302  0.6302  0.2829  0.2829  0.1004

 Free energy of the ion-electron system (eV)
  ---------------------------------------------------
  alpha Z        PSCENC =      2567.85090795
  Ewald energy   TEWEN  =    178353.56607454
  -Hartree energ DENC   =   -241761.63274554
  -exchange      EXHF   =         0.00000000
  -V(xc)+E(xc)   XCENC  =       269.37621228
  PAW double counting   =     72982.84966413   -70963.14942790
  entropy T*S    EENTRO =        -0.06449027
  eigenvalues    EBANDS =      -244.14968836
  atomic energy  EATOM  =     58341.73154849
  Solvation  Ediel_sol  =         0.00000000
  ---------------------------------------------------
  free energy    TOTEN  =      -453.62194467 eV

  energy without entropy =     -453.55745441  energy(sigma->0) =     -453.60044792


--------------------------------------------------------------------------------------------------------




--------------------------------------- Iteration      1(  12)  ---------------------------------------


    POTLOK:  cpu time    0.4562: real time    0.4573
    SETDIJ:  cpu time    0.0465: real time    0.0466
    EDDIAG:  cpu time   11.8452: real time   11.8735
  RMM-DIIS:  cpu time   42.1532: real time   42.2674
    ORTHCH:  cpu time    1.1310: real time    1.1340
       DOS:  cpu time    0.0021: real time    0.0021
    CHARGE:  cpu time    4.9576: real time    4.9717
    MIXING:  cpu time    0.0141: real time    0.0141
    --------------------------------------------
      LOOP:  cpu time   60.6059: real time   60.7668

 eigenvalue-minimisations  :  8539
 total energy-change (2. order) :-0.2228700E+01  (-0.6011883E+00)
 number of electron     801.0000020 magnetization      52.9506275
 augmentation part      248.5153514 magnetization      34.1083394

 Broyden mixing:
  rms(total) = 0.14424E+01    rms(broyden)= 0.14424E+01
  rms(prec ) = 0.16201E+01
  weight for this iteration     100.00

 eigenvalues of (default mixing * dielectric matrix)
  average eigenvalue GAMMA=   0.6992
  2.0336  0.8766  0.8766  0.4358  0.2854  0.2854  0.1011

 Free energy of the ion-electron system (eV)
  ---------------------------------------------------
  alpha Z        PSCENC =      2567.85090795
  Ewald energy   TEWEN  =    178353.56607454
  -Hartree energ DENC   =   -241731.87602413
  -exchange      EXHF   =         0.00000000
  -V(xc)+E(xc)   XCENC  =       267.91898179
  PAW double counting   =     72504.61508308   -70477.63929489
  entropy T*S    EENTRO =         0.08008136
  eigenvalues    EBANDS =      -282.09800295
  atomic energy  EATOM  =     58341.73154849
  Solvation  Ediel_sol  =         0.00000000
  ---------------------------------------------------
  free energy    TOTEN  =      -455.85064474 eV

  energy without entropy =     -455.93072611  energy(sigma->0) =     -455.87733853


--------------------------------------------------------------------------------------------------------




--------------------------------------- Iteration      1(  13)  ---------------------------------------


    POTLOK:  cpu time    0.4900: real time    0.4915
    SETDIJ:  cpu time    0.0402: real time    0.0403
    EDDIAG:  cpu time   11.8770: real time   11.9109
  RMM-DIIS:  cpu time   42.2844: real time   42.4038
    ORTHCH:  cpu time    1.1322: real time    1.1353
       DOS:  cpu time    0.0020: real time    0.0021
    CHARGE:  cpu time    4.9694: real time    4.9848
    MIXING:  cpu time    0.0134: real time    0.0135
    --------------------------------------------
      LOOP:  cpu time   60.8087: real time   60.9821

 eigenvalue-minimisations  :  8536
 total energy-change (2. order) :-0.4402893E+01  (-0.3299095E+00)
 number of electron     801.0000020 magnetization      50.2556112
 augmentation part      248.3375785 magnetization      32.1103622

 Broyden mixing:
  rms(total) = 0.15496E+01    rms(broyden)= 0.15496E+01
  rms(prec ) = 0.18515E+01
  weight for this iteration     100.00

 eigenvalues of (default mixing * dielectric matrix)
  average eigenvalue GAMMA=   0.7009
  2.0542  0.9182  0.9182  0.7748  0.2889  0.2889  0.2626  0.1012

 Free energy of the ion-electron system (eV)
  ---------------------------------------------------
  alpha Z        PSCENC =      2567.85090795
  Ewald energy   TEWEN  =    178353.56607454
  -Hartree energ DENC   =   -241733.99949746
  -exchange      EXHF   =         0.00000000
  -V(xc)+E(xc)   XCENC  =       266.51858241
  PAW double counting   =     72291.98141823   -70262.10431698
  entropy T*S    EENTRO =         0.12328419
  eigenvalues    EBANDS =      -285.92153881
  atomic energy  EATOM  =     58341.73154849
  Solvation  Ediel_sol  =         0.00000000
  ---------------------------------------------------
  free energy    TOTEN  =      -460.25353742 eV

  energy without entropy =     -460.37682161  energy(sigma->0) =     -460.29463215


--------------------------------------------------------------------------------------------------------




--------------------------------------- Iteration      1(  14)  ---------------------------------------


    POTLOK:  cpu time    0.4520: real time    0.4531
    SETDIJ:  cpu time    0.0382: real time    0.0382
    EDDIAG:  cpu time   11.8501: real time   11.8785
  RMM-DIIS:  cpu time   42.4969: real time   42.5977
    ORTHCH:  cpu time    1.1427: real time    1.1454
       DOS:  cpu time    0.0024: real time    0.0024
    CHARGE:  cpu time    4.9871: real time    4.9989
    MIXING:  cpu time    0.0137: real time    0.0137
    --------------------------------------------
      LOOP:  cpu time   60.9830: real time   61.1280

 eigenvalue-minimisations  :  8530
 total energy-change (2. order) :-0.7509598E+00  (-0.1346520E+00)
 number of electron     801.0000020 magnetization      47.9977540
 augmentation part      248.2014059 magnetization      29.5518142

 Broyden mixing:
  rms(total) = 0.70577E+00    rms(broyden)= 0.70577E+00
  rms(prec ) = 0.77956E+00
  weight for this iteration     100.00

 eigenvalues of (default mixing * dielectric matrix)
  average eigenvalue GAMMA=   0.7114
  1.9830  0.9823  0.9823  0.9855  0.5422  0.1012  0.2874  0.2874  0.2511

 Free energy of the ion-electron system (eV)
  ---------------------------------------------------
  alpha Z        PSCENC =      2567.85090795
  Ewald energy   TEWEN  =    178353.56607454
  -Hartree energ DENC   =   -241773.41011027
  -exchange      EXHF   =         0.00000000
  -V(xc)+E(xc)   XCENC  =       264.87327147
  PAW double counting   =     72520.07939422   -70492.93353185
  entropy T*S    EENTRO =         0.13748296
  eigenvalues    EBANDS =      -242.89953479
  atomic energy  EATOM  =     58341.73154849
  Solvation  Ediel_sol  =         0.00000000
  ---------------------------------------------------
  free energy    TOTEN  =      -461.00449726 eV

  energy without entropy =     -461.14198022  energy(sigma->0) =     -461.05032491


--------------------------------------------------------------------------------------------------------




--------------------------------------- Iteration      1(  15)  ---------------------------------------


    POTLOK:  cpu time    0.4505: real time    0.4515
    SETDIJ:  cpu time    0.0379: real time    0.0380
    EDDIAG:  cpu time   11.8668: real time   11.8950
  RMM-DIIS:  cpu time   42.3817: real time   42.4822
    ORTHCH:  cpu time    1.2947: real time    1.2977
       DOS:  cpu time    0.0027: real time    0.0027
    CHARGE:  cpu time    4.9734: real time    4.9852
    MIXING:  cpu time    0.0143: real time    0.0143
    --------------------------------------------
      LOOP:  cpu time   61.0219: real time   61.1666

 eigenvalue-minimisations  :  8525
 total energy-change (2. order) :-0.2969239E+01  (-0.1452280E+00)
 number of electron     801.0000020 magnetization      45.6656942
 augmentation part      248.0613700 magnetization      27.7805729

 Broyden mixing:
  rms(total) = 0.82167E+00    rms(broyden)= 0.82167E+00
  rms(prec ) = 0.93648E+00
  weight for this iteration     100.00

 eigenvalues of (default mixing * dielectric matrix)
  average eigenvalue GAMMA=   0.7194
  1.8505  1.8505  0.8259  0.7429  0.7429  0.1012  0.2845  0.2845  0.2770  0.2344

 Free energy of the ion-electron system (eV)
  ---------------------------------------------------
  alpha Z        PSCENC =      2567.85090795
  Ewald energy   TEWEN  =    178353.56607454
  -Hartree energ DENC   =   -241791.81600990
  -exchange      EXHF   =         0.00000000
  -V(xc)+E(xc)   XCENC  =       263.37043474
  PAW double counting   =     72493.55984605   -70465.72936674
  entropy T*S    EENTRO =         0.15154291
  eigenvalues    EBANDS =      -226.65871388
  atomic energy  EATOM  =     58341.73154849
  Solvation  Ediel_sol  =         0.00000000
  ---------------------------------------------------
  free energy    TOTEN  =      -463.97373583 eV

  energy without entropy =     -464.12527875  energy(sigma->0) =     -464.02425014


--------------------------------------------------------------------------------------------------------




--------------------------------------- Iteration      1(  16)  ---------------------------------------


    POTLOK:  cpu time    0.4495: real time    0.4506
    SETDIJ:  cpu time    0.0384: real time    0.0385
    EDDIAG:  cpu time   11.8491: real time   11.8771
  RMM-DIIS:  cpu time   42.5208: real time   42.6214
    ORTHCH:  cpu time    1.2891: real time    1.2921
       DOS:  cpu time    0.0029: real time    0.0029
    CHARGE:  cpu time    4.9271: real time    4.9408
    MIXING:  cpu time    0.0145: real time    0.0146
    --------------------------------------------
      LOOP:  cpu time   61.0914: real time   61.2381

 eigenvalue-minimisations  :  8518
 total energy-change (2. order) :-0.2139773E+01  (-0.1304083E+00)
 number of electron     801.0000020 magnetization      43.0797562
 augmentation part      247.9561527 magnetization      25.5057682

 Broyden mixing:
  rms(total) = 0.51981E+00    rms(broyden)= 0.51981E+00
  rms(prec ) = 0.56930E+00
  weight for this iteration     100.00

 eigenvalues of (default mixing * dielectric matrix)
  average eigenvalue GAMMA=   0.7580
  2.1073  2.1073  0.7691  0.7691  0.7180  0.7180  0.1012  0.2841  0.2841  0.2622
  0.2174

 Free energy of the ion-electron system (eV)
  ---------------------------------------------------
  alpha Z        PSCENC =      2567.85090795
  Ewald energy   TEWEN  =    178353.56607454
  -Hartree energ DENC   =   -241793.63219593
  -exchange      EXHF   =         0.00000000
  -V(xc)+E(xc)   XCENC  =       262.36764205
  PAW double counting   =     72350.26638588   -70320.06346466
  entropy T*S    EENTRO =         0.21132653
  eigenvalues    EBANDS =      -228.41173415
  atomic energy  EATOM  =     58341.73154849
  Solvation  Ediel_sol  =         0.00000000
  ---------------------------------------------------
  free energy    TOTEN  =      -466.11350930 eV

  energy without entropy =     -466.32483583  energy(sigma->0) =     -466.18395148


--------------------------------------------------------------------------------------------------------




--------------------------------------- Iteration      1(  17)  ---------------------------------------


    POTLOK:  cpu time    0.4505: real time    0.4515
    SETDIJ:  cpu time    0.0384: real time    0.0385
    EDDIAG:  cpu time   11.8519: real time   11.8802
  RMM-DIIS:  cpu time   42.4568: real time   42.5572
    ORTHCH:  cpu time    1.2737: real time    1.2767
       DOS:  cpu time    0.0020: real time    0.0021
    CHARGE:  cpu time    4.9258: real time    4.9375
    MIXING:  cpu time    0.0148: real time    0.0149
    --------------------------------------------
      LOOP:  cpu time   61.0139: real time   61.1585

 eigenvalue-minimisations  :  8512
 total energy-change (2. order) :-0.1840494E+01  (-0.8825684E-01)
 number of electron     801.0000020 magnetization      40.4499256
 augmentation part      247.8981029 magnetization      23.4083662

 Broyden mixing:
  rms(total) = 0.58831E+00    rms(broyden)= 0.58831E+00
  rms(prec ) = 0.68810E+00
  weight for this iteration     100.00

 eigenvalues of (default mixing * dielectric matrix)
  average eigenvalue GAMMA=   0.7914
  2.3734  2.3734  0.8947  0.8947  0.6773  0.6773  0.4450  0.1012  0.2871  0.2871
  0.2693  0.2162

 Free energy of the ion-electron system (eV)
  ---------------------------------------------------
  alpha Z        PSCENC =      2567.85090795
  Ewald energy   TEWEN  =    178353.56607454
  -Hartree energ DENC   =   -241792.50650308
  -exchange      EXHF   =         0.00000000
  -V(xc)+E(xc)   XCENC  =       261.25925039
  PAW double counting   =     72344.85359914   -70314.06464270
  entropy T*S    EENTRO =         0.21102333
  eigenvalues    EBANDS =      -230.85526164
  atomic energy  EATOM  =     58341.73154849
  Solvation  Ediel_sol  =         0.00000000
  ---------------------------------------------------
  free energy    TOTEN  =      -467.95400357 eV

  energy without entropy =     -468.16502690  energy(sigma->0) =     -468.02434468


--------------------------------------------------------------------------------------------------------




--------------------------------------- Iteration      1(  18)  ---------------------------------------


    POTLOK:  cpu time    0.4502: real time    0.4513
    SETDIJ:  cpu time    0.0386: real time    0.0387
    EDDIAG:  cpu time   11.8488: real time   11.8771
  RMM-DIIS:  cpu time   42.3964: real time   42.4968
    ORTHCH:  cpu time    1.1616: real time    1.1643
       DOS:  cpu time    0.0021: real time    0.0021
    CHARGE:  cpu time    5.0001: real time    5.0119
    MIXING:  cpu time    0.0154: real time    0.0154
    --------------------------------------------
      LOOP:  cpu time   60.9131: real time   61.0576

 eigenvalue-minimisations  :  8514
 total energy-change (2. order) :-0.1155514E+01  (-0.5568420E-01)
 number of electron     801.0000020 magnetization      38.3953235
 augmentation part      247.8301722 magnetization      22.0618528

 Broyden mixing:
  rms(total) = 0.60408E+00    rms(broyden)= 0.60408E+00
  rms(prec ) = 0.71315E+00
  weight for this iteration     100.00

 eigenvalues of (default mixing * dielectric matrix)
  average eigenvalue GAMMA=   0.8377
  2.9231  2.3530  1.1216  1.1216  0.6949  0.6101  0.6101  0.1012  0.2845  0.2845
  0.3136  0.2559  0.2162

 Free energy of the ion-electron system (eV)
  ---------------------------------------------------
  alpha Z        PSCENC =      2567.85090795
  Ewald energy   TEWEN  =    178353.56607454
  -Hartree energ DENC   =   -241791.28660976
  -exchange      EXHF   =         0.00000000
  -V(xc)+E(xc)   XCENC  =       260.33886517
  PAW double counting   =     72379.29509957   -70348.61789882
  entropy T*S    EENTRO =         0.18770525
  eigenvalues    EBANDS =      -232.17520969
  atomic energy  EATOM  =     58341.73154849
  Solvation  Ediel_sol  =         0.00000000
  ---------------------------------------------------
  free energy    TOTEN  =      -469.10951729 eV

  energy without entropy =     -469.29722254  energy(sigma->0) =     -469.17208571


--------------------------------------------------------------------------------------------------------




--------------------------------------- Iteration      1(  19)  ---------------------------------------


    POTLOK:  cpu time    0.4477: real time    0.4487
    SETDIJ:  cpu time    0.0386: real time    0.0387
    EDDIAG:  cpu time   11.8397: real time   11.8678
  RMM-DIIS:  cpu time   42.4318: real time   42.5322
    ORTHCH:  cpu time    1.1330: real time    1.1357
       DOS:  cpu time    0.0019: real time    0.0019
    CHARGE:  cpu time    5.0105: real time    5.0224
    MIXING:  cpu time    0.0160: real time    0.0160
    --------------------------------------------
      LOOP:  cpu time   60.9192: real time   61.0635

 eigenvalue-minimisations  :  8526
 total energy-change (2. order) :-0.3283819E+00  (-0.1943129E-01)
 number of electron     801.0000020 magnetization      36.5259133
 augmentation part      247.8314079 magnetization      20.5210899

 Broyden mixing:
  rms(total) = 0.50566E+00    rms(broyden)= 0.50566E+00
  rms(prec ) = 0.58962E+00
  weight for this iteration     100.00

 eigenvalues of (default mixing * dielectric matrix)
  average eigenvalue GAMMA=   0.8728
  3.7437  2.1472  1.2610  1.2610  0.6921  0.6341  0.6341  0.4206  0.1012  0.2862
  0.2862  0.2682  0.2682  0.2156

 Free energy of the ion-electron system (eV)
  ---------------------------------------------------
  alpha Z        PSCENC =      2567.85090795
  Ewald energy   TEWEN  =    178353.56607454
  -Hartree energ DENC   =   -241787.92758091
  -exchange      EXHF   =         0.00000000
  -V(xc)+E(xc)   XCENC  =       259.77742888
  PAW double counting   =     72419.31135507   -70389.19642831
  entropy T*S    EENTRO =         0.17803915
  eigenvalues    EBANDS =      -234.72924406
  atomic energy  EATOM  =     58341.73154849
  Solvation  Ediel_sol  =         0.00000000
  ---------------------------------------------------
  free energy    TOTEN  =      -469.43789919 eV

  energy without entropy =     -469.61593834  energy(sigma->0) =     -469.49724557


--------------------------------------------------------------------------------------------------------




--------------------------------------- Iteration      1(  20)  ---------------------------------------


    POTLOK:  cpu time    0.4495: real time    0.4506
    SETDIJ:  cpu time    0.0385: real time    0.0386
    EDDIAG:  cpu time   11.8459: real time   11.8742
  RMM-DIIS:  cpu time   42.3849: real time   42.4852
    ORTHCH:  cpu time    1.1361: real time    1.1389
       DOS:  cpu time    0.0020: real time    0.0020
[...]
   0.556E-01 -.454E+00 0.261E+04   -.380E-01 0.418E+00 -.261E+04   -.324E-01 0.599E-01 -.133E+01   0.494E-03 0.106E-02 0.429E-03
   -.677E+00 0.158E+01 0.261E+04   0.700E+00 -.155E+01 -.261E+04   -.423E-02 -.482E-01 -.133E+01   -.204E-01 0.852E-02 -.465E-03
   -.153E+00 0.262E+00 0.261E+04   0.195E+00 -.266E+00 -.261E+04   -.425E-01 0.262E-01 -.133E+01   -.184E-01 -.115E-01 0.649E-02
   -.881E-01 -.103E+01 0.133E+04   0.837E-01 0.103E+01 -.133E+04   -.544E-02 0.134E-01 -.674E+00   0.593E-02 0.499E-03 0.189E-02
   0.450E+00 0.906E+00 0.133E+04   -.449E+00 -.922E+00 -.133E+04   -.160E-01 -.320E-01 -.667E+00   0.205E-02 0.191E-01 0.230E-01
   0.146E+00 0.520E+00 -.132E+04   -.148E+00 -.493E+00 0.132E+04   0.110E-01 -.113E-01 0.680E+00   -.519E-02 -.125E-01 -.163E-01
   -.834E+00 -.333E+00 0.261E+04   0.819E+00 0.290E+00 -.261E+04   0.257E-01 0.557E-01 -.132E+01   -.369E-02 0.196E-02 0.160E-01
   0.888E+00 -.869E+00 0.133E+04   -.886E+00 0.855E+00 -.133E+04   -.392E-01 0.211E-01 -.658E+00   0.127E-01 0.113E-01 0.110E-01
   0.417E-01 0.119E+00 0.534E+01   -.399E-01 -.126E+00 -.531E+01   0.311E-02 0.225E-01 -.269E-01   -.643E-02 -.115E-01 -.103E-01
   0.647E+00 -.212E+00 -.132E+04   -.628E+00 0.213E+00 0.132E+04   -.676E-02 -.955E-02 0.652E+00   -.116E-01 -.241E-02 -.274E-01
   0.331E+01 0.156E+01 -.134E+04   -.336E+01 -.157E+01 0.133E+04   0.496E-01 0.268E-01 0.626E+00   -.384E-02 -.691E-02 -.152E-01
   -.254E+00 -.127E+00 -.132E+04   0.403E+00 0.221E+00 0.132E+04   -.173E+00 -.100E+00 0.534E+00   0.127E-01 0.399E-02 0.121E-01
   0.872E+00 -.767E+00 0.261E+04   -.853E+00 0.733E+00 -.261E+04   -.426E-01 0.224E-01 -.131E+01   -.103E-02 0.247E-01 0.604E-02
   0.159E+00 0.952E-01 0.261E+04   -.169E+00 -.766E-01 -.261E+04   0.534E-02 0.633E-02 -.134E+01   0.150E-01 -.173E-01 -.136E-03
   -.195E+00 0.148E+00 0.261E+04   0.222E+00 -.119E+00 -.261E+04   -.920E-02 -.296E-01 -.132E+01   -.147E-01 -.698E-02 0.540E-02
   -.438E+00 -.144E+00 0.133E+04   0.426E+00 0.142E+00 -.133E+04   0.187E-01 0.461E-02 -.680E+00   0.346E-02 0.281E-02 -.109E-02
   0.281E+00 0.237E+00 0.746E+01   -.282E+00 -.215E+00 -.747E+01   0.331E-01 0.121E-01 0.247E-03   -.144E-01 -.269E-01 0.821E-02
   0.861E-01 -.114E-01 0.133E+04   -.844E-01 0.219E-01 -.133E+04   0.641E-02 0.160E-01 -.684E+00   -.281E-02 -.215E-01 0.330E-02
   0.101E+01 -.299E+00 0.133E+04   -.103E+01 0.313E+00 -.133E+04   -.228E-01 0.574E-02 -.623E+00   0.169E-01 -.124E-01 0.137E-01
   -.189E+00 0.601E+00 -.132E+04   0.188E+00 -.796E+00 0.132E+04   0.193E-02 0.189E+00 0.544E+00   -.607E-03 0.594E-02 -.361E-01
   0.364E-01 -.844E-01 0.261E+04   -.306E-01 0.390E-01 -.261E+04   -.106E-01 0.454E-01 -.131E+01   0.470E-04 0.126E-01 -.170E-02
   0.595E+00 0.756E+00 0.133E+04   -.624E+00 -.741E+00 -.133E+04   0.115E-01 -.518E-02 -.671E+00   0.167E-01 -.156E-01 0.158E-01
   0.140E+00 0.166E+01 0.402E+01   -.141E+00 -.166E+01 -.406E+01   0.926E-02 -.148E-03 0.959E-02   -.493E-02 0.725E-02 0.276E-01
   0.161E+01 0.839E+00 -.261E+04   -.156E+01 -.830E+00 0.260E+04   -.348E-01 -.191E-01 0.125E+01   -.255E-01 0.269E-02 0.136E-01
   0.429E+01 0.144E+01 -.260E+04   -.427E+01 -.143E+01 0.260E+04   -.347E-01 -.689E-02 0.127E+01   0.540E-02 -.798E-02 -.247E-02
   0.501E+00 -.380E+01 -.260E+04   -.499E+00 0.378E+01 0.260E+04   0.173E-01 0.408E-04 0.128E+01   -.411E-02 0.696E-02 -.222E-01
   -.428E+01 0.123E+01 -.260E+04   0.427E+01 -.123E+01 0.260E+04   0.470E-01 -.352E-02 0.127E+01   -.112E-01 0.244E-03 -.579E-02
   -.651E+00 -.367E+01 -.260E+04   0.638E+00 0.365E+01 0.260E+04   -.696E-02 0.160E-02 0.128E+01   0.116E-01 0.931E-02 -.226E-01
   -.339E+01 0.292E+01 -.260E+04   0.338E+01 -.291E+01 0.260E+04   0.500E-01 -.350E-01 0.128E+01   -.287E-01 0.167E-01 -.750E-02
   -.584E-01 -.129E+00 -.261E+04   0.553E-01 0.119E+00 0.260E+04   0.653E-02 0.263E-02 0.131E+01   0.168E-02 0.111E-01 -.282E-02
   -.152E+01 0.852E+00 -.261E+04   0.150E+01 -.837E+00 0.260E+04   0.381E-01 -.262E-01 0.124E+01   0.108E-01 0.406E-02 0.169E-01
   -.189E+00 -.188E+01 -.261E+04   0.187E+00 0.184E+01 0.260E+04   0.115E-01 0.663E-01 0.125E+01   -.198E-02 0.748E-04 0.117E-01
   0.313E+01 0.278E+01 -.260E+04   -.313E+01 -.277E+01 0.260E+04   -.340E-01 -.314E-01 0.128E+01   0.223E-01 0.172E-01 -.122E-02
   -.503E+00 -.795E+01 -.260E+04   0.488E+00 0.873E+01 0.260E+04   0.286E-01 -.833E+00 0.723E+00   -.570E-02 -.422E-03 0.244E-01
   -.712E+01 0.424E+01 -.260E+04   0.779E+01 -.461E+01 0.260E+04   -.660E+00 0.370E+00 0.747E+00   -.204E-01 -.547E-03 0.124E-01
   -.233E+01 0.134E+01 -.260E+04   0.205E+01 -.115E+01 0.260E+04   0.308E+00 -.177E+00 0.139E+01   -.246E-01 -.563E-02 -.314E-01
   0.753E-01 -.293E+01 -.260E+04   -.750E-01 0.259E+01 0.260E+04   0.900E-02 0.327E+00 0.139E+01   -.551E-02 -.389E-02 -.157E-01
   -.179E-01 -.350E+01 -.133E+04   0.185E-01 0.355E+01 0.133E+04   0.224E-02 -.551E-01 0.632E+00   -.915E-03 0.583E-02 0.371E-02
   0.119E+01 -.151E+01 0.261E+04   -.116E+01 0.146E+01 -.261E+04   -.565E-01 0.926E-01 -.134E+01   0.379E-02 -.160E-01 0.136E-03
   0.124E+00 -.186E+01 -.131E+04   -.953E-01 0.188E+01 0.131E+04   -.786E-02 -.129E-01 0.690E+00   -.107E-01 0.153E-01 0.600E-02
   0.307E+00 -.726E+00 0.261E+04   -.306E+00 0.724E+00 -.261E+04   -.168E-01 0.299E-03 -.132E+01   0.632E-02 0.228E-02 -.355E-03
   0.103E+01 -.219E+00 0.133E+04   -.104E+01 0.225E+00 -.133E+04   -.309E-01 0.711E-02 -.672E+00   0.151E-01 -.114E-01 0.980E-02
   -.964E+00 -.373E+00 0.133E+04   0.979E+00 0.373E+00 -.133E+04   0.373E-01 0.251E-01 -.672E+00   -.241E-01 -.961E-02 0.790E-02
   -.675E+00 -.427E+00 -.132E+04   0.651E+00 0.426E+00 0.132E+04   0.217E-01 -.102E-01 0.656E+00   0.690E-02 0.744E-03 -.331E-01
   -.503E+00 -.343E+00 0.261E+04   0.537E+00 0.313E+00 -.261E+04   -.378E-01 0.127E-01 -.131E+01   -.219E-02 0.270E-01 0.850E-02
   -.281E+00 0.938E+00 0.133E+04   0.293E+00 -.951E+00 -.133E+04   -.436E-02 -.383E-01 -.665E+00   -.493E-02 0.233E-01 0.246E-01
   0.639E+01 0.452E+01 -.260E+04   -.714E+01 -.491E+01 0.260E+04   0.769E+00 0.393E+00 0.844E+00   0.140E-01 -.102E-01 0.915E-03
   -.344E+00 0.300E+00 -.441E+01   0.339E+00 -.306E+00 0.447E+01   0.237E-02 0.156E-02 -.921E-01   0.222E-02 0.427E-02 0.189E-01
   0.290E+01 0.165E+01 -.260E+04   -.260E+01 -.146E+01 0.260E+04   -.314E+00 -.200E+00 0.141E+01   0.200E-01 -.165E-02 -.312E-01
   -.921E+00 -.565E+00 0.133E+04   0.928E+00 0.558E+00 -.133E+04   0.318E-01 0.117E-01 -.681E+00   -.132E-01 0.709E-02 0.765E-02
   0.235E+00 0.123E-01 0.133E+04   -.222E+00 -.433E-01 -.133E+04   -.203E-01 0.693E-02 -.667E+00   -.536E-02 0.241E-01 0.127E-01
   -.252E+00 0.198E+00 0.650E+01   0.244E+00 -.178E+00 -.651E+01   -.242E-01 0.115E-01 -.866E-02   0.144E-01 -.236E-01 0.913E-02
   0.135E+01 0.126E+01 -.131E+04   -.137E+01 -.126E+01 0.131E+04   0.278E-01 0.138E-02 0.689E+00   -.108E-01 -.744E-02 -.102E-01
   -.343E+01 0.155E+01 -.133E+04   0.348E+01 -.157E+01 0.133E+04   -.441E-01 0.305E-01 0.632E+00   0.304E-03 -.744E-02 -.137E-01
   -.332E-01 0.654E+00 0.261E+04   0.139E-01 -.638E+00 -.261E+04   0.101E-01 -.355E-02 -.132E+01   0.150E-01 -.144E-01 0.906E-02
   0.165E+00 0.745E-01 0.261E+04   -.161E+00 -.642E-01 -.261E+04   0.107E-02 0.168E-01 -.134E+01   -.117E-01 -.147E-01 -.260E-02
   -.199E+00 0.143E+01 0.133E+04   0.186E+00 -.143E+01 -.133E+04   0.274E-01 -.253E-01 -.617E+00   0.265E-02 -.642E-02 0.291E-01
   -.123E+01 -.559E+00 0.133E+04   0.124E+01 0.568E+00 -.133E+04   0.176E-01 0.112E-01 -.631E+00   -.791E-02 -.101E-01 0.124E-01
   -.146E+01 -.133E+01 0.316E+01   0.146E+01 0.133E+01 -.316E+01   0.122E-01 0.115E-01 -.214E-02   -.180E-01 -.302E-02 0.184E-02
   -.896E-02 -.317E+00 -.132E+04   -.153E+00 0.414E+00 0.132E+04   0.194E+00 -.103E+00 0.517E+00   -.136E-01 0.329E-02 0.526E-02
   0.323E+00 -.276E+00 0.261E+04   -.334E+00 0.294E+00 -.261E+04   -.196E-01 -.527E-02 -.131E+01   0.146E-01 -.642E-02 0.106E-01
   -.227E-01 0.115E-01 0.676E+01   0.192E-01 -.120E-01 -.676E+01   -.129E-01 -.171E-01 -.792E-02   0.146E-01 0.132E-01 0.122E-01
   0.268E+00 0.158E+01 0.190E+01   -.303E+00 -.156E+01 -.194E+01   0.510E-01 -.139E-01 0.119E-01   -.941E-02 -.213E-02 0.242E-01
   0.129E+01 -.777E-02 0.207E+01   -.130E+01 -.402E-01 -.211E+01   0.246E-01 0.397E-01 0.242E-01   0.535E-02 -.967E-03 0.733E-02
   -.379E+00 0.127E+01 0.145E+01   0.408E+00 -.125E+01 -.150E+01   -.406E-01 -.175E-01 0.441E-02   0.757E-02 0.135E-02 0.273E-01
   -.269E+00 0.136E+00 0.630E+01   0.267E+00 -.136E+00 -.629E+01   0.230E-01 -.124E-01 -.117E-01   -.172E-01 0.820E-02 0.154E-01
   -.105E+01 0.684E+00 0.133E+04   0.107E+01 -.674E+00 -.133E+04   0.119E-01 -.854E-02 -.695E+00   -.164E-01 -.863E-02 0.155E-01
   0.690E-01 -.626E+00 0.660E+01   -.753E-01 0.609E+00 -.660E+01   0.554E-02 -.215E-01 -.870E-02   0.259E-02 0.283E-01 -.331E-03
   -.130E+00 -.178E+01 -.131E+04   0.987E-01 0.179E+01 0.131E+04   0.184E-01 -.142E-01 0.693E+00   0.840E-02 0.144E-01 0.804E-03
   0.210E+01 0.729E+00 -.131E+04   -.210E+01 -.753E+00 0.131E+04   -.834E-02 0.140E-01 0.715E+00   -.160E-01 -.441E-02 -.140E-01
   0.179E+00 -.469E+00 0.261E+04   -.167E+00 0.459E+00 -.261E+04   -.165E-01 0.869E-02 -.132E+01   -.308E-02 0.413E-02 0.226E-02
   0.115E+01 0.278E+00 0.261E+04   -.114E+01 -.280E+00 -.261E+04   -.481E-01 0.280E-02 -.132E+01   0.198E-01 0.503E-02 -.554E-03
   -.119E+01 -.637E-01 0.167E+01   0.119E+01 0.125E-01 -.170E+01   -.136E-01 0.361E-01 0.229E-01   -.321E-02 0.571E-02 0.133E-01
   0.163E+01 -.131E+01 0.428E+01   -.163E+01 0.130E+01 -.429E+01   0.187E-02 0.158E-01 0.635E-02   0.605E-02 -.567E-03 -.265E-02
   0.244E+00 -.720E-01 0.133E+04   -.244E+00 0.698E-01 -.133E+04   -.480E-02 -.114E-01 -.688E+00   -.340E-03 0.755E-02 -.342E-03
   0.108E+01 -.126E+01 0.235E+01   -.104E+01 0.129E+01 -.238E+01   -.354E-01 -.270E-01 0.120E-01   0.314E-02 0.266E-03 0.710E-02
   -.137E+01 -.107E+01 0.137E+01   0.133E+01 0.110E+01 -.140E+01   0.379E-01 -.280E-01 0.109E-01   0.365E-02 -.146E-02 0.115E-01
   0.365E+00 0.246E+00 -.305E+03   -.425E+00 -.293E+00 0.307E+03   0.410E-01 0.293E-01 -.136E+01   0.393E-03 -.256E-02 -.754E-03
 -----------------------------------------------------------------------------------------------
   -.582E-01 -.130E+00 0.344E+01   0.772E-13 -.277E-12 -.341E-11   0.136E+00 0.106E+00 -.369E+01   -.814E-01 0.202E-01 0.213E+00
 
 
 POSITION                                       TOTAL-FORCE (eV/Angst)
 -----------------------------------------------------------------------------------
     13.60910      8.40049      7.20574         0.001909      0.010086     -0.004025
      5.23838      8.40437      7.20439         0.022319     -0.013979      0.001207
      3.84539      5.98594      7.20614         0.016625     -0.001367     -0.010556
     13.62812      8.38318      0.47920        -0.014453      0.024735      0.009027
      5.25596      8.39025      0.48264        -0.003248     -0.011512     -0.014799
      3.86159      5.96923      0.48496        -0.019120      0.010695     -0.022696
      8.03915      1.94977      2.76124        -0.003989      0.014968      0.023740
      9.43429      9.19846      2.76167        -0.012529     -0.028801      0.013932
      2.44939      3.57139      7.20746         0.003226      0.002227      0.005136
      2.46446      3.55281      0.48563         0.005876      0.014268     -0.009579
     10.82974      1.95139      2.75986        -0.024365      0.018896      0.024721
     13.61258      5.17591      4.98544        -0.001888      0.002471      0.002431
      3.84590      1.15695      7.20805         0.001085     -0.010889     -0.013645
      9.42068      5.98670      7.23554        -0.006771     -0.002053     -0.025356
      5.24831      3.57588      7.21711        -0.007676     -0.001021     -0.002827
      3.86589      1.13666      0.48380        -0.023672      0.013161     -0.002315
      9.43734      5.96985      0.48173         0.009745      0.007862     -0.009245
      5.25527      3.55579      0.48514         0.002577     -0.006685     -0.021665
     12.22217      9.19843      2.75978         0.010483      0.005397      0.016991
     12.21497      7.59108      4.98248         0.015870      0.006193     -0.001915
     13.61659      6.78244      2.76146         0.005675      0.004380      0.015231
      9.43258      4.36731      2.76164        -0.021954      0.007058      0.049365
      8.02972      8.39911      7.21481        -0.000007     -0.003646      0.012023
      8.04638      8.38561      0.48166        -0.005668      0.013042     -0.013430
     10.82462      6.78316      2.75954        -0.001522     -0.005283      0.024130
      2.45344      0.34515      4.98520         0.003396      0.015803     -0.009309
     15.00185      9.21459      9.48736        -0.015088     -0.007184      0.018747
      3.83622      4.38284      9.48935        -0.008629     -0.005781      0.002241
      6.62397      9.22603      9.48644         0.014927     -0.008116      0.012389
     12.21745      4.38195      9.49000         0.019264     -0.007514     -0.000683
      9.42936      9.22546      9.48666        -0.008211     -0.008428      0.009253
     10.81535      1.96117      9.48837         0.017667     -0.003277      0.010739
      2.44669      1.96660      9.48358         0.005241      0.003929      0.014284
     12.21140      9.21559      9.48712         0.019772     -0.006775      0.015264
     13.60579      6.79277      9.48749         0.007350      0.024016      0.018947
      5.23744      1.96218      9.48853        -0.007181     -0.001588      0.012111
      8.02465      6.85903      9.53964         0.007989     -0.032359     -0.020500
      9.46289      4.36223      9.53911         0.003874     -0.013474     -0.013058
      5.21242      6.81411      9.48674        -0.005512      0.003888      0.007860
      8.02628      1.94090      9.48965         0.003904     -0.018324     -0.001155
      8.03013      3.57535      7.23457         0.002076      0.004134     -0.017537
      8.04869      3.54957      0.48189        -0.019637      0.027207     -0.004681
      6.63561      1.15407      7.20625         0.011511      0.016195     -0.010688
      6.65291      1.13757      0.48098        -0.009900      0.001344     -0.009279
     12.22253      4.36773      2.76294        -0.027938      0.001826      0.013096
      3.85283      4.36688      2.76468         0.026748      0.014906      0.014595
      1.05319      1.15679      7.20728         0.005839     -0.010576     -0.012734
      1.07392      1.13749      0.48183        -0.005866      0.010527     -0.001161
      6.64378      9.20014      2.76214         0.002234     -0.027941      0.017697
      6.59126      4.36498      9.53796         0.008179     -0.018040     -0.008977
      8.03309      5.17741      4.99947        -0.000147     -0.000334     -0.016053
     10.84105      6.81496      9.48683         0.008331     -0.004603      0.008122
      5.24989      1.95160      2.76386         0.025516      0.012083      0.004917
      2.46066      1.95048      2.76316        -0.013228      0.000202     -0.071664
     15.00916      7.59185      4.98392        -0.016342      0.007415     -0.004009
     12.21332      5.98581      7.20608        -0.010826     -0.003551     -0.011400
      6.63886      5.98682      7.23439         0.011310      0.000763     -0.020685
     12.22952      5.97081      0.48135         0.005612     -0.002062     -0.010166
      6.64996      5.96918      0.48330        -0.007364      0.012646     -0.003706
      8.03515      6.78375      2.76245         0.017336     -0.026066      0.051136
      6.64402      4.36666      2.76342         0.023350      0.008897      0.042009
      3.84882      2.76052      4.98657        -0.003284      0.004183     -0.005329
     10.81075      3.57532      7.21701         0.016401     -0.001163     -0.008311
     10.83737      3.55504      0.47994        -0.015340      0.006091     -0.006690
     10.82351      0.34626      4.98293        -0.000627     -0.003191      0.014062
      9.42443      7.58974      4.98910         0.005248      0.009113     -0.011327
     10.81715      5.17714      4.98868         0.019751     -0.010330     -0.004308
      6.64042      7.59039      4.99003        -0.002843      0.006914     -0.013861
      5.24186      0.34553      4.98363         0.003542     -0.003492      0.014554
      5.24677      6.78433      2.76317         0.014591     -0.006463      0.007175
      8.03261      0.34493      4.98402         0.002614     -0.007507     -0.009189
      9.42332      1.15399      7.20596        -0.004823      0.014511     -0.008590
     10.82123      8.40380      7.20362        -0.019571     -0.014302      0.007281
      9.44294      1.13685      0.47993        -0.007746      0.002946     -0.006793
     10.83917      8.38666      0.47885        -0.020695      0.006497     -0.006185
      5.24890      5.17740      4.98948        -0.016333     -0.010300      0.000580
     12.21792      2.76043      4.98484         0.006206      0.005809     -0.005344
     15.01290      9.19969      2.76122        -0.004457     -0.005607      0.010062
      9.42676      2.76399      4.98885         0.004740     -0.001366     -0.012776
      6.64083      2.76442      4.99012        -0.002845     -0.002541     -0.010467
      8.04258      5.20912     10.38729        -0.018618     -0.019797     -0.016383
 -----------------------------------------------------------------------------------
    total drift:                               -0.003824     -0.003178     -0.037793


--------------------------------------------------------------------------------------------------------



  FREE ENERGIE OF THE ION-ELECTRON SYSTEM (eV)
  ---------------------------------------------------
  free  energy   TOTEN  =      -517.96388721 eV

  energy  without entropy=     -518.11345704  energy(sigma->0) =     -518.01374382
 
 d Force = 0.2145471E-02[ 0.837E-03, 0.345E-02]  d Energy = 0.2174780E-02-0.293E-04
 d Force = 0.5371673E+01[ 0.536E+01, 0.538E+01]  d Ewald  = 0.5371654E+01 0.189E-04


--------------------------------------------------------------------------------------------------------


    POTLOK:  cpu time    0.5322: real time    0.5389


--------------------------------------------------------------------------------------------------------


 Conjugate gradient step on ions:
 trial-energy change:   -0.002175  1 .order   -0.002145   -0.003454   -0.000837
  (g-gl).g = 0.285E-02      g.g   = 0.253E-02  gl.gl    = 0.431E-02
 g(Force)  = 0.253E-02   g(Stress)= 0.000E+00 ortho     =-0.338E-03
 gamma     =   0.66285
 trial     =   1.49901
 opt step  =   1.97878  (harmonic =   1.97878) maximal distance =0.00561240
 next E    =  -517.963992   (d E  =  -0.00228)


--------------------------------------------------------------------------------------------------------


  
 reached required accuracy - stopping structural energy minimisation
     LOOP+:  cpu time  612.6341: real time  614.2379
    4ORBIT:  cpu time    0.0000: real time    0.0000

 total amount of memory used by VASP MPI-rank0   261993. kBytes
=======================================================================

   base      :      30000. kBytes
   nonlr-proj:      38379. kBytes
   fftplans  :      20284. kBytes
   grid      :      52194. kBytes
   one-center:        653. kBytes
   wavefun   :     120483. kBytes
 
  
  
 General timing and accounting informations for this job:
 ========================================================
  
                  Total CPU time used (sec):    11438.980
                            User time (sec):    11429.324
                          System time (sec):        9.657
                         Elapsed time (sec):    11469.881
  
                   Maximum memory used (kb):      867540.
                   Average memory used (kb):           0.
  
                          Minor page faults:      3036544
                          Major page faults:            0
                 Voluntary context switches:         3070
