 vasp.5.4.4.18Apr17-6-g9f103f2a35 (build Nov 30 2020 22:55:02) complex          
  
 executed on             LinuxIFC date 2023.09.11  18:28:40
 running on   40 total cores
 distrk:  each k-point on   40 cores,    1 groups
 distr:  one band on NCORES_PER_BAND=   1 cores,   40 groups


--------------------------------------------------------------------------------------------------------


 INCAR:
 POTCAR:    PAW_PBE Fe 06Sep2000                  
 POTCAR:    PAW_PBE Pt 04Feb2005                  
 POTCAR:    PAW_PBE H 15Jun2001                   

 ----------------------------------------------------------------------------- 
|                                                                             |
|           W    W    AA    RRRRR   N    N  II  N    N   GGGG   !!!           |
|           W    W   A  A   R    R  NN   N  II  NN   N  G    G  !!!           |
|           W    W  A    A  R    R  N N  N  II  N N  N  G       !!!           |
|           W WW W  AAAAAA  RRRRR   N  N N  II  N  N N  G  GGG   !            |
|           WW  WW  A    A  R   R   N   NN  II  N   NN  G    G                |
|           W    W  A    A  R    R  N    N  II  N    N   GGGG   !!!           |
|                                                                             |
|      For optimal performance we recommend to set                            |
|        NCORE= 4 - approx SQRT( number of cores)                             |
|      NCORE specifies how many cores store one orbital (NPAR=cpu/NCORE).     |
|      This setting can  greatly improve the performance of VASP for DFT.     |
|      The default,   NCORE=1            might be grossly inefficient         |
|      on modern multi-core architectures or massively parallel machines.     |
|      Do your own testing !!!!                                               |
|      Unfortunately you need to use the default for GW and RPA calculations. |
|      (for HF NCORE is supported but not extensively tested yet)             |
|                                                                             |
 ----------------------------------------------------------------------------- 

 POTCAR:    PAW_PBE Fe 06Sep2000                  
   VRHFIN =Fe:  d7 s1                                                           
   LEXCH  = PE                                                                  
   EATOM  =   594.3153 eV,   43.6809 Ry                                         
                                                                                
   TITEL  = PAW_PBE Fe 06Sep2000                                                
   LULTRA =        F    use ultrasoft PP ?                                      
   IUNSCR =        1    unscreen: 0-lin 1-nonlin 2-no                           
   RPACOR =    2.000    partial core radius                                     
   POMASS =   55.847; ZVAL   =    8.000    mass and valenz                      
   RCORE  =    2.300    outmost cutoff radius                                   
   RWIGS  =    2.460; RWIGS  =    1.302    wigner-seitz radius (au A)           
   ENMAX  =  267.882; ENMIN  =  200.911 eV                                      
   RCLOC  =    1.701    cutoff for local pot                                    
   LCOR   =        T    correct aug charges                                     
   LPAW   =        T    paw PP                                                  
   EAUG   =  511.368                                                            
   DEXC   =    0.000                                                            
   RMAX   =    2.356    core radius for proj-oper                               
   RAUG   =    1.300    factor for augmentation sphere                          
   RDEP   =    2.442    radius for radial grids                                 
   RDEPT  =    1.890    core radius for aug-charge                              
                                                                                
   Atomic configuration                                                         
    9 entries                                                                   
     n  l   j            E        occ.                                          
     1  0  0.50     -6993.8440   2.0000                                         
     2  0  0.50      -814.6047   2.0000                                         
     2  1  1.50      -693.3689   6.0000                                         
     3  0  0.50       -89.4732   2.0000                                         
     3  1  1.50       -55.6373   6.0000                                         
     3  2  2.50        -3.8151   7.0000                                         
     4  0  0.50        -4.2551   1.0000                                         
     4  1  1.50        -3.4015   0.0000                                         
     4  3  2.50        -1.3606   0.0000                                         
   Description                                                                  
     l       E           TYP  RCUT    TYP  RCUT                                 
     2     -3.8151135     23  2.300                                             
     2     -5.1756961     23  2.300                                             
     0     -4.2550963     23  2.300                                             
     0      7.2035603     23  2.300                                             
     1     -2.7211652     23  2.300                                             
     1     18.4316424     23  2.300                                             
  local pseudopotential read in
  partial core-charges read in
  partial kinetic energy density read in
  atomic valenz-charges read in
  non local Contribution for L=           2  read in
    real space projection operators read in
  non local Contribution for L=           2  read in
    real space projection operators read in
  non local Contribution for L=           0  read in
    real space projection operators read in
  non local Contribution for L=           0  read in
    real space projection operators read in
  non local Contribution for L=           1  read in
    real space projection operators read in
  non local Contribution for L=           1  read in
    real space projection operators read in
    PAW grid and wavefunctions read in
 
   number of l-projection  operators is LMAX  =           6
   number of lm-projection operators is LMMAX =          18
 
 POTCAR:    PAW_PBE Pt 04Feb2005                  
   VRHFIN =Pt: s1d9                                                             
   LEXCH  = PE                                                                  
   EATOM  =   729.1176 eV,   53.5886 Ry                                         
                                                                                
   TITEL  = PAW_PBE Pt 04Feb2005                                                
   LULTRA =        F    use ultrasoft PP ?                                      
   IUNSCR =        1    unscreen: 0-lin 1-nonlin 2-no                           
   RPACOR =    2.330    partial core radius                                     
   POMASS =  195.080; ZVAL   =   10.000    mass and valenz                      
   RCORE  =    2.600    outmost cutoff radius                                   
   RWIGS  =    2.750; RWIGS  =    1.455    wigner-seitz radius (au A)           
   ENMAX  =  230.283; ENMIN  =  172.712 eV                                      
   ICORE  =        3    local potential                                         
   LCOR   =        T    correct aug charges                                     
   LPAW   =        T    paw PP                                                  
   EAUG   =  358.966                                                            
   DEXC   =    0.000                                                            
   RMAX   =    2.658    core radius for proj-oper                               
   RAUG   =    1.300    factor for augmentation sphere                          
   RDEP   =    2.761    radius for radial grids                                 
   RDEPT  =    2.203    core radius for aug-charge                              
                                                                                
   Atomic configuration                                                         
   16 entries                                                                   
     n  l   j            E        occ.                                          
     1  0  0.50    -78401.1885   2.0000                                         
     2  0  0.50    -13770.7750   2.0000                                         
     2  1  1.50    -11931.0468   6.0000                                         
     3  0  0.50     -3234.7234   2.0000                                         
     3  1  1.50     -2699.2216   6.0000                                         
     3  2  2.50     -2119.5714  10.0000                                         
     4  0  0.50      -695.1528   2.0000                                         
     4  1  1.50      -519.6034   6.0000                                         
     4  2  2.50      -306.6786  10.0000                                         
     4  3  3.50       -70.1041  14.0000                                         
     5  0  0.50      -101.7747   2.0000                                         
     5  1  1.50       -55.9873   6.0000                                         
     5  2  2.50        -6.1423   9.0000                                         
     6  0  0.50        -5.6573   1.0000                                         
     6  1  1.50        -6.8029   0.0000                                         
     5  3  2.50        -1.3606   0.0000                                         
   Description                                                                  
     l       E           TYP  RCUT    TYP  RCUT                                 
     2     -6.1423404     23  2.500                                             
     2     -7.5029230     23  2.500                                             
     0     -5.6573207     23  2.500                                             
     0      0.7416693     23  2.500                                             
     1     -2.7211652     23  2.600                                             
     1     20.4087390     23  2.600                                             
     3     -1.3605826     23  2.500                                             
  local pseudopotential read in
  partial core-charges read in
  partial kinetic energy density read in
  atomic valenz-charges read in
  non local Contribution for L=           2  read in
    real space projection operators read in
  non local Contribution for L=           2  read in
    real space projection operators read in
  non local Contribution for L=           0  read in
    real space projection operators read in
  non local Contribution for L=           0  read in
    real space projection operators read in
  non local Contribution for L=           1  read in
    real space projection operators read in
  non local Contribution for L=           1  read in
    real space projection operators read in
    PAW grid and wavefunctions read in
 
   number of l-projection  operators is LMAX  =           6
   number of lm-projection operators is LMMAX =          18
 
 POTCAR:    PAW_PBE H 15Jun2001                   
   VRHFIN =H: ultrasoft test                                                    
   LEXCH  = PE                                                                  
   EATOM  =    12.4884 eV,    0.9179 Ry                                         
                                                                                
   TITEL  = PAW_PBE H 15Jun2001                                                 
   LULTRA =        F    use ultrasoft PP ?                                      
   IUNSCR =        0    unscreen: 0-lin 1-nonlin 2-no                           
   RPACOR =    0.000    partial core radius                                     
   POMASS =    1.000; ZVAL   =    1.000    mass and valenz                      
   RCORE  =    1.100    outmost cutoff radius                                   
   RWIGS  =    0.700; RWIGS  =    0.370    wigner-seitz radius (au A)           
   ENMAX  =  250.000; ENMIN  =  200.000 eV                                      
   RCLOC  =    0.701    cutoff for local pot                                    
   LCOR   =        T    correct aug charges                                     
   LPAW   =        T    paw PP                                                  
   EAUG   =  400.000                                                            
   RMAX   =    1.123    core radius for proj-oper                               
   RAUG   =    1.200    factor for augmentation sphere                          
   RDEP   =    1.112    radius for radial grids                                 
   RDEPT  =    0.926    core radius for aug-charge                              
                                                                                
   Atomic configuration                                                         
    2 entries                                                                   
     n  l   j            E        occ.                                          
     1  0  0.50        -6.4927   1.0000                                         
     2  1  0.50        -3.4015   0.0000                                         
   Description                                                                  
     l       E           TYP  RCUT    TYP  RCUT                                 
     0     -6.4927494     23  1.100                                             
     0      6.8029130     23  1.100                                             
     1     -4.0817478     23  1.100                                             
  local pseudopotential read in
  atomic valenz-charges read in
  non local Contribution for L=           0  read in
    real space projection operators read in
  non local Contribution for L=           0  read in
    real space projection operators read in
  non local Contribution for L=           1  read in
    real space projection operators read in
    PAW grid and wavefunctions read in
 
   number of l-projection  operators is LMAX  =           3
   number of lm-projection operators is LMMAX =           5
 
 Optimization of the real space projectors (new method)

 maximal supplied QI-value         = 16.25
 optimisation between [QCUT,QGAM] = [ 11.86, 23.89] = [ 39.41,159.82] Ry 
 Optimized for a Real-space Cutoff    1.49 Angstroem

   l    n(q)    QCUT    max X(q) W(low)/X(q) W(high)/X(q)  e(spline) 
   2     10    11.864    80.901    0.13E-03    0.23E-03    0.37E-06
   2     10    11.864    75.754    0.13E-03    0.23E-03    0.38E-06
   0     11    11.864    58.752    0.44E-04    0.11E-04    0.20E-06
   0     11    11.864    30.679    0.36E-04    0.10E-04    0.18E-06
   1     10    11.864    17.977    0.31E-04    0.45E-04    0.10E-06
   1     10    11.864    13.559    0.25E-04    0.37E-04    0.89E-07
 Optimization of the real space projectors (new method)

 maximal supplied QI-value         = 14.36
 optimisation between [QCUT,QGAM] = [ 11.92, 23.98] = [ 39.79,161.09] Ry 
 Optimized for a Real-space Cutoff    1.49 Angstroem

   l    n(q)    QCUT    max X(q) W(low)/X(q) W(high)/X(q)  e(spline) 
   2     10    11.920    66.195    0.79E-04    0.18E-03    0.24E-06
   2     10    11.920    64.643    0.81E-04    0.19E-03    0.24E-06
   0     11    11.920    95.520    0.28E-04    0.54E-04    0.18E-06
   0     11    11.920    63.403    0.27E-04    0.52E-04    0.17E-06
   1     10    11.920    19.961    0.18E-04    0.11E-03    0.23E-06
   1     10    11.920    13.289    0.25E-04    0.87E-04    0.19E-06
 Optimization of the real space projectors (new method)

 maximal supplied QI-value         = 34.20
 optimisation between [QCUT,QGAM] = [ 11.97, 23.94] = [ 40.13,160.53] Ry 
 Optimized for a Real-space Cutoff    1.18 Angstroem

   l    n(q)    QCUT    max X(q) W(low)/X(q) W(high)/X(q)  e(spline) 
   0      8    11.971    19.460    0.15E-03    0.31E-03    0.25E-06
   0      8    11.971    12.209    0.13E-03    0.29E-03    0.25E-06
   1      8    11.971     4.655    0.22E-03    0.24E-03    0.21E-06
  PAW_PBE Fe 06Sep2000                  :
 energy of atom  1       EATOM= -594.3153
 kinetic energy error for atom=    0.0024 (will be added to EATOM!!)
  PAW_PBE Pt 04Feb2005                  :
 energy of atom  2       EATOM= -729.1176
 kinetic energy error for atom=    0.0021 (will be added to EATOM!!)
  PAW_PBE H 15Jun2001                   :
 energy of atom  3       EATOM=  -12.4884
 kinetic energy error for atom=    0.0008 (will be added to EATOM!!)
 
 
 POSCAR: PtM\(2)                                 
  positions in cartesian coordinates
  No initial velocities read in
 exchange correlation table for  LEXCH =        8
   RHO(1)=    0.500       N(1)  =     2000
   RHO(2)=  100.500       N(2)  =     4000
 


--------------------------------------------------------------------------------------------------------


 ion  position               nearest neighbor table
   1  0.795  0.881  0.309-  55 2.41  39 2.44  20 2.56  56 2.59  72 2.62  73 2.62   2 2.64  65 2.68
                            29 2.72   3 2.73  40 2.74  57 2.80
   2  0.047  0.875  0.319-  49 2.46  23 2.52  52 2.53  65 2.59   3 2.59  67 2.61  39 2.61  33 2.62
                             1 2.64  77 2.66  41 2.66  56 2.67
   3  0.056  0.625  0.314-  39 2.45  60 2.47  41 2.53  12 2.57  73 2.57  15 2.59   2 2.59  66 2.65
                            77 2.67   9 2.69   1 2.73  40 2.80
   4  0.803  0.862  0.045-  21 2.49  19 2.50   5 2.52  62 2.56  58 2.61   6 2.66  42 2.67  59 2.69
                            30 2.87
   5  0.040  0.862  0.053-  62 2.43  54 2.47  35 2.51   4 2.52  24 2.55  43 2.60  58 2.63  34 2.64
                             6 2.65
   6  0.051  0.606  0.043-  43 2.49  32 2.50  21 2.51  18 2.51  54 2.52  42 2.52   5 2.65   4 2.66
                            10 2.67
   7  0.618  0.209  0.135-  64 2.41  55 2.44  63 2.45  58 2.46  30 2.48  28 2.48  37 2.59  22 2.60
                            19 2.61  45 2.63  11 2.70  62 2.75
   8  0.377  0.952  0.132-  59 2.39  50 2.46  24 2.48  53 2.48  16 2.48  26 2.56  38 2.58  19 2.63
                            35 2.65  25 2.66  37 2.75  44 2.78
   9  0.045  0.376  0.315-  12 2.47  61 2.49  46 2.54  13 2.57  68 2.57  66 2.60  71 2.64  15 2.65
                            40 2.65  33 2.66  47 2.69   3 2.69
  10  0.051  0.353  0.049-  38 2.44  16 2.47  31 2.50  32 2.53  42 2.58  18 2.60  34 2.62  48 2.66
                             6 2.67
  11  0.880  0.196  0.141-  63 2.38  49 2.44  34 2.46  48 2.46  61 2.47  58 2.51  62 2.64  31 2.67
                             7 2.70  38 2.71  35 2.71  22 2.73
  12  0.971  0.532  0.224-  31 2.45  21 2.46  40 2.46   9 2.47  32 2.48  46 2.56   3 2.57  60 2.59
                            39 2.62  61 2.65  20 2.74  51 2.77
  13  0.287  0.132  0.315-  46 2.49  26 2.49   9 2.57  69 2.60  53 2.61  33 2.61  57 2.62  15 2.62
                            71 2.63  74 2.63  29 2.63  23 2.72
  14  0.531  0.625  0.314-  41 2.51  36 2.54  50 2.54  51 2.59  27 2.61  80 2.61  23 2.61  76 2.68
                            57 2.69  47 2.72  40 2.75  75 2.80
  15  0.296  0.375  0.318-  60 2.44  29 2.53  74 2.58  64 2.58  41 2.59   3 2.59  46 2.59  66 2.60
                            27 2.60  13 2.62   9 2.65  79 2.65
  16  0.289  0.123  0.044-  10 2.47   8 2.48  38 2.52  37 2.54  34 2.57  18 2.59  59 2.60  24 2.64
                            30 2.65
  17  0.528  0.627  0.045-  44 2.35  25 2.43  22 2.51  28 2.66  43 2.66  24 2.73  59 2.74  48 2.82
                            42 2.90
  18  0.289  0.369  0.048-  32 2.36  37 2.37  45 2.39   6 2.51  30 2.53  43 2.55  16 2.59  10 2.60
                            28 2.67
  19  0.623  0.959  0.131-  59 2.39  20 2.46  53 2.47   4 2.50  30 2.51  55 2.54   7 2.61   8 2.63
                            62 2.64  37 2.70  25 2.71  21 2.79
  20  0.709  0.789  0.218-  21 2.45  19 2.46  40 2.48  25 2.51  57 2.54   1 2.56  39 2.69  55 2.69
                            53 2.70  50 2.71  51 2.71  12 2.74
  21  0.887  0.695  0.135-  20 2.45  12 2.46  42 2.48  39 2.48   4 2.49   6 2.51  54 2.56  62 2.62
                            31 2.64  32 2.65  25 2.71  19 2.79
  22  0.620  0.454  0.134-  48 2.40  51 2.46  36 2.46  63 2.47  28 2.47  17 2.51  44 2.58   7 2.60
                            25 2.65  45 2.69  11 2.73  31 2.75
  23  0.286  0.875  0.317-  26 2.46  52 2.52   2 2.52  69 2.58  33 2.59  14 2.61  57 2.62  67 2.63
                            41 2.64  50 2.69  13 2.72  75 2.75
  24  0.269  0.885  0.046-  34 2.27  35 2.45   8 2.48  44 2.54   5 2.55  16 2.64  17 2.73  43 2.79
                            59 2.83
  25  0.629  0.700  0.128-  17 2.43  59 2.45  42 2.48  20 2.51  50 2.52  51 2.55  22 2.65   8 2.66
                            31 2.69  21 2.71  19 2.71  44 2.76
  26  0.217  0.032  0.227-  38 2.45  23 2.46  35 2.46  13 2.49  33 2.55   8 2.56  53 2.59  50 2.61
                            61 2.66  49 2.69  46 2.71  52 2.74
  27  0.544  0.372  0.316-  36 2.48  29 2.55  63 2.56  64 2.58  78 2.58  15 2.60  14 2.61  56 2.61
                            41 2.62  47 2.63  76 2.63  79 2.74
  28  0.541  0.369  0.044-  22 2.47   7 2.48  30 2.51  45 2.54  17 2.66  48 2.66  43 2.66  18 2.67
                            58 2.69
  29  0.535  0.135  0.313-  64 2.41  55 2.52  15 2.53  27 2.55  72 2.58  53 2.58  13 2.63  78 2.64
                            74 2.64  56 2.69   1 2.72  57 2.72
  30  0.534  0.136  0.044-   7 2.48  37 2.50  28 2.51  19 2.51  18 2.53  58 2.63  16 2.65  59 2.67
                             4 2.87
  31  0.883  0.447  0.138-  51 2.44  61 2.45  12 2.45  48 2.46  42 2.49  10 2.50  21 2.64  38 2.64
                            11 2.67  25 2.69  32 2.71  22 2.75
  32  0.140  0.447  0.136-  18 2.36  46 2.40  45 2.41  37 2.43  60 2.45  54 2.45  12 2.48   6 2.50
                            10 2.53  21 2.65  38 2.65  31 2.71
  33  0.044  0.124  0.318-  61 2.48  49 2.52  26 2.55  71 2.59  23 2.59  70 2.61  13 2.61  67 2.62
                             2 2.62  56 2.63  47 2.64   9 2.66
  34  0.059  0.102  0.058-  24 2.27  38 2.40  35 2.40  11 2.46  16 2.57  10 2.62   5 2.64  58 2.75
                            48 2.77
  35  0.134  0.938  0.142-  34 2.40  52 2.41  24 2.45  26 2.46  49 2.48   5 2.51  44 2.56   8 2.65
                            62 2.66  54 2.70  11 2.71  38 2.76
  36  0.459  0.525  0.223-  22 2.46  27 2.48  45 2.49  64 2.53  60 2.53  14 2.54  44 2.56  63 2.58
                            52 2.60  41 2.63  51 2.67  50 2.69
  37  0.369  0.216  0.135-  18 2.37  46 2.41  53 2.42  64 2.42  32 2.43  45 2.49  30 2.50  16 2.54
                            38 2.57   7 2.59  19 2.70   8 2.75
  38  0.135  0.199  0.139-  34 2.40  46 2.41  10 2.44  26 2.45  61 2.48  16 2.52  37 2.57   8 2.58
                            31 2.64  32 2.65  11 2.71  35 2.76
  39  0.967  0.782  0.224-  62 2.39   1 2.44   3 2.45  21 2.48  54 2.48  52 2.59   2 2.61  12 2.62
                            49 2.64  20 2.69  60 2.71  55 2.77
  40  0.792  0.623  0.307-  12 2.46  51 2.46  20 2.48  73 2.63  80 2.64   9 2.65  47 2.65  68 2.69
                            57 2.74   1 2.74  14 2.75   3 2.80
  41  0.297  0.620  0.322-  52 2.50  14 2.51   3 2.53  15 2.59  27 2.62  79 2.63  36 2.63  23 2.64
                            60 2.64  77 2.66   2 2.66  75 2.70
  42  0.814  0.604  0.046-  21 2.48  25 2.48  31 2.49   6 2.52  10 2.58  48 2.65   4 2.67  17 2.90
                            59 2.92
  43  0.283  0.614  0.042-  44 2.46  54 2.47   6 2.49  45 2.49  18 2.55   5 2.60  28 2.66  17 2.66
                            24 2.79
  44  0.371  0.692  0.130-  17 2.35  43 2.46  50 2.51  54 2.54  24 2.54  45 2.55  36 2.56  35 2.56
                            22 2.58  52 2.59  25 2.76   8 2.78
  45  0.365  0.454  0.134-  18 2.39  54 2.41  32 2.41  60 2.42  37 2.49  43 2.49  36 2.49  64 2.49
                            28 2.54  44 2.55   7 2.63  22 2.69
  46  0.213  0.291  0.223-  32 2.40  37 2.41  38 2.41  13 2.49  60 2.49   9 2.54  12 2.56  53 2.57
                            64 2.57  15 2.59  61 2.66  26 2.71
  47  0.793  0.372  0.314-  61 2.48  51 2.52  63 2.55  56 2.59  68 2.59  27 2.63  70 2.63  33 2.64
                            76 2.64  40 2.65   9 2.69  14 2.72
  48  0.796  0.362  0.053-  22 2.40  31 2.46  11 2.46  58 2.65  42 2.65  10 2.66  28 2.66  34 2.77
                            17 2.82
  49  0.960  0.035  0.229-  11 2.44  56 2.45   2 2.46  35 2.48  62 2.49  33 2.52  55 2.64  39 2.64
                            61 2.66  63 2.66  26 2.69  52 2.73
  50  0.457  0.781  0.218-   8 2.46  57 2.51  44 2.51  25 2.52  14 2.54  52 2.60  26 2.61  51 2.63
                            36 2.69  23 2.69  20 2.71  53 2.78
  51  0.707  0.534  0.221-  31 2.44  22 2.46  40 2.46  47 2.52  25 2.55  14 2.59  63 2.60  50 2.63
                            36 2.67  61 2.68  20 2.71  12 2.77
  52  0.216  0.773  0.228-  35 2.41  41 2.50  23 2.52   2 2.53  54 2.56  39 2.59  44 2.59  36 2.60
                            50 2.60  60 2.62  49 2.73  26 2.74
  53  0.454  0.046  0.219-  37 2.42  57 2.45  19 2.47   8 2.48  64 2.56  46 2.57  29 2.58  26 2.59
                            13 2.61  55 2.66  20 2.70  50 2.78
  54  0.137  0.681  0.136-  45 2.41  60 2.45  32 2.45   5 2.47  43 2.47  39 2.48   6 2.52  44 2.54
                            52 2.56  21 2.56  35 2.70  62 2.78
  55  0.706  0.045  0.223-  62 2.40   1 2.41   7 2.44  29 2.52  19 2.54  56 2.56  63 2.57  64 2.58
                            49 2.64  53 2.66  20 2.69  39 2.77
  56  0.794  0.126  0.316-  49 2.45  63 2.54  55 2.56  47 2.59   1 2.59  65 2.60  70 2.61  78 2.61
                            27 2.61  33 2.63   2 2.67  29 2.69
  57  0.530  0.880  0.306-  53 2.45  50 2.51  20 2.54  13 2.62  23 2.62  72 2.67  80 2.67  69 2.68
                            14 2.69  29 2.72  40 2.74   1 2.80
  58  0.793  0.113  0.051-   7 2.46  62 2.49  11 2.51   4 2.61   5 2.63  30 2.63  48 2.65  28 2.69
                            34 2.75
  59  0.539  0.881  0.046-   8 2.39  19 2.39  25 2.45  16 2.60  30 2.67   4 2.69  17 2.74  24 2.83
                            42 2.92
  60  0.221  0.523  0.226-  45 2.42  15 2.44  32 2.45  54 2.45   3 2.47  46 2.49  64 2.51  36 2.53
                            12 2.59  52 2.62  41 2.64  39 2.71
  61  0.964  0.285  0.227-  31 2.45  11 2.47  38 2.48  33 2.48  47 2.48   9 2.49  12 2.65  49 2.66
                            46 2.66  26 2.66  51 2.68  63 2.69
  62  0.877  0.948  0.140-  39 2.39  55 2.40   5 2.43  58 2.49  49 2.49   4 2.56  21 2.62  11 2.64
                            19 2.64  35 2.66   7 2.75  54 2.78
  63  0.709  0.287  0.222-  11 2.38   7 2.45  22 2.47  56 2.54  47 2.55  27 2.56  55 2.57  36 2.58
                            51 2.60  64 2.65  49 2.66  61 2.69
  64  0.459  0.286  0.223-   7 2.41  29 2.41  37 2.42  45 2.49  60 2.51  36 2.53  53 2.56  46 2.57
                            15 2.58  55 2.58  27 2.58  63 2.65
  65  0.874  0.959  0.411-   2 2.59  56 2.60  77 2.62  78 2.62  73 2.63  72 2.64  70 2.64  67 2.65
                             1 2.68
  66  0.124  0.458  0.412-  15 2.60   9 2.60  68 2.62  71 2.62   3 2.65  79 2.65  73 2.65  77 2.65
                            74 2.65
  67  0.123  0.962  0.416-   2 2.61  33 2.62  70 2.62  23 2.63  71 2.63  75 2.64  65 2.65  69 2.66
                            77 2.66
  68  0.876  0.459  0.408-   9 2.57  47 2.59  66 2.62  71 2.63  76 2.64  73 2.65  70 2.65  80 2.65
                            40 2.69
  69  0.374  0.961  0.410-  23 2.58  13 2.60  74 2.61  72 2.63  71 2.63  75 2.64  80 2.65  67 2.66
                            57 2.68
  70  0.874  0.209  0.413-  33 2.61  56 2.61  76 2.61  67 2.62  47 2.63  65 2.64  78 2.64  71 2.64
                            68 2.65
  71  0.124  0.210  0.413-  33 2.59  66 2.62  13 2.63  68 2.63  67 2.63  69 2.63  74 2.64   9 2.64
                            70 2.64
  72  0.624  0.959  0.404-  29 2.58  80 2.61   1 2.62  69 2.63  73 2.63  78 2.64  74 2.64  65 2.64
                            57 2.67
  73  0.875  0.710  0.404-   3 2.57   1 2.62  77 2.62  80 2.63  72 2.63  40 2.63  65 2.63  68 2.65
                            66 2.65
  74  0.376  0.208  0.413-  15 2.58  79 2.60  69 2.61  13 2.63  78 2.63  72 2.64  71 2.64  29 2.64
                            66 2.65
  75  0.373  0.713  0.422-  82 1.79  81 1.83  67 2.64  69 2.64  77 2.68  80 2.68  41 2.70  76 2.71
                            79 2.72  23 2.75  14 2.80
  76  0.627  0.456  0.413-  82 1.91  70 2.61  27 2.63  68 2.64  78 2.64  47 2.64  79 2.67  14 2.68
                            80 2.68  75 2.71
  77  0.121  0.711  0.418-  81 1.84  73 2.62  65 2.62  66 2.65   2 2.66  41 2.66  67 2.66   3 2.67
                            75 2.68  79 2.71
  78  0.625  0.208  0.412-  27 2.58  56 2.61  79 2.62  65 2.62  74 2.63  72 2.64  29 2.64  76 2.64
                            70 2.64
  79  0.376  0.454  0.419-  81 1.88  74 2.60  78 2.62  41 2.63  66 2.65  15 2.65  76 2.67  77 2.71
                            75 2.72  27 2.74
  80  0.625  0.711  0.405-  82 1.87  72 2.61  14 2.61  73 2.63  40 2.64  69 2.65  68 2.65  57 2.67
                            76 2.68  75 2.68
  81  0.287  0.627  0.465-  75 1.83  77 1.84  79 1.88
  82  0.547  0.632  0.460-  75 1.79  80 1.87  76 1.91
 
  LATTYP: Found a hexagonal cell.
 ALAT       =    10.5600004196
 C/A-ratio  =     2.0833332505
  
  Lattice vectors:
  
 A1 = (   5.2800002098,  -9.1452286274,   0.0000000000)
 A2 = ( -10.5600004196,   0.0000000000,   0.0000000000)
 A3 = (   0.0000000000,   0.0000000000, -22.0000000000)


Analysis of symmetry for initial positions (statically):
=====================================================================
 Subroutine PRICEL returns:
 Original cell was already a primitive cell.
 

 Routine SETGRP: Setting up the symmetry group for a 
 hexagonal supercell.


 Subroutine GETGRP returns: Found  1 space group operations
 (whereof  1 operations were pure point group operations)
 out of a pool of 24 trial point group operations.


The static configuration has the point symmetry C_1 .


Analysis of symmetry for dynamics (positions and initial velocities):
=====================================================================
 Subroutine PRICEL returns:
 Original cell was already a primitive cell.
 

 Routine SETGRP: Setting up the symmetry group for a 
 hexagonal supercell.


 Subroutine GETGRP returns: Found  1 space group operations
 (whereof  1 operations were pure point group operations)
 out of a pool of 24 trial point group operations.


The dynamic configuration has the point symmetry C_1 .


Analysis of constrained symmetry for selective dynamics:
=====================================================================
 Subroutine PRICEL returns:
 Original cell was already a primitive cell.
 

 Routine SETGRP: Setting up the symmetry group for a 
 hexagonal supercell.


 Subroutine GETGRP returns: Found  1 space group operations
 (whereof  1 operations were pure point group operations)
 out of a pool of 24 trial point group operations.


The constrained configuration has the point symmetry C_1 .


Analysis of structural, dynamic, and magnetic symmetry:
=====================================================================
 Subroutine PRICEL returns:
 Original cell was already a primitive cell.
 

 Routine SETGRP: Setting up the symmetry group for a 
 hexagonal supercell.


 Subroutine GETGRP returns: Found  1 space group operations
 (whereof  1 operations were pure point group operations)
 out of a pool of 24 trial point group operations.


The magnetic configuration has the point symmetry C_1 .


 Subroutine INISYM returns: Found  1 space group operations
 (whereof  1 operations are pure point group operations),
 and found     1 'primitive' translations

 
 
 KPOINTS: mesh auto                               

Automatic generation of k-mesh.
Space group operators:
 irot       det(A)        alpha          n_x          n_y          n_z        tau_x        tau_y        tau_z
    1     1.000000     0.000001     1.000000     0.000000     0.000000     0.000000     0.000000     0.000000
 
 Subroutine IBZKPT returns following result:
 ===========================================
 
 Found      4 irreducible k-points:
 
 Following reciprocal coordinates:
            Coordinates               Weight
  0.000000  0.000000  0.000000      1.000000
  0.500000  0.000000  0.000000      1.000000
  0.000000  0.500000  0.000000      1.000000
  0.500000  0.500000  0.000000      1.000000
 
 Following cartesian coordinates:
            Coordinates               Weight
  0.000000  0.000000  0.000000      1.000000
  0.047348 -0.027337  0.000000      1.000000
  0.000000  0.054673  0.000000      1.000000
  0.047348  0.027337  0.000000      1.000000
 
 TETIRR: Found     12 inequivalent tetrahedra from       24
 
 Subroutine IBZKPT_HF returns following result:
 ==============================================
 
 Found      4 k-points in 1st BZ
 the following      4 k-points will be used (e.g. in the exchange kernel)
 Following reciprocal coordinates:   # in IRBZ
  0.000000  0.000000  0.000000    0.25000000   1 t-inv F
  0.500000  0.000000  0.000000    0.25000000   2 t-inv F
  0.000000  0.500000  0.000000    0.25000000   3 t-inv F
  0.500000  0.500000  0.000000    0.25000000   4 t-inv F


--------------------------------------------------------------------------------------------------------




 Dimension of arrays:
   k-points           NKPTS =      4   k-points in BZ     NKDIM =      4   number of bands    NBANDS=    480
   number of dos      NEDOS =    301   number of ions     NIONS =     82
   non local maximal  LDIM  =      6   non local SUM 2l+1 LMDIM =     18
   total plane-waves  NPLWV = ******
   max r-space proj   IRMAX =   7802   max aug-charges    IRDMAX=  33988
   dimension x,y,z NGX =    84 NGY =   84 NGZ =  168
   dimension x,y,z NGXF=   168 NGYF=  168 NGZF=  336
   support grid    NGXF=   168 NGYF=  168 NGZF=  336
   ions per type =              64  16   2
   NGX,Y,Z   is equivalent  to a cutoff of  13.22, 13.22, 12.70 a.u.
   NGXF,Y,Z  is equivalent  to a cutoff of  26.45, 26.45, 25.39 a.u.

 SYSTEM =  Pt111                                   
 POSCAR =  PtM\(2)                                 

 Startparameter for this run:
   NWRITE =      2    write-flag & timer
   PREC   = accura    normal or accurate (medium, high low for compatibility)
   ISTART =      0    job   : 0-new  1-cont  2-samecut
   ICHARG =      2    charge: 1-file 2-atom 10-const
   ISPIN  =      2    spin polarized calculation?
   LNONCOLLINEAR =      F non collinear calculations
   LSORBIT =      F    spin-orbit coupling
   INIWAV =      1    electr: 0-lowe 1-rand  2-diag
   LASPH  =      F    aspherical Exc in radial PAW
   METAGGA=      F    non-selfconsistent MetaGGA calc.

 Electronic Relaxation 1
   ENCUT  =  550.0 eV  40.42 Ry    6.36 a.u.  20.19 20.19 42.07*2*pi/ulx,y,z
   ENINI  =  550.0     initial cutoff
   ENAUG  =  511.4 eV  augmentation charge cutoff
   NELM   =    200;   NELMIN=  2; NELMDL= -5     # of ELM steps 
   EDIFF  = 0.1E-04   stopping-criterion for ELM
   LREAL  =      T    real-space projection
   NLSPLINE    = F    spline interpolate recip. space projectors
   LCOMPAT=      F    compatible to vasp.4.4
   GGA_COMPAT  = T    GGA compatible to vasp.4.4-vasp.4.6
   LMAXPAW     = -100 max onsite density
   LMAXMIX     =    2 max onsite mixed and CHGCAR
   VOSKOWN=      0    Vosko Wilk Nusair interpolation
   ROPT   =   -0.00025  -0.00025  -0.00025
 Ionic relaxation
   EDIFFG = -.5E-01   stopping-criterion for IOM
   NSW    =   1021    number of steps for IOM
   NBLOCK =      1;   KBLOCK =   1021    inner block; outer block 
   IBRION =      5    ionic relax: 0-MD 1-quasi-New 2-CG
   NFREE  =      2    steps in history (QN), initial steepest desc. (CG)
   ISIF   =      2    stress and relaxation
   IWAVPR =     11    prediction:  0-non 1-charg 2-wave 3-comb
   ISYM   =      2    0-nonsym 1-usesym 2-fastsym
   LCORR  =      T    Harris-Foulkes like correction to forces

   POTIM  = 0.5000    time-step for ionic-motion
   TEIN   =    0.0    initial temperature
   TEBEG  =    0.0;   TEEND  =   0.0 temperature during run
   SMASS  =  -3.00    Nose mass-parameter (am)
   estimated Nose-frequenzy (Omega)   =  0.10E-29 period in steps =****** mass=  -0.255E-26a.u.
   SCALEE = 1.0000    scale energy and forces
   NPACO  =    256;   APACO  = 16.0  distance and # of slots for P.C.
   PSTRESS=    0.0 pullay stress

  Mass of Ions in am
   POMASS =  55.85195.08  1.00
  Ionic Valenz
   ZVAL   =   8.00 10.00  1.00
  Atomic Wigner-Seitz radii
   RWIGS  =  -1.00 -1.00 -1.00
  virtual crystal weights 
   VCA    =   1.00  1.00  1.00
   NELECT =     674.0000    total number of electrons
   NUPDOWN=      -1.0000    fix difference up-down

 DOS related values:
   EMIN   =  10.00;   EMAX   =-10.00  energy-range for DOS
   EFERMI =   0.00
   ISMEAR =    -5;   SIGMA  =   0.10  broadening in eV -4-tet -1-fermi 0-gaus

 Electronic relaxation 2 (details)
   IALGO  =     68    algorithm
   LDIAG  =      T    sub-space diagonalisation (order eigenvalues)
   LSUBROT=      F    optimize rotation matrix (better conditioning)
   TURBO    =      0    0=normal 1=particle mesh
   IRESTART =      0    0=no restart 2=restart with 2 vectors
   NREBOOT  =      0    no. of reboots
   NMIN     =      0    reboot dimension
   EREF     =   0.00    reference energy to select bands
   IMIX   =      4    mixing-type and parameters
     AMIX     =   0.40;   BMIX     =  1.00
     AMIX_MAG =   1.60;   BMIX_MAG =  1.00
     AMIN     =   0.10
     WC   =   100.;   INIMIX=   1;  MIXPRE=   1;  MAXMIX= -45

 Intra band minimization:
   WEIMIN = 0.0010     energy-eigenvalue tresh-hold
   EBREAK =  0.52E-08  absolut break condition
   DEPER  =   0.30     relativ break condition  

   TIME   =   0.40     timestep for ELM

  volume/ion in A,a.u.               =      25.91       174.85
  Fermi-wavevector in a.u.,A,eV,Ry     =   1.116523  2.109923 16.961349  1.246624
  Thomas-Fermi vector in A             =   2.253138
 
 Write flags
   LWAVE        =      F    write WAVECAR
   LDOWNSAMPLE  =      F    k-point downsampling of WAVECAR
   LCHARG       =      F    write CHGCAR
   LVTOT        =      F    write LOCPOT, total local potential
   LVHAR        =      F    write LOCPOT, Hartree potential only
   LELF         =      F    write electronic localiz. function (ELF)
   LORBIT       =      0    0 simple, 1 ext, 2 COOP (PROOUT), +10 PAW based schemes


 Dipole corrections
   LMONO  =      F    monopole corrections only (constant potential shift)
   LDIPOL =      F    correct potential (dipole corrections)
   IDIPOL =      0    1-x, 2-y, 3-z, 4-all directions 
   EPSILON=  1.0000000 bulk dielectric constant

 Exchange correlation treatment:
   GGA     =    --    GGA type
   LEXCH   =     8    internal setting for exchange type
   VOSKOWN=      0    Vosko Wilk Nusair interpolation
   LHFCALC =     F    Hartree Fock is set to
   LHFONE  =     F    Hartree Fock one center treatment
   AEXX    =    0.0000 exact exchange contribution

 Linear response parameters
   LEPSILON=     F    determine dielectric tensor
   LRPA    =     F    only Hartree local field effects (RPA)
   LNABLA  =     F    use nabla operator in PAW spheres
   LVEL    =     F    velocity operator in full k-point grid
   LINTERFAST=   F  fast interpolation
   KINTER  =     0    interpolate to denser k-point grid
   CSHIFT  =0.1000    complex shift for real part using Kramers Kronig
   OMEGAMAX=  -1.0    maximum frequency
   DEG_THRESHOLD= 0.2000000E-02 threshold for treating states as degnerate
   RTIME   =   -0.100 relaxation time in fs
  (WPLASMAI=    0.000 imaginary part of plasma frequency in eV, 0.658/RTIME)
   DFIELD  = 0.0000000 0.0000000 0.0000000 field for delta impulse in time
 
 Orbital magnetization related:
   ORBITALMAG=     F  switch on orbital magnetization
   LCHIMAG   =     F  perturbation theory with respect to B field
   DQ        =  0.001000  dq finite difference perturbation B field
   LLRAUG    =     F  two centre corrections for induced B field



--------------------------------------------------------------------------------------------------------


 finite differences
   using selective dynamics as specified on POSCAR
   WARNING: If single coordinates had been selected the selection of coordinates
            is made according to the corresponding   d i r e c t   coordinates!
            Don't support selection of single cartesian coordinates -- sorry ...
  !
 charge density and potential will be updated during run
 spin polarized calculation
 RMM-DIIS sequential band-by-band and
  variant of blocked Davidson during initial phase
 perform sub-space diagonalisation
    before iterative eigenvector-optimisation
 modified Broyden-mixing scheme, WC =      100.0
 initial mixing is a Kerker type mixing with AMIX =  0.4000 and BMIX =      1.0000
 Hartree-type preconditioning will be used
 using additional bands          143
 real space projection scheme for non local part
 use partial core corrections
 calculate Harris-corrections to forces 
   (improved forces if not selfconsistent)
 use gradient corrections 
 use of overlap-Matrix (Vanderbilt PP)
 Fermi weights with tetrahedron method with Bloechl corrections


--------------------------------------------------------------------------------------------------------


  energy-cutoff  :      550.00
  volume of cell :     2124.62
      direct lattice vectors                 reciprocal lattice vectors
    10.560000420  0.000000000  0.000000000     0.094696966 -0.054673319  0.000000000
     5.280000210  9.145228627  0.000000000     0.000000000  0.109346638  0.000000000
     0.000000000  0.000000000 22.000000000     0.000000000  0.000000000  0.045454545

  length of vectors
    10.560000420 10.560000420 22.000000000     0.109346638  0.109346638  0.045454545


 
 k-points in units of 2pi/SCALE and weight: mesh auto                               
   0.00000000  0.00000000  0.00000000       0.250
   0.04734848 -0.02733666  0.00000000       0.250
   0.00000000  0.05467332  0.00000000       0.250
   0.04734848  0.02733666  0.00000000       0.250
 
 k-points in reciprocal lattice and weights: mesh auto                               
   0.00000000  0.00000000  0.00000000       0.250
   0.50000000  0.00000000  0.00000000       0.250
   0.00000000  0.50000000  0.00000000       0.250
   0.50000000  0.50000000  0.00000000       0.250
 
 position of ions in fractional coordinates (direct lattice) 
   0.79451380  0.88111104  0.30851701
   0.04709625  0.87452817  0.31860735
   0.05556967  0.62493999  0.31415183
   0.80262678  0.86154673  0.04548925
   0.04041952  0.86170272  0.05313215
   0.05094006  0.60623876  0.04345509
   0.61796243  0.20894070  0.13542057
   0.37710814  0.95205520  0.13151546
   0.04508661  0.37553594  0.31486897
   0.05135058  0.35331409  0.04887412
   0.87963640  0.19644551  0.14052428
   0.97063367  0.53205675  0.22365835
   0.28719145  0.13153480  0.31497616
   0.53068496  0.62535758  0.31353649
   0.29607562  0.37497774  0.31842360
   0.28932566  0.12342146  0.04415376
   0.52764202  0.62724309  0.04507467
   0.28909440  0.36894265  0.04793021
   0.62308868  0.95893090  0.13135365
   0.70931700  0.78940857  0.21805740
   0.88715030  0.69533554  0.13503616
   0.62004886  0.45380695  0.13368724
   0.28593613  0.87482873  0.31736765
   0.26874220  0.88463744  0.04648647
   0.62886211  0.69959047  0.12842619
   0.21675328  0.03224358  0.22674148
   0.54396889  0.37192068  0.31605813
   0.54121580  0.36930502  0.04425184
   0.53465948  0.13542316  0.31261514
   0.53369445  0.13558673  0.04398512
   0.88328883  0.44709780  0.13815827
   0.14022323  0.44695400  0.13555909
   0.04415614  0.12410799  0.31789532
   0.05899674  0.10183506  0.05752430
   0.13429353  0.93758220  0.14247060
   0.45890264  0.52536136  0.22330635
   0.36936136  0.21615030  0.13478133
   0.13522385  0.19851637  0.13931783
   0.96698728  0.78187404  0.22411296
   0.79154233  0.62317318  0.30708074
   0.29664879  0.61980475  0.32202077
   0.81363781  0.60358461  0.04581253
   0.28273285  0.61368477  0.04197721
   0.37110451  0.69197205  0.12976376
   0.36508999  0.45372452  0.13352880
   0.21339823  0.29052459  0.22317922
   0.79266519  0.37177159  0.31434125
   0.79556672  0.36237866  0.05257846
   0.96040947  0.03518296  0.22876192
   0.45724048  0.78095281  0.21783682
   0.70711482  0.53379508  0.22148348
   0.21588855  0.77338070  0.22808237
   0.45425145  0.04560183  0.21896120
   0.13654308  0.68114990  0.13635370
   0.70620124  0.04508842  0.22276916
   0.79357621  0.12636898  0.31583313
   0.53029822  0.88024168  0.30644326
   0.79323109  0.11303356  0.05068741
   0.53860456  0.88072804  0.04620693
   0.22067593  0.52251962  0.22591787
   0.96444661  0.28462585  0.22685734
   0.87747443  0.94780407  0.14048969
   0.70869307  0.28720404  0.22199475
   0.45869843  0.28609358  0.22268554
   0.87366855  0.95944466  0.41147569
   0.12381193  0.45834714  0.41224855
   0.12291187  0.96175800  0.41578345
   0.87586814  0.45904785  0.40838629
   0.37426217  0.96123050  0.40956006
   0.87432797  0.20925033  0.41295913
   0.12432683  0.21009371  0.41329172
   0.62446823  0.95863977  0.40407812
   0.87464801  0.70997754  0.40377913
   0.37550213  0.20786971  0.41283170
   0.37291861  0.71287173  0.42243438
   0.62737740  0.45647240  0.41285978
   0.12064396  0.71066139  0.41815455
   0.62481955  0.20772043  0.41164013
   0.37627866  0.45375684  0.41939379
   0.62549005  0.71106045  0.40539042
   0.28710700  0.62749308  0.46538399
   0.54699055  0.63233997  0.45960157
 
 position of ions in cartesian coordinates  (Angst):
  13.04233255  8.05796192  6.78737419
   5.11484533  7.99776004  7.00936167
   3.88649902  5.71521908  6.91134031
  13.02470601  7.87904181  1.00076339
   4.97662069  7.88046837  1.16890735
   3.73886781  5.54419210  0.95601204
   7.62889049  1.91081050  2.97925250
   9.00911375  8.70676251  2.89334004
   2.45894449  3.43436202  6.92711740
   2.40776059  3.23113815  1.07523068
  10.32619303  1.79653909  3.09153417
  13.05915172  4.86578059  4.92048369
   3.72724557  1.20291583  6.92947548
   8.90592160  5.71903807  6.89780274
   5.10644123  3.42925717  7.00531917
   3.70694447  1.12871750  0.97138267
   8.88374358  5.73628142  0.99164268
   5.00085423  3.37406493  1.05446452
  11.64297204  8.76964231  2.88978026
  11.65846523  7.21932187  4.79726270
  13.03967928  6.35900246  2.97079554
   8.94381702  4.15016834  2.94111937
   7.63858151  8.00050878  6.98208836
   7.50880361  8.09021164  1.02270230
  10.33462199  6.39791481  2.82537609
   2.45916081  0.29487492  4.98831245
   7.70805298  3.40129966  6.95327895
   7.66516964  3.37737887  0.97354052
   6.36103861  1.23847573  6.87753304
   6.35171159  1.23997163  0.96767274
  11.68820690  4.08881158  3.03948197
   3.84067457  4.08749653  2.98230000
   1.12157905  1.13499595  6.99369702
   1.16069472  0.93130488  1.26553464
   6.36857396  8.57440354  3.13435310
   7.61992019  4.80454978  4.91273962
   5.04172978  1.97674389  2.96518916
   2.47613036  1.81547761  3.06499229
  14.33968121  7.15041684  4.93048507
  11.64904184  5.69906125  6.75577618
   6.40518050  5.66825613  7.08445689
  11.77894245  5.51991923  1.00787576
   6.22591477  5.61228756  0.92349870
   7.57247639  6.32824264  2.85480283
   6.25101599  4.14941446  2.93763351
   3.78745525  2.65691381  4.90994292
  10.33349877  3.39993617  6.91550740
  10.31454426  3.31403569  1.15672606
  10.32769048  0.32175626  5.03276223
   8.95189070  7.14199201  4.79241013
  10.28557094  4.88167803  4.87263660
   6.36323345  7.07274333  5.01781203
   5.03767313  0.41703917  4.81714629
   5.03836660  6.22927156  2.99978141
   7.69555224  0.41234390  4.90092157
   9.04739337  1.15567319  6.94832879
  10.24762568  8.05001142  6.74175181
   8.97333784  1.03371774  1.11512301
  10.33790857  8.05445927  1.01655249
   5.08924167  4.77856139  4.97019315
  11.68738111  2.60296845  4.99086153
  14.27053609  8.66788494  3.09077329
   9.00023648  2.62654663  4.88388448
   6.35442978  2.61639116  4.89908179
  14.29180828  8.77434080  9.05246517
   3.72752705  4.19168936  9.06946815
   6.37603188  8.79549682  9.14723585
  11.67294066  4.19809753  8.98449835
   9.02750596  8.79067271  9.01032138
  10.33774550  1.91364208  9.08510082
   2.42218620  1.92135502  9.09241785
  11.65600300  8.76697987  8.88971873
  12.98496491  6.49290689  8.88314093
   5.06285476  1.90101600  9.08229743
   7.70198362  6.51937499  9.29355639
   9.03528001  4.17454450  9.08291515
   5.02629255  6.49916092  9.19940020
   7.69485866  1.89965087  9.05608283
   6.36933904  4.14971001  9.22666339
  10.35957449  6.50281039  8.91858929
   6.34501371  5.73856771 10.23844776
   9.11497566  5.78289358 10.11123449
 


--------------------------------------------------------------------------------------------------------


 k-point  1 :   0.0000 0.0000 0.0000  plane waves:   62167
 k-point  2 :   0.5000 0.0000 0.0000  plane waves:   62242
 k-point  3 :   0.0000 0.5000 0.0000  plane waves:   62242
 k-point  4 :   0.5000 0.5000 0.0000  plane waves:   62242

 maximum and minimum number of plane-waves per node :     62242    62167

 maximum number of plane-waves:     62242
 maximum index in each direction: 
   IXMAX=   20   IYMAX=   20   IZMAX=   42
   IXMIN=  -20   IYMIN=  -20   IZMIN=  -42


 serial   3D FFT for wavefunctions
 parallel 3D FFT for charge:
    minimum data exchange during FFTs selected (reduces bandwidth)


 total amount of memory used by VASP MPI-rank0   371022. kBytes
=======================================================================

   base      :      30000. kBytes
   nonlr-proj:     106526. kBytes
   fftplans  :      13995. kBytes
   grid      :     120016. kBytes
   one-center:       2550. kBytes
   wavefun   :      97935. kBytes
 
     INWAV:  cpu time    0.0000: real time    0.0000
 Broyden mixing: mesh for mixing (old mesh)
   NGX = 41   NGY = 41   NGZ = 85
  (NGX  =168   NGY  =168   NGZ  =336)
  gives a total of 142885 points

 initial charge density was supplied:
 charge density of overlapping atoms calculated
 number of electron     674.0000000 magnetization      82.0000000
 keeping initial charge density in first step


--------------------------------------------------------------------------------------------------------


 Maximum index for non-local projection operator         7554
 Maximum index for augmentation-charges         1480 (set IRDMAX)


--------------------------------------------------------------------------------------------------------


 First call to EWALD:  gamma=   0.138
 Maximum number of real-space cells 4x 4x 2
 Maximum number of reciprocal cells 2x 2x 4

    FEWALD:  cpu time    0.0034: real time    0.0034


--------------------------------------- Iteration      1(   1)  ---------------------------------------


    POTLOK:  cpu time    0.4360: real time    0.4482
    SETDIJ:  cpu time    0.0310: real time    0.0314
     EDDAV:  cpu time   44.3424: real time   44.4677
 BZINTS: Fermi energy: 13.550352;674.000000 electrons
         Band energy:5942.335080;  BLOECHL correction: -0.022749
       DOS:  cpu time    0.0132: real time    0.0133
    --------------------------------------------
      LOOP:  cpu time   44.8226: real time   44.9606

 eigenvalue-minimisations  :  7680
 total energy-change (2. order) : 0.6237813E+04  (-0.2873953E+05)
 number of electron     674.0000000 magnetization      82.0000000
 augmentation part      674.0000000 magnetization      82.0000000

 Free energy of the ion-electron system (eV)
  ---------------------------------------------------
  alpha Z        PSCENC =      2238.05104169
  Ewald energy   TEWEN  =    179015.88855797
  -Hartree energ DENC   =   -230950.40847480
  -exchange      EXHF   =         0.00000000
  -V(xc)+E(xc)   XCENC  =       305.71796696
  PAW double counting   =     46642.83966157   -46683.45960708
  entropy T*S    EENTRO =         0.00000000
  eigenvalues    EBANDS =      5942.33508005
  atomic energy  EATOM  =     49726.84884536
  Solvation  Ediel_sol  =         0.00000000
  ---------------------------------------------------
  free energy    TOTEN  =      6237.81307171 eV

  energy without entropy =     6237.81307171  energy(sigma->0) =     6237.81307171


--------------------------------------------------------------------------------------------------------




--------------------------------------- Iteration      1(   2)  ---------------------------------------


     EDDAV:  cpu time   44.2526: real time   44.3787
 BZINTS: Fermi energy:  3.038047;674.000000 electrons
         Band energy:-197.921332;  BLOECHL correction: -0.009884
       DOS:  cpu time    0.0144: real time    0.0144
    --------------------------------------------
      LOOP:  cpu time   44.2669: real time   44.3931

 eigenvalue-minimisations  :  7680
 total energy-change (2. order) :-0.6140256E+04  (-0.5757416E+04)
 number of electron     674.0000000 magnetization      82.0000000
 augmentation part      674.0000000 magnetization      82.0000000

 Free energy of the ion-electron system (eV)
  ---------------------------------------------------
  alpha Z        PSCENC =      2238.05104169
  Ewald energy   TEWEN  =    179015.88855797
  -Hartree energ DENC   =   -230950.40847480
  -exchange      EXHF   =         0.00000000
  -V(xc)+E(xc)   XCENC  =       305.71796696
  PAW double counting   =     46642.83966157   -46683.45960708
  entropy T*S    EENTRO =         0.00000000
  eigenvalues    EBANDS =      -197.92133218
  atomic energy  EATOM  =     49726.84884536
  Solvation  Ediel_sol  =         0.00000000
  ---------------------------------------------------
  free energy    TOTEN  =        97.55665948 eV

  energy without entropy =       97.55665948  energy(sigma->0) =       97.55665948


--------------------------------------------------------------------------------------------------------




--------------------------------------- Iteration      1(   3)  ---------------------------------------


     EDDAV:  cpu time   51.8455: real time   51.9922
 BZINTS: Fermi energy:  1.720162;674.000000 electrons
         Band energy:-904.053999;  BLOECHL correction: -0.015949
       DOS:  cpu time    0.0131: real time    0.0131
    --------------------------------------------
      LOOP:  cpu time   51.8586: real time   52.0053

 eigenvalue-minimisations  :  9320
 total energy-change (2. order) :-0.7061327E+03  (-0.5414500E+03)
 number of electron     674.0000000 magnetization      82.0000000
 augmentation part      674.0000000 magnetization      82.0000000

 Free energy of the ion-electron system (eV)
  ---------------------------------------------------
  alpha Z        PSCENC =      2238.05104169
  Ewald energy   TEWEN  =    179015.88855797
  -Hartree energ DENC   =   -230950.40847480
  -exchange      EXHF   =         0.00000000
  -V(xc)+E(xc)   XCENC  =       305.71796696
  PAW double counting   =     46642.83966157   -46683.45960708
  entropy T*S    EENTRO =         0.00000000
  eigenvalues    EBANDS =      -904.05399949
  atomic energy  EATOM  =     49726.84884536
  Solvation  Ediel_sol  =         0.00000000
  ---------------------------------------------------
  free energy    TOTEN  =      -608.57600782 eV

  energy without entropy =     -608.57600782  energy(sigma->0) =     -608.57600782


--------------------------------------------------------------------------------------------------------




--------------------------------------- Iteration      1(   4)  ---------------------------------------


     EDDAV:  cpu time   60.9945: real time   61.1738
 BZINTS: Fermi energy:  1.555063;674.000000 electrons
         Band energy:-978.966806;  BLOECHL correction: -0.004375
       DOS:  cpu time    0.0149: real time    0.0149
    --------------------------------------------
      LOOP:  cpu time   61.0094: real time   61.1887

 eigenvalue-minimisations  : 11360
 total energy-change (2. order) :-0.7491281E+02  (-0.6691726E+02)
 number of electron     674.0000000 magnetization      82.0000000
 augmentation part      674.0000000 magnetization      82.0000000

 Free energy of the ion-electron system (eV)
  ---------------------------------------------------
  alpha Z        PSCENC =      2238.05104169
  Ewald energy   TEWEN  =    179015.88855797
  -Hartree energ DENC   =   -230950.40847480
  -exchange      EXHF   =         0.00000000
  -V(xc)+E(xc)   XCENC  =       305.71796696
  PAW double counting   =     46642.83966157   -46683.45960708
  entropy T*S    EENTRO =         0.00000000
  eigenvalues    EBANDS =      -978.96680632
  atomic energy  EATOM  =     49726.84884536
  Solvation  Ediel_sol  =         0.00000000
  ---------------------------------------------------
  free energy    TOTEN  =      -683.48881465 eV

  energy without entropy =     -683.48881465  energy(sigma->0) =     -683.48881465


--------------------------------------------------------------------------------------------------------




--------------------------------------- Iteration      1(   5)  ---------------------------------------


     EDDAV:  cpu time   59.1272: real time   59.2955
 BZINTS: Fermi energy:  1.547066;674.000000 electrons
         Band energy:-980.962150;  BLOECHL correction: -0.003912
       DOS:  cpu time    0.0221: real time    0.0222
    CHARGE:  cpu time    2.2927: real time    2.2984
    MIXING:  cpu time    0.0099: real time    0.0104
    --------------------------------------------
      LOOP:  cpu time   61.4520: real time   61.6265

 eigenvalue-minimisations  : 10920
 total energy-change (2. order) :-0.1995344E+01  (-0.1948275E+01)
 number of electron     674.0000024 magnetization      78.7184487
 augmentation part      274.6933695 magnetization      60.7452873

 Broyden mixing:
  rms(total) = 0.96666E+01    rms(broyden)= 0.96666E+01
  rms(prec ) = 0.10339E+02
  weight for this iteration     100.00

 Free energy of the ion-electron system (eV)
  ---------------------------------------------------
  alpha Z        PSCENC =      2238.05104169
  Ewald energy   TEWEN  =    179015.88855797
  -Hartree energ DENC   =   -230950.40847480
  -exchange      EXHF   =         0.00000000
  -V(xc)+E(xc)   XCENC  =       305.71796696
  PAW double counting   =     46642.83966157   -46683.45960708
  entropy T*S    EENTRO =         0.00000000
  eigenvalues    EBANDS =      -980.96215018
  atomic energy  EATOM  =     49726.84884536
  Solvation  Ediel_sol  =         0.00000000
  ---------------------------------------------------
  free energy    TOTEN  =      -685.48415851 eV

  energy without entropy =     -685.48415851  energy(sigma->0) =     -685.48415851


--------------------------------------------------------------------------------------------------------




--------------------------------------- Iteration      1(   6)  ---------------------------------------


    POTLOK:  cpu time    0.4116: real time    0.4125
    SETDIJ:  cpu time    0.0314: real time    0.0315
    EDDIAG:  cpu time    6.7836: real time    6.8001
  RMM-DIIS:  cpu time   28.1224: real time   28.1887
    ORTHCH:  cpu time    0.8941: real time    0.8962
 BZINTS: Fermi energy:  1.168541;674.000000 electrons
         Band energy:***********;  BLOECHL correction: -0.009553
       DOS:  cpu time    0.0172: real time    0.0173
    CHARGE:  cpu time    2.2911: real time    2.2965
    MIXING:  cpu time    0.0085: real time    0.0089
    --------------------------------------------
      LOOP:  cpu time   38.5600: real time   38.6518

 eigenvalue-minimisations  :  7697
 total energy-change (2. order) :-0.3598875E+03  (-0.1203938E+03)
 number of electron     674.0000032 magnetization      77.8386525
 augmentation part      325.3522494 magnetization      64.6935216

 Broyden mixing:
  rms(total) = 0.24737E+02    rms(broyden)= 0.24737E+02
  rms(prec ) = 0.29417E+02
  weight for this iteration     100.00

 eigenvalues of (default mixing * dielectric matrix)
  average eigenvalue GAMMA=   0.1481
  0.1481

 Free energy of the ion-electron system (eV)
  ---------------------------------------------------
  alpha Z        PSCENC =      2238.05104169
  Ewald energy   TEWEN  =    179015.88855797
  -Hartree energ DENC   =   -230315.64760326
  -exchange      EXHF   =         0.00000000
  -V(xc)+E(xc)   XCENC  =       251.70018594
  PAW double counting   =     50434.15239275   -50357.63308639
  entropy T*S    EENTRO =         0.00000000
  eigenvalues    EBANDS =     -2038.73200105
  atomic energy  EATOM  =     49726.84884536
  Solvation  Ediel_sol  =         0.00000000
  ---------------------------------------------------
  free energy    TOTEN  =     -1045.37166700 eV

  energy without entropy =    -1045.37166700  energy(sigma->0) =    -1045.37166700


--------------------------------------------------------------------------------------------------------




--------------------------------------- Iteration      1(   7)  ---------------------------------------


    POTLOK:  cpu time    0.4116: real time    0.4126
    SETDIJ:  cpu time    0.0313: real time    0.0314
    EDDIAG:  cpu time    6.8936: real time    6.9116
  RMM-DIIS:  cpu time   28.3541: real time   28.4348
    ORTHCH:  cpu time    1.0302: real time    1.0331
 BZINTS: Fermi energy: -0.514689;674.000000 electrons
         Band energy:***********;  BLOECHL correction: -0.012602
       DOS:  cpu time    0.0160: real time    0.0160
    CHARGE:  cpu time    2.2919: real time    2.3005
    MIXING:  cpu time    0.0101: real time    0.0102
    --------------------------------------------
      LOOP:  cpu time   39.0389: real time   39.1502

 eigenvalue-minimisations  :  7702
 total energy-change (2. order) : 0.3941368E+03  (-0.3177451E+02)
 number of electron     674.0000029 magnetization      76.2359290
 augmentation part      331.3160071 magnetization      59.1286364

 Broyden mixing:
  rms(total) = 0.13116E+02    rms(broyden)= 0.13116E+02
  rms(prec ) = 0.16084E+02
  weight for this iteration     100.00

 eigenvalues of (default mixing * dielectric matrix)
  average eigenvalue GAMMA=   0.3050
  0.4963  0.1136

 Free energy of the ion-electron system (eV)
  ---------------------------------------------------
  alpha Z        PSCENC =      2238.05104169
  Ewald energy   TEWEN  =    179015.88855797
  -Hartree energ DENC   =   -229946.07228691
  -exchange      EXHF   =         0.00000000
  -V(xc)+E(xc)   XCENC  =       253.14941737
  PAW double counting   =     51259.40655343   -51205.57693260
  entropy T*S    EENTRO =         0.00000000
  eigenvalues    EBANDS =     -1992.93006560
  atomic energy  EATOM  =     49726.84884536
  Solvation  Ediel_sol  =         0.00000000
  ---------------------------------------------------
  free energy    TOTEN  =      -651.23486929 eV

  energy without entropy =     -651.23486929  energy(sigma->0) =     -651.23486929


--------------------------------------------------------------------------------------------------------




--------------------------------------- Iteration      1(   8)  ---------------------------------------


    POTLOK:  cpu time    0.4079: real time    0.4089
    SETDIJ:  cpu time    0.0311: real time    0.0312
    EDDIAG:  cpu time    6.7624: real time    6.7818
  RMM-DIIS:  cpu time   27.8985: real time   27.9772
    ORTHCH:  cpu time    0.8866: real time    0.8887
 BZINTS: Fermi energy:  0.769378;674.000000 electrons
         Band energy:***********;  BLOECHL correction: -0.006596
       DOS:  cpu time    0.0158: real time    0.0159
    CHARGE:  cpu time    2.2339: real time    2.2392
    MIXING:  cpu time    0.0099: real time    0.0099
    --------------------------------------------
      LOOP:  cpu time   38.2461: real time   38.3528

 eigenvalue-minimisations  :  7683
 total energy-change (2. order) :-0.3454584E+03  (-0.1727136E+02)
 number of electron     674.0000032 magnetization      74.8917351
 augmentation part      321.9599493 magnetization      61.7264120

 Broyden mixing:
  rms(total) = 0.21057E+02    rms(broyden)= 0.21057E+02
  rms(prec ) = 0.28956E+02
  weight for this iteration     100.00

 eigenvalues of (default mixing * dielectric matrix)
  average eigenvalue GAMMA=   0.3122
  0.6816  0.1718  0.0831

 Free energy of the ion-electron system (eV)
  ---------------------------------------------------
  alpha Z        PSCENC =      2238.05104169
  Ewald energy   TEWEN  =    179015.88855797
  -Hartree energ DENC   =   -230188.99558872
  -exchange      EXHF   =         0.00000000
  -V(xc)+E(xc)   XCENC  =       265.53985067
  PAW double counting   =     53073.48299360   -53108.42404414
  entropy T*S    EENTRO =         0.00000000
  eigenvalues    EBANDS =     -2019.08493787
  atomic energy  EATOM  =     49726.84884536
  Solvation  Ediel_sol  =         0.00000000
  ---------------------------------------------------
  free energy    TOTEN  =      -996.69328144 eV

  energy without entropy =     -996.69328144  energy(sigma->0) =     -996.69328144


--------------------------------------------------------------------------------------------------------




--------------------------------------- Iteration      1(   9)  ---------------------------------------


    POTLOK:  cpu time    0.4088: real time    0.4099
    SETDIJ:  cpu time    0.0311: real time    0.0311
    EDDIAG:  cpu time    6.7446: real time    6.7605
  RMM-DIIS:  cpu time   28.0298: real time   28.0963
    ORTHCH:  cpu time    0.8873: real time    0.8893
 BZINTS: Fermi energy:  1.233731;674.000000 electrons
         Band energy:***********;  BLOECHL correction: -0.019506
       DOS:  cpu time    0.0153: real time    0.0153
    CHARGE:  cpu time    2.2287: real time    2.2339
    MIXING:  cpu time    0.0121: real time    0.0121
    --------------------------------------------
      LOOP:  cpu time   38.3575: real time   38.4486

 eigenvalue-minimisations  :  7692
 total energy-change (2. order) : 0.2113998E+03  (-0.9155295E+01)
 number of electron     674.0000030 magnetization      73.6948008
 augmentation part      312.7838662 magnetization      58.9344598

 Broyden mixing:
  rms(total) = 0.17931E+02    rms(broyden)= 0.17931E+02
  rms(prec ) = 0.21933E+02
  weight for this iteration     100.00

 eigenvalues of (default mixing * dielectric matrix)
  average eigenvalue GAMMA=   0.3013
  0.7928  0.2465  0.0830  0.0830

 Free energy of the ion-electron system (eV)
  ---------------------------------------------------
  alpha Z        PSCENC =      2238.05104169
  Ewald energy   TEWEN  =    179015.88855797
  -Hartree energ DENC   =   -230691.34712894
  -exchange      EXHF   =         0.00000000
  -V(xc)+E(xc)   XCENC  =       270.14036317
  PAW double counting   =     54330.33237818   -54409.63203129
  entropy T*S    EENTRO =         0.00000000
  eigenvalues    EBANDS =     -1265.57547208
  atomic energy  EATOM  =     49726.84884536
  Solvation  Ediel_sol  =         0.00000000
  ---------------------------------------------------
  free energy    TOTEN  =      -785.29344595 eV

  energy without entropy =     -785.29344595  energy(sigma->0) =     -785.29344595


--------------------------------------------------------------------------------------------------------




--------------------------------------- Iteration      1(  10)  ---------------------------------------


    POTLOK:  cpu time    0.4088: real time    0.4098
    SETDIJ:  cpu time    0.0311: real time    0.0312
    EDDIAG:  cpu time    6.7598: real time    6.7759
  RMM-DIIS:  cpu time   27.7427: real time   27.8219
    ORTHCH:  cpu time    0.8904: real time    0.8929
 BZINTS: Fermi energy:  0.991204;674.000000 electrons
         Band energy:***********;  BLOECHL correction: -0.025417
       DOS:  cpu time    0.0152: real time    0.0154
    CHARGE:  cpu time    2.2862: real time    2.2926
    MIXING:  cpu time    0.0107: real time    0.0107
    --------------------------------------------
      LOOP:  cpu time   38.1449: real time   38.2504

 eigenvalue-minimisations  :  7681
 total energy-change (2. order) : 0.1215999E+03  (-0.1152191E+02)
 number of electron     674.0000030 magnetization      72.2100415
 augmentation part      309.1605500 magnetization      55.9307026

 Broyden mixing:
  rms(total) = 0.13338E+02    rms(broyden)= 0.13338E+02
  rms(prec ) = 0.16465E+02
  weight for this iteration     100.00

 eigenvalues of (default mixing * dielectric matrix)
  average eigenvalue GAMMA=   0.3357
  0.9628  0.4144  0.1176  0.1176  0.0659

 Free energy of the ion-electron system (eV)
  ---------------------------------------------------
  alpha Z        PSCENC =      2238.05104169
  Ewald energy   TEWEN  =    179015.88855797
  -Hartree energ DENC   =   -230578.61333573
  -exchange      EXHF   =         0.00000000
  -V(xc)+E(xc)   XCENC  =       272.35490441
  PAW double counting   =     55166.36573296   -55269.37367530
  entropy T*S    EENTRO =         0.00000000
  eigenvalues    EBANDS =     -1235.21563214
  atomic energy  EATOM  =     49726.84884536
  Solvation  Ediel_sol  =         0.00000000
  ---------------------------------------------------
  free energy    TOTEN  =      -663.69356078 eV

  energy without entropy =     -663.69356078  energy(sigma->0) =     -663.69356078


--------------------------------------------------------------------------------------------------------




--------------------------------------- Iteration      1(  11)  ---------------------------------------


    POTLOK:  cpu time    0.4076: real time    0.4086
    SETDIJ:  cpu time    0.0313: real time    0.0314
    EDDIAG:  cpu time    6.9761: real time    6.9960
  RMM-DIIS:  cpu time   27.9526: real time   28.0355
    ORTHCH:  cpu time    0.8910: real time    0.8936
 BZINTS: Fermi energy:  0.661402;674.000000 electrons
         Band energy:***********;  BLOECHL correction: -0.023587
       DOS:  cpu time    0.0143: real time    0.0144
    CHARGE:  cpu time    2.2904: real time    2.2970
    MIXING:  cpu time    0.0107: real time    0.0109
    --------------------------------------------
      LOOP:  cpu time   38.5739: real time   38.6874

 eigenvalue-minimisations  :  7691
 total energy-change (2. order) : 0.1935550E+02  (-0.5909534E+01)
 number of electron     674.0000029 magnetization      71.2467715
 augmentation part      312.8847785 magnetization      54.7366143

 Broyden mixing:
  rms(total) = 0.12776E+02    rms(broyden)= 0.12776E+02
  rms(prec ) = 0.15170E+02
  weight for this iteration     100.00

 eigenvalues of (default mixing * dielectric matrix)
  average eigenvalue GAMMA=   0.3267
  1.0499  0.4546  0.1835  0.1025  0.1025  0.0674

 Free energy of the ion-electron system (eV)
  ---------------------------------------------------
  alpha Z        PSCENC =      2238.05104169
  Ewald energy   TEWEN  =    179015.88855797
  -Hartree energ DENC   =   -230444.84042496
  -exchange      EXHF   =         0.00000000
  -V(xc)+E(xc)   XCENC  =       272.49421178
  PAW double counting   =     55998.85872378   -56112.39381623
  entropy T*S    EENTRO =         0.00000000
  eigenvalues    EBANDS =     -1339.24519789
  atomic energy  EATOM  =     49726.84884536
  Solvation  Ediel_sol  =         0.00000000
  ---------------------------------------------------
  free energy    TOTEN  =      -644.33805850 eV

  energy without entropy =     -644.33805850  energy(sigma->0) =     -644.33805850


--------------------------------------------------------------------------------------------------------




--------------------------------------- Iteration      1(  12)  ---------------------------------------


    POTLOK:  cpu time    0.4094: real time    0.4104
    SETDIJ:  cpu time    0.0310: real time    0.0310
    EDDIAG:  cpu time    6.7503: real time    6.7695
  RMM-DIIS:  cpu time   27.9440: real time   28.0199
    ORTHCH:  cpu time    0.8923: real time    0.8944
 BZINTS: Fermi energy:  0.599879;674.000000 electrons
         Band energy:***********;  BLOECHL correction: -0.003373
       DOS:  cpu time    0.0155: real time    0.0155
    CHARGE:  cpu time    2.3062: real time    2.3117
    MIXING:  cpu time    0.0108: real time    0.0108
    --------------------------------------------
      LOOP:  cpu time   38.3594: real time   38.4633

 eigenvalue-minimisations  :  7691
 total energy-change (2. order) : 0.3968315E+02  (-0.5082550E+01)
 number of electron     674.0000028 magnetization      70.6506736
 augmentation part      313.9192718 magnetization      51.8592585

 Broyden mixing:
  rms(total) = 0.91481E+01    rms(broyden)= 0.91479E+01
  rms(prec ) = 0.10699E+02
  weight for this iteration     100.00

 eigenvalues of (default mixing * dielectric matrix)
  average eigenvalue GAMMA=   0.3355
  1.0934  0.4399  0.4399  0.1139  0.1139  0.0682  0.0794

 Free energy of the ion-electron system (eV)
  ---------------------------------------------------
  alpha Z        PSCENC =      2238.05104169
  Ewald energy   TEWEN  =    179015.88855797
  -Hartree energ DENC   =   -230421.01445769
  -exchange      EXHF   =         0.00000000
  -V(xc)+E(xc)   XCENC  =       271.69564053
  PAW double counting   =     56464.15188029   -56581.17223487
  entropy T*S    EENTRO =         0.00000000
  eigenvalues    EBANDS =     -1319.10417960
  atomic energy  EATOM  =     49726.84884536
  Solvation  Ediel_sol  =         0.00000000
  ---------------------------------------------------
  free energy    TOTEN  =      -604.65490633 eV

  energy without entropy =     -604.65490633  energy(sigma->0) =     -604.65490633


--------------------------------------------------------------------------------------------------------




--------------------------------------- Iteration      1(  13)  ---------------------------------------


    POTLOK:  cpu time    0.4071: real time    0.4081
    SETDIJ:  cpu time    0.0311: real time    0.0312
    EDDIAG:  cpu time    6.7521: real time    6.7680
  RMM-DIIS:  cpu time   27.7725: real time   27.8381
    ORTHCH:  cpu time    0.8907: real time    0.8928
 BZINTS: Fermi energy:  0.780807;674.000000 electrons
         Band energy:***********;  BLOECHL correction: -0.023840
       DOS:  cpu time    0.0160: real time    0.0160
    CHARGE:  cpu time    2.3194: real time    2.3249
    MIXING:  cpu time    0.0100: real time    0.0101
    --------------------------------------------
      LOOP:  cpu time   38.1990: real time   38.2892

 eigenvalue-minimisations  :  7689
 total energy-change (2. order) :-0.3713671E+01  (-0.2972353E+01)
 number of electron     674.0000027 magnetization      70.2516453
 augmentation part      311.6968128 magnetization      50.8558829

 Broyden mixing:
  rms(total) = 0.90456E+01    rms(broyden)= 0.90455E+01
  rms(prec ) = 0.10380E+02
  weight for this iteration     100.00

 eigenvalues of (default mixing * dielectric matrix)
  average eigenvalue GAMMA=   0.3323
  1.1511  0.5142  0.5142  0.1353  0.1074  0.0937  0.0715  0.0715

 Free energy of the ion-electron system (eV)
  ---------------------------------------------------
  alpha Z        PSCENC =      2238.05104169
  Ewald energy   TEWEN  =    179015.88855797
  -Hartree energ DENC   =   -230477.57529333
  -exchange      EXHF   =         0.00000000
  -V(xc)+E(xc)   XCENC  =       270.58629495
  PAW double counting   =     56818.25744889   -56945.06187765
  entropy T*S    EENTRO =         0.00000000
  eigenvalues    EBANDS =     -1255.36359566
  atomic energy  EATOM  =     49726.84884536
  Solvation  Ediel_sol  =         0.00000000
  ---------------------------------------------------
  free energy    TOTEN  =      -608.36857778 eV

  energy without entropy =     -608.36857778  energy(sigma->0) =     -608.36857778


--------------------------------------------------------------------------------------------------------




--------------------------------------- Iteration      1(  14)  ---------------------------------------


    POTLOK:  cpu time    0.4089: real time    0.4099
    SETDIJ:  cpu time    0.0310: real time    0.0311
    EDDIAG:  cpu time    6.8355: real time    6.8517
  RMM-DIIS:  cpu time   27.8526: real time   27.9184
    ORTHCH:  cpu time    0.9083: real time    0.9104
 BZINTS: Fermi energy:  0.819683;674.000000 electrons
         Band energy:***********;  BLOECHL correction: -0.014791
       DOS:  cpu time    0.0195: real time    0.0195
    CHARGE:  cpu time    2.3354: real time    2.3555
    MIXING:  cpu time    0.0134: real time    0.0135
    --------------------------------------------
      LOOP:  cpu time   38.4047: real time   38.5099

 eigenvalue-minimisations  :  7686
 total energy-change (2. order) : 0.2346330E+02  (-0.1630810E+01)
 number of electron     674.0000029 magnetization      70.1085313
 augmentation part      309.9136250 magnetization      51.2608284

 Broyden mixing:
  rms(total) = 0.50412E+01    rms(broyden)= 0.50411E+01
  rms(prec ) = 0.57369E+01
  weight for this iteration     100.00

 eigenvalues of (default mixing * dielectric matrix)
  average eigenvalue GAMMA=   0.3304
  1.2196  0.5356  0.5356  0.2354  0.1091  0.1091  0.0910  0.0692  0.0692

 Free energy of the ion-electron system (eV)
  ---------------------------------------------------
  alpha Z        PSCENC =      2238.05104169
  Ewald energy   TEWEN  =    179015.88855797
  -Hartree energ DENC   =   -230515.94861003
  -exchange      EXHF   =         0.00000000
  -V(xc)+E(xc)   XCENC  =       270.66859830
  PAW double counting   =     57134.88448537   -57267.02765747
  entropy T*S    EENTRO =         0.00000000
  eigenvalues    EBANDS =     -1188.27054017
  atomic energy  EATOM  =     49726.84884536
  Solvation  Ediel_sol  =         0.00000000
  ---------------------------------------------------
  free energy    TOTEN  =      -584.90527900 eV

  energy without entropy =     -584.90527900  energy(sigma->0) =     -584.90527900


--------------------------------------------------------------------------------------------------------




--------------------------------------- Iteration      1(  15)  ---------------------------------------


    POTLOK:  cpu time    0.4699: real time    0.4712
    SETDIJ:  cpu time    0.0310: real time    0.0311
    EDDIAG:  cpu time    6.7528: real time    6.7721
  RMM-DIIS:  cpu time   27.8757: real time   27.9574
    ORTHCH:  cpu time    0.8897: real time    0.8923
 BZINTS: Fermi energy:  0.692567;674.000000 electrons
         Band energy:***********;  BLOECHL correction: -0.015794
       DOS:  cpu time    0.0155: real time    0.0156
    CHARGE:  cpu time    2.3268: real time    2.3333
    MIXING:  cpu time    0.0116: real time    0.0116
    --------------------------------------------
      LOOP:  cpu time   38.3731: real time   38.4847

 eigenvalue-minimisations  :  7689
 total energy-change (2. order) : 0.3359627E+01  (-0.5449975E+00)
 number of electron     674.0000029 magnetization      70.1381245
 augmentation part      311.4438788 magnetization      51.0938707

 Broyden mixing:
  rms(total) = 0.41446E+01    rms(broyden)= 0.41446E+01
  rms(prec ) = 0.46953E+01
  weight for this iteration     100.00

 eigenvalues of (default mixing * dielectric matrix)
  average eigenvalue GAMMA=   0.3124
  1.2295  0.5487  0.5487  0.2825  0.1115  0.1115  0.0955  0.0698  0.0698  0.0568

 Free energy of the ion-electron system (eV)
  ---------------------------------------------------
  alpha Z        PSCENC =      2238.05104169
  Ewald energy   TEWEN  =    179015.88855797
  -Hartree energ DENC   =   -230481.82268489
  -exchange      EXHF   =         0.00000000
  -V(xc)+E(xc)   XCENC  =       270.14732865
  PAW double counting   =     57292.75452930   -57423.79185189
[...]
     10.333499  3.399936  6.915507            0           0           0  
     10.314544  3.314036  1.156726            0           0           0  
     10.327690  0.321756  5.032762            0           0           0  
      8.951891  7.141992  4.792410            0           0           0  
     10.285571  4.881678  4.872637            0           0           0  
      6.363233  7.072743  5.017812            0           0           0  
      5.037673  0.417039  4.817146            0           0           0  
      5.038367  6.229272  2.999781            0           0           0  
      7.695552  0.412344  4.900922            0           0           0  
      9.047393  1.155673  6.948329            0           0           0  
     10.247626  8.050011  6.741752            0           0           0  
      8.973338  1.033718  1.115123            0           0           0  
     10.337909  8.054459  1.016552            0           0           0  
      5.089242  4.778561  4.970193            0           0           0  
     11.687381  2.602968  4.990862            0           0           0  
     14.270536  8.667885  3.090773            0           0           0  
      9.000236  2.626547  4.883884            0           0           0  
      6.354430  2.616391  4.899082            0           0           0  
     14.291808  8.774341  9.052465            0           0           0  
      3.727527  4.191689  9.069468            0           0           0  
      6.376032  8.795497  9.147236            0           0           0  
     11.672941  4.198098  8.984498            0           0           0  
      9.027506  8.790673  9.010321            0           0           0  
     10.337745  1.913642  9.085101            0           0           0  
      2.422186  1.921355  9.092418            0           0           0  
     11.656003  8.766980  8.889719            0           0           0  
     12.984965  6.492907  8.883141            0           0           0  
      5.062855  1.901016  9.082297            0           0           0  
      7.701984  6.519375  9.293556            0           0           0  
      9.035280  4.174544  9.082915            0           0           0  
      5.026293  6.499161  9.199400            0           0           0  
      7.694859  1.899651  9.056083            0           0           0  
      6.369339  4.149710  9.226663            0           0           0  
     10.359574  6.502810  8.918589            0           0           0  
      6.345014  5.738568 10.238448     0.699603   -0.056644    0.029786  
      9.114976  5.782894 10.111234     0.629656   -0.215259   -0.252303  
 
   5 f  =   17.273857 THz   108.534847 2PiTHz  576.193844 cm-1    71.438957 meV
             X         Y         Z           dx          dy          dz
     13.042333  8.057962  6.787374            0           0           0  
      5.114845  7.997760  7.009362            0           0           0  
      3.886499  5.715219  6.911340            0           0           0  
     13.024706  7.879042  1.000763            0           0           0  
      4.976621  7.880468  1.168907            0           0           0  
      3.738868  5.544192  0.956012            0           0           0  
      7.628890  1.910811  2.979252            0           0           0  
      9.009114  8.706763  2.893340            0           0           0  
      2.458944  3.434362  6.927117            0           0           0  
      2.407761  3.231138  1.075231            0           0           0  
     10.326193  1.796539  3.091534            0           0           0  
     13.059152  4.865781  4.920484            0           0           0  
      3.727246  1.202916  6.929475            0           0           0  
      8.905922  5.719038  6.897803            0           0           0  
      5.106441  3.429257  7.005319            0           0           0  
      3.706944  1.128718  0.971383            0           0           0  
      8.883744  5.736281  0.991643            0           0           0  
      5.000854  3.374065  1.054465            0           0           0  
     11.642972  8.769642  2.889780            0           0           0  
     11.658465  7.219322  4.797263            0           0           0  
     13.039679  6.359002  2.970796            0           0           0  
      8.943817  4.150168  2.941119            0           0           0  
      7.638582  8.000509  6.982088            0           0           0  
      7.508804  8.090212  1.022702            0           0           0  
     10.334622  6.397915  2.825376            0           0           0  
      2.459161  0.294875  4.988312            0           0           0  
      7.708053  3.401300  6.953279            0           0           0  
      7.665170  3.377379  0.973541            0           0           0  
      6.361039  1.238476  6.877533            0           0           0  
      6.351712  1.239972  0.967673            0           0           0  
     11.688207  4.088812  3.039482            0           0           0  
      3.840675  4.087497  2.982300            0           0           0  
      1.121579  1.134996  6.993697            0           0           0  
      1.160695  0.931305  1.265535            0           0           0  
      6.368574  8.574404  3.134353            0           0           0  
      7.619920  4.804550  4.912740            0           0           0  
      5.041730  1.976744  2.965189            0           0           0  
      2.476130  1.815478  3.064992            0           0           0  
     14.339681  7.150417  4.930485            0           0           0  
     11.649042  5.699061  6.755776            0           0           0  
      6.405180  5.668256  7.084457            0           0           0  
     11.778942  5.519919  1.007876            0           0           0  
      6.225915  5.612288  0.923499            0           0           0  
      7.572476  6.328243  2.854803            0           0           0  
      6.251016  4.149414  2.937634            0           0           0  
      3.787455  2.656914  4.909943            0           0           0  
     10.333499  3.399936  6.915507            0           0           0  
     10.314544  3.314036  1.156726            0           0           0  
     10.327690  0.321756  5.032762            0           0           0  
      8.951891  7.141992  4.792410            0           0           0  
     10.285571  4.881678  4.872637            0           0           0  
      6.363233  7.072743  5.017812            0           0           0  
      5.037673  0.417039  4.817146            0           0           0  
      5.038367  6.229272  2.999781            0           0           0  
      7.695552  0.412344  4.900922            0           0           0  
      9.047393  1.155673  6.948329            0           0           0  
     10.247626  8.050011  6.741752            0           0           0  
      8.973338  1.033718  1.115123            0           0           0  
     10.337909  8.054459  1.016552            0           0           0  
      5.089242  4.778561  4.970193            0           0           0  
     11.687381  2.602968  4.990862            0           0           0  
     14.270536  8.667885  3.090773            0           0           0  
      9.000236  2.626547  4.883884            0           0           0  
      6.354430  2.616391  4.899082            0           0           0  
     14.291808  8.774341  9.052465            0           0           0  
      3.727527  4.191689  9.069468            0           0           0  
      6.376032  8.795497  9.147236            0           0           0  
     11.672941  4.198098  8.984498            0           0           0  
      9.027506  8.790673  9.010321            0           0           0  
     10.337745  1.913642  9.085101            0           0           0  
      2.422186  1.921355  9.092418            0           0           0  
     11.656003  8.766980  8.889719            0           0           0  
     12.984965  6.492907  8.883141            0           0           0  
      5.062855  1.901016  9.082297            0           0           0  
      7.701984  6.519375  9.293556            0           0           0  
      9.035280  4.174544  9.082915            0           0           0  
      5.026293  6.499161  9.199400            0           0           0  
      7.694859  1.899651  9.056083            0           0           0  
      6.369339  4.149710  9.226663            0           0           0  
     10.359574  6.502810  8.918589            0           0           0  
      6.345014  5.738568 10.238448     0.049565    0.981954    0.138231  
      9.114976  5.782894 10.111234     0.065296    0.098990    0.011799  
 
   6 f  =   14.191029 THz    89.164862 2PiTHz  473.361746 cm-1    58.689398 meV
             X         Y         Z           dx          dy          dz
     13.042333  8.057962  6.787374            0           0           0  
      5.114845  7.997760  7.009362            0           0           0  
      3.886499  5.715219  6.911340            0           0           0  
     13.024706  7.879042  1.000763            0           0           0  
      4.976621  7.880468  1.168907            0           0           0  
      3.738868  5.544192  0.956012            0           0           0  
      7.628890  1.910811  2.979252            0           0           0  
      9.009114  8.706763  2.893340            0           0           0  
      2.458944  3.434362  6.927117            0           0           0  
      2.407761  3.231138  1.075231            0           0           0  
     10.326193  1.796539  3.091534            0           0           0  
     13.059152  4.865781  4.920484            0           0           0  
      3.727246  1.202916  6.929475            0           0           0  
      8.905922  5.719038  6.897803            0           0           0  
      5.106441  3.429257  7.005319            0           0           0  
      3.706944  1.128718  0.971383            0           0           0  
      8.883744  5.736281  0.991643            0           0           0  
      5.000854  3.374065  1.054465            0           0           0  
     11.642972  8.769642  2.889780            0           0           0  
     11.658465  7.219322  4.797263            0           0           0  
     13.039679  6.359002  2.970796            0           0           0  
      8.943817  4.150168  2.941119            0           0           0  
      7.638582  8.000509  6.982088            0           0           0  
      7.508804  8.090212  1.022702            0           0           0  
     10.334622  6.397915  2.825376            0           0           0  
      2.459161  0.294875  4.988312            0           0           0  
      7.708053  3.401300  6.953279            0           0           0  
      7.665170  3.377379  0.973541            0           0           0  
      6.361039  1.238476  6.877533            0           0           0  
      6.351712  1.239972  0.967673            0           0           0  
     11.688207  4.088812  3.039482            0           0           0  
      3.840675  4.087497  2.982300            0           0           0  
      1.121579  1.134996  6.993697            0           0           0  
      1.160695  0.931305  1.265535            0           0           0  
      6.368574  8.574404  3.134353            0           0           0  
      7.619920  4.804550  4.912740            0           0           0  
      5.041730  1.976744  2.965189            0           0           0  
      2.476130  1.815478  3.064992            0           0           0  
     14.339681  7.150417  4.930485            0           0           0  
     11.649042  5.699061  6.755776            0           0           0  
      6.405180  5.668256  7.084457            0           0           0  
     11.778942  5.519919  1.007876            0           0           0  
      6.225915  5.612288  0.923499            0           0           0  
      7.572476  6.328243  2.854803            0           0           0  
      6.251016  4.149414  2.937634            0           0           0  
      3.787455  2.656914  4.909943            0           0           0  
     10.333499  3.399936  6.915507            0           0           0  
     10.314544  3.314036  1.156726            0           0           0  
     10.327690  0.321756  5.032762            0           0           0  
      8.951891  7.141992  4.792410            0           0           0  
     10.285571  4.881678  4.872637            0           0           0  
      6.363233  7.072743  5.017812            0           0           0  
      5.037673  0.417039  4.817146            0           0           0  
      5.038367  6.229272  2.999781            0           0           0  
      7.695552  0.412344  4.900922            0           0           0  
      9.047393  1.155673  6.948329            0           0           0  
     10.247626  8.050011  6.741752            0           0           0  
      8.973338  1.033718  1.115123            0           0           0  
     10.337909  8.054459  1.016552            0           0           0  
      5.089242  4.778561  4.970193            0           0           0  
     11.687381  2.602968  4.990862            0           0           0  
     14.270536  8.667885  3.090773            0           0           0  
      9.000236  2.626547  4.883884            0           0           0  
      6.354430  2.616391  4.899082            0           0           0  
     14.291808  8.774341  9.052465            0           0           0  
      3.727527  4.191689  9.069468            0           0           0  
      6.376032  8.795497  9.147236            0           0           0  
     11.672941  4.198098  8.984498            0           0           0  
      9.027506  8.790673  9.010321            0           0           0  
     10.337745  1.913642  9.085101            0           0           0  
      2.422186  1.921355  9.092418            0           0           0  
     11.656003  8.766980  8.889719            0           0           0  
     12.984965  6.492907  8.883141            0           0           0  
      5.062855  1.901016  9.082297            0           0           0  
      7.701984  6.519375  9.293556            0           0           0  
      9.035280  4.174544  9.082915            0           0           0  
      5.026293  6.499161  9.199400            0           0           0  
      7.694859  1.899651  9.056083            0           0           0  
      6.369339  4.149710  9.226663            0           0           0  
     10.359574  6.502810  8.918589            0           0           0  
      6.345014  5.738568 10.238448    -0.047534    0.118215    0.000132  
      9.114976  5.782894 10.111234    -0.297589   -0.941052   -0.098119  
 
 Finite differences POTIM=  1.500000000000000E-002
  LATTYP: Found a hexagonal cell.
 ALAT       =    10.5600004196
 C/A-ratio  =     2.0833332505
  
  Lattice vectors:
  
 A1 = (   5.2800002098,  -9.1452286274,   0.0000000000)
 A2 = ( -10.5600004196,   0.0000000000,   0.0000000000)
 A3 = (   0.0000000000,   0.0000000000, -22.0000000000)


Analysis of symmetry for initial positions (statically):
=====================================================================
 Subroutine PRICEL returns:
 Original cell was already a primitive cell.
 

 Routine SETGRP: Setting up the symmetry group for a 
 hexagonal supercell.


 Subroutine GETGRP returns: Found  1 space group operations
 (whereof  1 operations were pure point group operations)
 out of a pool of 24 trial point group operations.


The static configuration has the point symmetry C_1 .


Analysis of symmetry for dynamics (positions and initial velocities):
=====================================================================
 Subroutine PRICEL returns:
 Original cell was already a primitive cell.
 

 Routine SETGRP: Setting up the symmetry group for a 
 hexagonal supercell.


 Subroutine GETGRP returns: Found  1 space group operations
 (whereof  1 operations were pure point group operations)
 out of a pool of 24 trial point group operations.


The dynamic configuration has the point symmetry C_1 .


Analysis of constrained symmetry for selective dynamics:
=====================================================================
 Subroutine PRICEL returns:
 Original cell was already a primitive cell.
 

 Routine SETGRP: Setting up the symmetry group for a 
 hexagonal supercell.


 Subroutine GETGRP returns: Found  1 space group operations
 (whereof  1 operations were pure point group operations)
 out of a pool of 24 trial point group operations.


The constrained configuration has the point symmetry C_1 .


Analysis of structural, dynamic, and magnetic symmetry:
=====================================================================
 Subroutine PRICEL returns:
 Original cell was already a primitive cell.
 

 Routine SETGRP: Setting up the symmetry group for a 
 hexagonal supercell.


 Subroutine GETGRP returns: Found  1 space group operations
 (whereof  1 operations were pure point group operations)
 out of a pool of 24 trial point group operations.


The magnetic configuration has the point symmetry C_1 .


 Subroutine INISYM returns: Found  1 space group operations
 (whereof  1 operations are pure point group operations),
 and found     1 'primitive' translations

 
 KPOINTS: mesh auto                               

Automatic generation of k-mesh.
Space group operators:
 irot       det(A)        alpha          n_x          n_y          n_z        tau_x        tau_y        tau_z
    1     1.000000     0.000001     1.000000     0.000000     0.000000     0.000000     0.000000     0.000000
 
 Subroutine IBZKPT returns following result:
 ===========================================
 
 Found      4 irreducible k-points:
 
 Following reciprocal coordinates:
            Coordinates               Weight
  0.000000  0.000000  0.000000      1.000000
  0.500000  0.000000  0.000000      1.000000
  0.000000  0.500000  0.000000      1.000000
  0.500000  0.500000  0.000000      1.000000
 
 Following cartesian coordinates:
            Coordinates               Weight
  0.000000  0.000000  0.000000      1.000000
  0.047348 -0.027337  0.000000      1.000000
  0.000000  0.054673  0.000000      1.000000
  0.047348  0.027337  0.000000      1.000000
 
 TETIRR: Found     12 inequivalent tetrahedra from       24
     LOOP+:  cpu time 2145.0008: real time 2150.7378
    4ORBIT:  cpu time    0.0000: real time    0.0000
 BZINTS: Fermi energy:  0.892814;674.000000 electrons
         Band energy:***********;  BLOECHL correction: -0.063986

 total amount of memory used by VASP MPI-rank0   371022. kBytes
=======================================================================

   base      :      30000. kBytes
   nonlr-proj:     106526. kBytes
   fftplans  :      13995. kBytes
   grid      :     120016. kBytes
   one-center:       2550. kBytes
   wavefun   :      97935. kBytes
 
  
  
 General timing and accounting informations for this job:
 ========================================================
  
                  Total CPU time used (sec):    28839.771
                            User time (sec):    28747.669
                          System time (sec):       92.103
                         Elapsed time (sec):    28917.822
  
                   Maximum memory used (kb):     1702600.
                   Average memory used (kb):           0.
  
                          Minor page faults:      9453379
                          Major page faults:            0
                 Voluntary context switches:         7254
