 vasp.5.4.4.18Apr17-6-g9f103f2a35 (build Nov 30 2020 22:55:02) complex          
  
 executed on             LinuxIFC date 2023.09.11  09:01:58
 running on   40 total cores
 distrk:  each k-point on   40 cores,    1 groups
 distr:  one band on NCORES_PER_BAND=   1 cores,   40 groups


--------------------------------------------------------------------------------------------------------


 INCAR:
 POTCAR:    PAW_PBE Fe 06Sep2000                  
 POTCAR:    PAW_PBE Pt 04Feb2005                  
 POTCAR:    PAW_PBE H 15Jun2001                   

 ----------------------------------------------------------------------------- 
|                                                                             |
|           W    W    AA    RRRRR   N    N  II  N    N   GGGG   !!!           |
|           W    W   A  A   R    R  NN   N  II  NN   N  G    G  !!!           |
|           W    W  A    A  R    R  N N  N  II  N N  N  G       !!!           |
|           W WW W  AAAAAA  RRRRR   N  N N  II  N  N N  G  GGG   !            |
|           WW  WW  A    A  R   R   N   NN  II  N   NN  G    G                |
|           W    W  A    A  R    R  N    N  II  N    N   GGGG   !!!           |
|                                                                             |
|      For optimal performance we recommend to set                            |
|        NCORE= 4 - approx SQRT( number of cores)                             |
|      NCORE specifies how many cores store one orbital (NPAR=cpu/NCORE).     |
|      This setting can  greatly improve the performance of VASP for DFT.     |
|      The default,   NCORE=1            might be grossly inefficient         |
|      on modern multi-core architectures or massively parallel machines.     |
|      Do your own testing !!!!                                               |
|      Unfortunately you need to use the default for GW and RPA calculations. |
|      (for HF NCORE is supported but not extensively tested yet)             |
|                                                                             |
 ----------------------------------------------------------------------------- 

 POTCAR:    PAW_PBE Fe 06Sep2000                  
   VRHFIN =Fe:  d7 s1                                                           
   LEXCH  = PE                                                                  
   EATOM  =   594.3153 eV,   43.6809 Ry                                         
                                                                                
   TITEL  = PAW_PBE Fe 06Sep2000                                                
   LULTRA =        F    use ultrasoft PP ?                                      
   IUNSCR =        1    unscreen: 0-lin 1-nonlin 2-no                           
   RPACOR =    2.000    partial core radius                                     
   POMASS =   55.847; ZVAL   =    8.000    mass and valenz                      
   RCORE  =    2.300    outmost cutoff radius                                   
   RWIGS  =    2.460; RWIGS  =    1.302    wigner-seitz radius (au A)           
   ENMAX  =  267.882; ENMIN  =  200.911 eV                                      
   RCLOC  =    1.701    cutoff for local pot                                    
   LCOR   =        T    correct aug charges                                     
   LPAW   =        T    paw PP                                                  
   EAUG   =  511.368                                                            
   DEXC   =    0.000                                                            
   RMAX   =    2.356    core radius for proj-oper                               
   RAUG   =    1.300    factor for augmentation sphere                          
   RDEP   =    2.442    radius for radial grids                                 
   RDEPT  =    1.890    core radius for aug-charge                              
                                                                                
   Atomic configuration                                                         
    9 entries                                                                   
     n  l   j            E        occ.                                          
     1  0  0.50     -6993.8440   2.0000                                         
     2  0  0.50      -814.6047   2.0000                                         
     2  1  1.50      -693.3689   6.0000                                         
     3  0  0.50       -89.4732   2.0000                                         
     3  1  1.50       -55.6373   6.0000                                         
     3  2  2.50        -3.8151   7.0000                                         
     4  0  0.50        -4.2551   1.0000                                         
     4  1  1.50        -3.4015   0.0000                                         
     4  3  2.50        -1.3606   0.0000                                         
   Description                                                                  
     l       E           TYP  RCUT    TYP  RCUT                                 
     2     -3.8151135     23  2.300                                             
     2     -5.1756961     23  2.300                                             
     0     -4.2550963     23  2.300                                             
     0      7.2035603     23  2.300                                             
     1     -2.7211652     23  2.300                                             
     1     18.4316424     23  2.300                                             
  local pseudopotential read in
  partial core-charges read in
  partial kinetic energy density read in
  atomic valenz-charges read in
  non local Contribution for L=           2  read in
    real space projection operators read in
  non local Contribution for L=           2  read in
    real space projection operators read in
  non local Contribution for L=           0  read in
    real space projection operators read in
  non local Contribution for L=           0  read in
    real space projection operators read in
  non local Contribution for L=           1  read in
    real space projection operators read in
  non local Contribution for L=           1  read in
    real space projection operators read in
    PAW grid and wavefunctions read in
 
   number of l-projection  operators is LMAX  =           6
   number of lm-projection operators is LMMAX =          18
 
 POTCAR:    PAW_PBE Pt 04Feb2005                  
   VRHFIN =Pt: s1d9                                                             
   LEXCH  = PE                                                                  
   EATOM  =   729.1176 eV,   53.5886 Ry                                         
                                                                                
   TITEL  = PAW_PBE Pt 04Feb2005                                                
   LULTRA =        F    use ultrasoft PP ?                                      
   IUNSCR =        1    unscreen: 0-lin 1-nonlin 2-no                           
   RPACOR =    2.330    partial core radius                                     
   POMASS =  195.080; ZVAL   =   10.000    mass and valenz                      
   RCORE  =    2.600    outmost cutoff radius                                   
   RWIGS  =    2.750; RWIGS  =    1.455    wigner-seitz radius (au A)           
   ENMAX  =  230.283; ENMIN  =  172.712 eV                                      
   ICORE  =        3    local potential                                         
   LCOR   =        T    correct aug charges                                     
   LPAW   =        T    paw PP                                                  
   EAUG   =  358.966                                                            
   DEXC   =    0.000                                                            
   RMAX   =    2.658    core radius for proj-oper                               
   RAUG   =    1.300    factor for augmentation sphere                          
   RDEP   =    2.761    radius for radial grids                                 
   RDEPT  =    2.203    core radius for aug-charge                              
                                                                                
   Atomic configuration                                                         
   16 entries                                                                   
     n  l   j            E        occ.                                          
     1  0  0.50    -78401.1885   2.0000                                         
     2  0  0.50    -13770.7750   2.0000                                         
     2  1  1.50    -11931.0468   6.0000                                         
     3  0  0.50     -3234.7234   2.0000                                         
     3  1  1.50     -2699.2216   6.0000                                         
     3  2  2.50     -2119.5714  10.0000                                         
     4  0  0.50      -695.1528   2.0000                                         
     4  1  1.50      -519.6034   6.0000                                         
     4  2  2.50      -306.6786  10.0000                                         
     4  3  3.50       -70.1041  14.0000                                         
     5  0  0.50      -101.7747   2.0000                                         
     5  1  1.50       -55.9873   6.0000                                         
     5  2  2.50        -6.1423   9.0000                                         
     6  0  0.50        -5.6573   1.0000                                         
     6  1  1.50        -6.8029   0.0000                                         
     5  3  2.50        -1.3606   0.0000                                         
   Description                                                                  
     l       E           TYP  RCUT    TYP  RCUT                                 
     2     -6.1423404     23  2.500                                             
     2     -7.5029230     23  2.500                                             
     0     -5.6573207     23  2.500                                             
     0      0.7416693     23  2.500                                             
     1     -2.7211652     23  2.600                                             
     1     20.4087390     23  2.600                                             
     3     -1.3605826     23  2.500                                             
  local pseudopotential read in
  partial core-charges read in
  partial kinetic energy density read in
  atomic valenz-charges read in
  non local Contribution for L=           2  read in
    real space projection operators read in
  non local Contribution for L=           2  read in
    real space projection operators read in
  non local Contribution for L=           0  read in
    real space projection operators read in
  non local Contribution for L=           0  read in
    real space projection operators read in
  non local Contribution for L=           1  read in
    real space projection operators read in
  non local Contribution for L=           1  read in
    real space projection operators read in
    PAW grid and wavefunctions read in
 
   number of l-projection  operators is LMAX  =           6
   number of lm-projection operators is LMMAX =          18
 
 POTCAR:    PAW_PBE H 15Jun2001                   
   VRHFIN =H: ultrasoft test                                                    
   LEXCH  = PE                                                                  
   EATOM  =    12.4884 eV,    0.9179 Ry                                         
                                                                                
   TITEL  = PAW_PBE H 15Jun2001                                                 
   LULTRA =        F    use ultrasoft PP ?                                      
   IUNSCR =        0    unscreen: 0-lin 1-nonlin 2-no                           
   RPACOR =    0.000    partial core radius                                     
   POMASS =    1.000; ZVAL   =    1.000    mass and valenz                      
   RCORE  =    1.100    outmost cutoff radius                                   
   RWIGS  =    0.700; RWIGS  =    0.370    wigner-seitz radius (au A)           
   ENMAX  =  250.000; ENMIN  =  200.000 eV                                      
   RCLOC  =    0.701    cutoff for local pot                                    
   LCOR   =        T    correct aug charges                                     
   LPAW   =        T    paw PP                                                  
   EAUG   =  400.000                                                            
   RMAX   =    1.123    core radius for proj-oper                               
   RAUG   =    1.200    factor for augmentation sphere                          
   RDEP   =    1.112    radius for radial grids                                 
   RDEPT  =    0.926    core radius for aug-charge                              
                                                                                
   Atomic configuration                                                         
    2 entries                                                                   
     n  l   j            E        occ.                                          
     1  0  0.50        -6.4927   1.0000                                         
     2  1  0.50        -3.4015   0.0000                                         
   Description                                                                  
     l       E           TYP  RCUT    TYP  RCUT                                 
     0     -6.4927494     23  1.100                                             
     0      6.8029130     23  1.100                                             
     1     -4.0817478     23  1.100                                             
  local pseudopotential read in
  atomic valenz-charges read in
  non local Contribution for L=           0  read in
    real space projection operators read in
  non local Contribution for L=           0  read in
    real space projection operators read in
  non local Contribution for L=           1  read in
    real space projection operators read in
    PAW grid and wavefunctions read in
 
   number of l-projection  operators is LMAX  =           3
   number of lm-projection operators is LMMAX =           5
 
 Optimization of the real space projectors (new method)

 maximal supplied QI-value         = 16.25
 optimisation between [QCUT,QGAM] = [ 11.86, 23.89] = [ 39.41,159.82] Ry 
 Optimized for a Real-space Cutoff    1.49 Angstroem

   l    n(q)    QCUT    max X(q) W(low)/X(q) W(high)/X(q)  e(spline) 
   2     10    11.864    80.901    0.13E-03    0.23E-03    0.37E-06
   2     10    11.864    75.754    0.13E-03    0.23E-03    0.38E-06
   0     11    11.864    58.752    0.44E-04    0.11E-04    0.20E-06
   0     11    11.864    30.679    0.36E-04    0.10E-04    0.18E-06
   1     10    11.864    17.977    0.31E-04    0.45E-04    0.10E-06
   1     10    11.864    13.559    0.25E-04    0.37E-04    0.89E-07
 Optimization of the real space projectors (new method)

 maximal supplied QI-value         = 14.36
 optimisation between [QCUT,QGAM] = [ 11.92, 23.98] = [ 39.79,161.09] Ry 
 Optimized for a Real-space Cutoff    1.49 Angstroem

   l    n(q)    QCUT    max X(q) W(low)/X(q) W(high)/X(q)  e(spline) 
   2     10    11.920    66.195    0.79E-04    0.18E-03    0.24E-06
   2     10    11.920    64.643    0.81E-04    0.19E-03    0.24E-06
   0     11    11.920    95.520    0.28E-04    0.54E-04    0.18E-06
   0     11    11.920    63.403    0.27E-04    0.52E-04    0.17E-06
   1     10    11.920    19.961    0.18E-04    0.11E-03    0.23E-06
   1     10    11.920    13.289    0.25E-04    0.87E-04    0.19E-06
 Optimization of the real space projectors (new method)

 maximal supplied QI-value         = 34.20
 optimisation between [QCUT,QGAM] = [ 11.97, 23.94] = [ 40.13,160.53] Ry 
 Optimized for a Real-space Cutoff    1.18 Angstroem

   l    n(q)    QCUT    max X(q) W(low)/X(q) W(high)/X(q)  e(spline) 
   0      8    11.971    19.460    0.15E-03    0.31E-03    0.25E-06
   0      8    11.971    12.209    0.13E-03    0.29E-03    0.25E-06
   1      8    11.971     4.655    0.22E-03    0.24E-03    0.21E-06
  PAW_PBE Fe 06Sep2000                  :
 energy of atom  1       EATOM= -594.3153
 kinetic energy error for atom=    0.0024 (will be added to EATOM!!)
  PAW_PBE Pt 04Feb2005                  :
 energy of atom  2       EATOM= -729.1176
 kinetic energy error for atom=    0.0021 (will be added to EATOM!!)
  PAW_PBE H 15Jun2001                   :
 energy of atom  3       EATOM=  -12.4884
 kinetic energy error for atom=    0.0008 (will be added to EATOM!!)
 
 
 POSCAR: PtM\(2)                                 
  positions in cartesian coordinates
  No initial velocities read in
 exchange correlation table for  LEXCH =        8
   RHO(1)=    0.500       N(1)  =     2000
   RHO(2)=  100.500       N(2)  =     4000
 


--------------------------------------------------------------------------------------------------------


 ion  position               nearest neighbor table
   1  0.776  0.872  0.311-  55 2.47  20 2.51  39 2.54  72 2.61  40 2.63  29 2.65  73 2.66   2 2.68
                            65 2.68   3 2.69  56 2.69  57 2.74
   2  0.030  0.870  0.317-  49 2.43  39 2.45  23 2.54  65 2.59  67 2.61  52 2.61  77 2.62  41 2.64
                             3 2.65  56 2.66   1 2.68  33 2.74
   3  0.030  0.618  0.316-  39 2.47  12 2.48  60 2.58  73 2.59  41 2.60   9 2.60  15 2.63  66 2.63
                            77 2.64   2 2.65  40 2.65   1 2.69
   4  0.803  0.862  0.045-  21 2.49  19 2.50   5 2.52  62 2.56  58 2.61   6 2.66  42 2.67  59 2.69
                            30 2.87
   5  0.040  0.862  0.053-  62 2.43  54 2.47  35 2.51   4 2.52  24 2.55  43 2.60  58 2.63  34 2.64
                             6 2.65
   6  0.051  0.606  0.043-  43 2.49  32 2.50  21 2.51  18 2.51  54 2.52  42 2.52   5 2.65   4 2.66
                            10 2.67
   7  0.618  0.209  0.135-  63 2.45  58 2.46  55 2.47  30 2.48  28 2.48  64 2.53  37 2.59  22 2.60
                            19 2.61  45 2.63  11 2.70  62 2.75
   8  0.377  0.952  0.132-  59 2.39  50 2.46  24 2.48  16 2.48  53 2.50  26 2.58  38 2.58  19 2.63
                            35 2.65  25 2.66  37 2.75  44 2.78
   9  0.033  0.370  0.317-  61 2.46  12 2.51  13 2.56  33 2.57  68 2.60   3 2.60  46 2.61  71 2.61
                            15 2.62  66 2.62  47 2.65  40 2.69
  10  0.051  0.353  0.049-  38 2.44  16 2.47  31 2.50  32 2.53  42 2.58  18 2.60  34 2.62  48 2.66
                             6 2.67
  11  0.880  0.196  0.141-  61 2.44  34 2.46  48 2.46  49 2.47  63 2.47  58 2.51  62 2.64  31 2.67
                             7 2.70  38 2.71  35 2.71  22 2.73
  12  0.961  0.530  0.224-  31 2.40  21 2.48   3 2.48   9 2.51  40 2.54  32 2.55  46 2.58  60 2.59
                            61 2.63  39 2.64  20 2.68  51 2.69
  13  0.276  0.128  0.316-  26 2.44  46 2.52  33 2.56   9 2.56  57 2.59  15 2.60  69 2.61  74 2.61
                            71 2.63  53 2.64  29 2.64  23 2.71
  14  0.520  0.620  0.310-  36 2.44  50 2.51  41 2.59  27 2.60  51 2.61  80 2.64  76 2.66  75 2.67
                            23 2.69  57 2.69  47 2.70  40 2.73
  15  0.281  0.371  0.317-  60 2.46  46 2.49  64 2.53  41 2.57  13 2.60  29 2.60  27 2.60  74 2.62
                             9 2.62  79 2.63   3 2.63  66 2.65
  16  0.289  0.123  0.044-  10 2.47   8 2.48  38 2.52  37 2.54  34 2.57  18 2.59  59 2.60  24 2.64
                            30 2.65
  17  0.528  0.627  0.045-  44 2.35  25 2.43  22 2.51  28 2.66  43 2.66  24 2.73  59 2.74  48 2.82
                            42 2.90
  18  0.289  0.369  0.048-  32 2.36  37 2.37  45 2.39   6 2.51  30 2.53  43 2.55  16 2.59  10 2.60
                            28 2.67
  19  0.623  0.959  0.131-  59 2.39  55 2.50  20 2.50   4 2.50  30 2.51  53 2.52   7 2.61   8 2.63
                            62 2.64  37 2.70  25 2.71  21 2.79
  20  0.705  0.783  0.218-  25 2.46  21 2.47  19 2.50   1 2.51  40 2.52  57 2.66  50 2.66  51 2.67
                            12 2.68  55 2.71  53 2.72  39 2.72
  21  0.887  0.695  0.135-  20 2.47  12 2.48  42 2.48   4 2.49  39 2.49   6 2.51  54 2.56  62 2.62
                            31 2.64  32 2.65  25 2.71  19 2.79
  22  0.620  0.454  0.134-  48 2.40  51 2.42  36 2.46  28 2.47  63 2.48  17 2.51  44 2.58   7 2.60
                            25 2.65  45 2.69  11 2.73  31 2.75
  23  0.268  0.875  0.314-  52 2.42  26 2.42   2 2.54  33 2.57  67 2.61  57 2.61  69 2.64  75 2.64
                            14 2.69  41 2.69  13 2.71  50 2.74
  24  0.269  0.885  0.046-  34 2.27  35 2.45   8 2.48  44 2.54   5 2.55  16 2.64  17 2.73  43 2.79
                            59 2.83
  25  0.629  0.700  0.128-  17 2.43  59 2.45  20 2.46  42 2.48  50 2.52  51 2.55  22 2.65   8 2.66
                            31 2.69  21 2.71  19 2.71  44 2.76
  26  0.212  0.033  0.227-  23 2.42  13 2.44  35 2.45  38 2.45  33 2.49   8 2.58  53 2.60  50 2.63
                            49 2.64  61 2.67  46 2.69  52 2.76
  27  0.528  0.370  0.315-  36 2.51  63 2.54  64 2.54  29 2.58  76 2.59  14 2.60  15 2.60  78 2.61
                            41 2.63  56 2.64  79 2.68  47 2.69
  28  0.541  0.369  0.044-  22 2.47   7 2.48  30 2.51  45 2.54  17 2.66  48 2.66  43 2.66  18 2.67
                            58 2.69
  29  0.527  0.126  0.314-  53 2.49  55 2.55  64 2.55  27 2.58  72 2.59  15 2.60  78 2.62  13 2.64
                             1 2.65  74 2.67  56 2.67  57 2.70
  30  0.534  0.136  0.044-   7 2.48  37 2.50  28 2.51  19 2.51  18 2.53  58 2.63  16 2.65  59 2.67
                             4 2.87
  31  0.883  0.447  0.138-  12 2.40  51 2.42  48 2.46  61 2.47  42 2.49  10 2.50  21 2.64  38 2.64
                            11 2.67  25 2.69  32 2.71  22 2.75
  32  0.140  0.447  0.136-  18 2.36  60 2.39  46 2.41  45 2.41  37 2.43  54 2.45   6 2.50  10 2.53
                            12 2.55  21 2.65  38 2.65  31 2.71
  33  0.034  0.127  0.313-  61 2.35  49 2.38  26 2.49  13 2.56  23 2.57   9 2.57  47 2.62  71 2.64
                            70 2.68  56 2.68  67 2.71   2 2.74
  34  0.059  0.102  0.058-  24 2.27  38 2.40  35 2.40  11 2.46  16 2.57  10 2.62   5 2.64  58 2.75
                            48 2.77
  35  0.134  0.938  0.142-  34 2.40  52 2.40  26 2.45  24 2.45  49 2.48   5 2.51  44 2.56   8 2.65
                            62 2.66  54 2.70  11 2.71  38 2.76
  36  0.453  0.527  0.222-  14 2.44  45 2.44  22 2.46  27 2.51  44 2.52  64 2.53  63 2.54  52 2.55
                            60 2.59  41 2.65  50 2.67  51 2.69
  37  0.369  0.216  0.135-  64 2.35  18 2.37  32 2.43  46 2.44  53 2.47  45 2.49  30 2.50  16 2.54
                            38 2.57   7 2.59  19 2.70   8 2.75
  38  0.135  0.199  0.139-  46 2.39  34 2.40  10 2.44  26 2.45  16 2.52  61 2.54  37 2.57   8 2.58
                            31 2.64  32 2.65  11 2.71  35 2.76
  39  0.965  0.779  0.226-  62 2.44   2 2.45   3 2.47  21 2.49  54 2.53   1 2.54  52 2.61  60 2.63
                            12 2.64  49 2.67  20 2.72  55 2.78
  40  0.777  0.622  0.311-  51 2.50  20 2.52  12 2.54  80 2.58  47 2.63   1 2.63  73 2.65   3 2.65
                            68 2.66   9 2.69  14 2.73  57 2.74
  41  0.277  0.616  0.317-  52 2.45  60 2.50  15 2.57  14 2.59   3 2.60  75 2.60  79 2.61  27 2.63
                            77 2.63   2 2.64  36 2.65  23 2.69
  42  0.814  0.604  0.046-  21 2.48  25 2.48  31 2.49   6 2.52  10 2.58  48 2.65   4 2.67  17 2.90
                            59 2.92
  43  0.283  0.614  0.042-  44 2.46  54 2.47   6 2.49  45 2.49  18 2.55   5 2.60  28 2.66  17 2.66
                            24 2.79
  44  0.371  0.692  0.130-  17 2.35  43 2.46  50 2.48  36 2.52  54 2.54  24 2.54  45 2.55  35 2.56
                            52 2.57  22 2.58  25 2.76   8 2.78
  45  0.365  0.454  0.134-  18 2.39  54 2.41  32 2.41  64 2.42  36 2.44  60 2.47  37 2.49  43 2.49
                            28 2.54  44 2.55   7 2.63  22 2.69
  46  0.209  0.290  0.223-  38 2.39  32 2.41  64 2.44  37 2.44  60 2.48  15 2.49  13 2.52  12 2.58
                            53 2.58   9 2.61  61 2.69  26 2.69
  47  0.782  0.371  0.313-  61 2.47  63 2.47  51 2.51  56 2.61  68 2.61  33 2.62  70 2.63  40 2.63
                            76 2.64   9 2.65  27 2.69  14 2.70
  48  0.796  0.362  0.053-  22 2.40  31 2.46  11 2.46  58 2.65  42 2.65  10 2.66  28 2.66  34 2.77
                            17 2.82
  49  0.963  0.032  0.229-  33 2.38   2 2.43  11 2.47  35 2.48  56 2.49  62 2.50  61 2.63  26 2.64
                            39 2.67  52 2.71  55 2.72  63 2.77
  50  0.455  0.779  0.217-   8 2.46  57 2.48  44 2.48  14 2.51  25 2.52  52 2.59  26 2.63  51 2.65
                            20 2.66  36 2.67  23 2.74  53 2.78
  51  0.707  0.530  0.220-  22 2.42  31 2.42  40 2.50  47 2.51  25 2.55  63 2.56  14 2.61  61 2.63
                            50 2.65  20 2.67  36 2.69  12 2.69
  52  0.215  0.771  0.227-  35 2.40  23 2.42  41 2.45  54 2.51  36 2.55  44 2.57  50 2.59  39 2.61
                             2 2.61  60 2.63  49 2.71  26 2.76
  53  0.452  0.044  0.221-  37 2.47  57 2.47  29 2.49   8 2.50  19 2.52  64 2.58  46 2.58  26 2.60
                            55 2.61  13 2.64  20 2.72  50 2.78
  54  0.137  0.681  0.136-  45 2.41  60 2.43  32 2.45   5 2.47  43 2.47  52 2.51   6 2.52  39 2.53
                            44 2.54  21 2.56  35 2.70  62 2.78
  55  0.701  0.041  0.223-  62 2.43   7 2.47   1 2.47  56 2.49  19 2.50  29 2.55  53 2.61  63 2.62
                            20 2.71  49 2.72  64 2.75  39 2.78
  56  0.781  0.125  0.314-  55 2.49  49 2.49  63 2.50  70 2.59  47 2.61  65 2.64  27 2.64  78 2.65
                             2 2.66  29 2.67  33 2.68   1 2.69
  57  0.514  0.877  0.309-  53 2.47  50 2.48  13 2.59  23 2.61  80 2.64  69 2.64  20 2.66  14 2.69
                            72 2.69  29 2.70   1 2.74  40 2.74
  58  0.793  0.113  0.051-   7 2.46  62 2.49  11 2.51   4 2.61   5 2.63  30 2.63  48 2.65  28 2.69
                            34 2.75
  59  0.539  0.881  0.046-   8 2.39  19 2.39  25 2.45  16 2.60  30 2.67   4 2.69  17 2.74  24 2.83
                            42 2.92
  60  0.209  0.525  0.225-  32 2.39  64 2.41  54 2.43  15 2.46  45 2.47  46 2.48  41 2.50   3 2.58
                            12 2.59  36 2.59  52 2.63  39 2.63
  61  0.957  0.284  0.228-  33 2.35  11 2.44   9 2.46  47 2.47  31 2.47  38 2.54  12 2.63  49 2.63
                            51 2.63  26 2.67  46 2.69  63 2.69
  62  0.877  0.948  0.140-  55 2.43   5 2.43  39 2.44  58 2.49  49 2.50   4 2.56  21 2.62  11 2.64
                            19 2.64  35 2.66   7 2.75  54 2.78
  63  0.699  0.291  0.224-   7 2.45  11 2.47  47 2.47  22 2.48  56 2.50  36 2.54  27 2.54  51 2.56
                            55 2.62  61 2.69  64 2.74  49 2.77
  64  0.436  0.297  0.222-  37 2.35  60 2.41  45 2.42  46 2.44   7 2.53  15 2.53  36 2.53  27 2.54
                            29 2.55  53 2.58  63 2.74  55 2.75
  65  0.859  0.955  0.411-   2 2.59  78 2.63  56 2.64  73 2.64  72 2.64  77 2.65  67 2.65  70 2.65
                             1 2.68
  66  0.111  0.456  0.415-   9 2.62  77 2.63   3 2.63  68 2.64  79 2.64  71 2.64  73 2.65  15 2.65
                            74 2.65
  67  0.110  0.956  0.413-   2 2.61  23 2.61  70 2.63  71 2.64  69 2.64  75 2.64  65 2.65  77 2.65
                            33 2.71
  68  0.861  0.456  0.411-   9 2.60  47 2.61  73 2.63  66 2.64  76 2.65  71 2.65  70 2.65  80 2.65
                            40 2.66
  69  0.360  0.956  0.411-  13 2.61  72 2.63  80 2.63  71 2.64  67 2.64  75 2.64  74 2.64  23 2.64
                            57 2.64
  70  0.862  0.205  0.411-  56 2.59  47 2.63  67 2.63  71 2.63  78 2.64  68 2.65  76 2.65  65 2.65
                            33 2.68
  71  0.111  0.205  0.414-   9 2.61  13 2.63  70 2.63  69 2.64  33 2.64  67 2.64  66 2.64  68 2.65
                            74 2.65
  72  0.609  0.955  0.408-  29 2.59   1 2.61  74 2.63  80 2.63  69 2.63  73 2.64  65 2.64  78 2.66
                            57 2.69
  73  0.860  0.706  0.410-   3 2.59  68 2.63  65 2.64  72 2.64  77 2.64  80 2.65  66 2.65  40 2.65
                             1 2.66
  74  0.362  0.204  0.414-  13 2.61  15 2.62  72 2.63  79 2.64  78 2.64  69 2.64  71 2.65  66 2.65
                            29 2.67
  75  0.360  0.705  0.411-  41 2.60  80 2.63  76 2.64  69 2.64  23 2.64  67 2.64  79 2.64  77 2.64
                            14 2.67
  76  0.610  0.456  0.410-  27 2.59  79 2.64  80 2.64  75 2.64  78 2.64  47 2.64  68 2.65  70 2.65
                            14 2.66
  77  0.110  0.705  0.414-   2 2.62  41 2.63  66 2.63   3 2.64  73 2.64  75 2.64  65 2.65  67 2.65
                            79 2.65
  78  0.612  0.205  0.412-  27 2.61  29 2.62  65 2.63  79 2.64  74 2.64  76 2.64  70 2.64  56 2.65
                            72 2.66
  79  0.362  0.454  0.415-  41 2.61  15 2.63  78 2.64  74 2.64  76 2.64  66 2.64  75 2.64  77 2.65
                            27 2.68
  80  0.609  0.706  0.405-  40 2.58  72 2.63  69 2.63  75 2.63  76 2.64  57 2.64  14 2.64  73 2.65
                            68 2.65
  81  0.474  0.556  0.548-  82 0.75
  82  0.517  0.596  0.548-  81 0.75
 
  LATTYP: Found a hexagonal cell.
 ALAT       =    10.5600004196
 C/A-ratio  =     2.0833332505
  
  Lattice vectors:
  
 A1 = (   5.2800002098,  -9.1452286274,   0.0000000000)
 A2 = ( -10.5600004196,   0.0000000000,   0.0000000000)
 A3 = (   0.0000000000,   0.0000000000, -22.0000000000)


Analysis of symmetry for initial positions (statically):
=====================================================================
 Subroutine PRICEL returns:
 Original cell was already a primitive cell.
 

 Routine SETGRP: Setting up the symmetry group for a 
 hexagonal supercell.


 Subroutine GETGRP returns: Found  1 space group operations
 (whereof  1 operations were pure point group operations)
 out of a pool of 24 trial point group operations.


The static configuration has the point symmetry C_1 .


Analysis of symmetry for dynamics (positions and initial velocities):
=====================================================================
 Subroutine PRICEL returns:
 Original cell was already a primitive cell.
 

 Routine SETGRP: Setting up the symmetry group for a 
 hexagonal supercell.


 Subroutine GETGRP returns: Found  1 space group operations
 (whereof  1 operations were pure point group operations)
 out of a pool of 24 trial point group operations.


The dynamic configuration has the point symmetry C_1 .


Analysis of constrained symmetry for selective dynamics:
=====================================================================
 Subroutine PRICEL returns:
 Original cell was already a primitive cell.
 

 Routine SETGRP: Setting up the symmetry group for a 
 hexagonal supercell.


 Subroutine GETGRP returns: Found  1 space group operations
 (whereof  1 operations were pure point group operations)
 out of a pool of 24 trial point group operations.


The constrained configuration has the point symmetry C_1 .


Analysis of structural, dynamic, and magnetic symmetry:
=====================================================================
 Subroutine PRICEL returns:
 Original cell was already a primitive cell.
 

 Routine SETGRP: Setting up the symmetry group for a 
 hexagonal supercell.


 Subroutine GETGRP returns: Found  1 space group operations
 (whereof  1 operations were pure point group operations)
 out of a pool of 24 trial point group operations.


The magnetic configuration has the point symmetry C_1 .


 Subroutine INISYM returns: Found  1 space group operations
 (whereof  1 operations are pure point group operations),
 and found     1 'primitive' translations

 
 
 KPOINTS: mesh auto                               

Automatic generation of k-mesh.
Space group operators:
 irot       det(A)        alpha          n_x          n_y          n_z        tau_x        tau_y        tau_z
    1     1.000000     0.000001     1.000000     0.000000     0.000000     0.000000     0.000000     0.000000
 
 Subroutine IBZKPT returns following result:
 ===========================================
 
 Found      4 irreducible k-points:
 
 Following reciprocal coordinates:
            Coordinates               Weight
  0.000000  0.000000  0.000000      1.000000
  0.500000  0.000000  0.000000      1.000000
  0.000000  0.500000  0.000000      1.000000
  0.500000  0.500000  0.000000      1.000000
 
 Following cartesian coordinates:
            Coordinates               Weight
  0.000000  0.000000  0.000000      1.000000
  0.047348 -0.027337  0.000000      1.000000
  0.000000  0.054673  0.000000      1.000000
  0.047348  0.027337  0.000000      1.000000
 
 TETIRR: Found     12 inequivalent tetrahedra from       24
 
 Subroutine IBZKPT_HF returns following result:
 ==============================================
 
 Found      4 k-points in 1st BZ
 the following      4 k-points will be used (e.g. in the exchange kernel)
 Following reciprocal coordinates:   # in IRBZ
  0.000000  0.000000  0.000000    0.25000000   1 t-inv F
  0.500000  0.000000  0.000000    0.25000000   2 t-inv F
  0.000000  0.500000  0.000000    0.25000000   3 t-inv F
  0.500000  0.500000  0.000000    0.25000000   4 t-inv F


--------------------------------------------------------------------------------------------------------




 Dimension of arrays:
   k-points           NKPTS =      4   k-points in BZ     NKDIM =      4   number of bands    NBANDS=    480
   number of dos      NEDOS =    301   number of ions     NIONS =     82
   non local maximal  LDIM  =      6   non local SUM 2l+1 LMDIM =     18
   total plane-waves  NPLWV = ******
   max r-space proj   IRMAX =   7802   max aug-charges    IRDMAX=  33988
   dimension x,y,z NGX =    84 NGY =   84 NGZ =  168
   dimension x,y,z NGXF=   168 NGYF=  168 NGZF=  336
   support grid    NGXF=   168 NGYF=  168 NGZF=  336
   ions per type =              64  16   2
   NGX,Y,Z   is equivalent  to a cutoff of  13.22, 13.22, 12.70 a.u.
   NGXF,Y,Z  is equivalent  to a cutoff of  26.45, 26.45, 25.39 a.u.

 SYSTEM =  Pt111                                   
 POSCAR =  PtM\(2)                                 

 Startparameter for this run:
   NWRITE =      2    write-flag & timer
   PREC   = accura    normal or accurate (medium, high low for compatibility)
   ISTART =      0    job   : 0-new  1-cont  2-samecut
   ICHARG =      2    charge: 1-file 2-atom 10-const
   ISPIN  =      2    spin polarized calculation?
   LNONCOLLINEAR =      F non collinear calculations
   LSORBIT =      F    spin-orbit coupling
   INIWAV =      1    electr: 0-lowe 1-rand  2-diag
   LASPH  =      F    aspherical Exc in radial PAW
   METAGGA=      F    non-selfconsistent MetaGGA calc.

 Electronic Relaxation 1
   ENCUT  =  550.0 eV  40.42 Ry    6.36 a.u.  20.19 20.19 42.07*2*pi/ulx,y,z
   ENINI  =  550.0     initial cutoff
   ENAUG  =  511.4 eV  augmentation charge cutoff
   NELM   =    200;   NELMIN=  2; NELMDL= -5     # of ELM steps 
   EDIFF  = 0.1E-04   stopping-criterion for ELM
   LREAL  =      T    real-space projection
   NLSPLINE    = F    spline interpolate recip. space projectors
   LCOMPAT=      F    compatible to vasp.4.4
   GGA_COMPAT  = T    GGA compatible to vasp.4.4-vasp.4.6
   LMAXPAW     = -100 max onsite density
   LMAXMIX     =    2 max onsite mixed and CHGCAR
   VOSKOWN=      0    Vosko Wilk Nusair interpolation
   ROPT   =   -0.00025  -0.00025  -0.00025
 Ionic relaxation
   EDIFFG = -.5E-01   stopping-criterion for IOM
   NSW    =   1021    number of steps for IOM
   NBLOCK =      1;   KBLOCK =   1021    inner block; outer block 
   IBRION =      5    ionic relax: 0-MD 1-quasi-New 2-CG
   NFREE  =      2    steps in history (QN), initial steepest desc. (CG)
   ISIF   =      2    stress and relaxation
   IWAVPR =     11    prediction:  0-non 1-charg 2-wave 3-comb
   ISYM   =      2    0-nonsym 1-usesym 2-fastsym
   LCORR  =      T    Harris-Foulkes like correction to forces

   POTIM  = 0.5000    time-step for ionic-motion
   TEIN   =    0.0    initial temperature
   TEBEG  =    0.0;   TEEND  =   0.0 temperature during run
   SMASS  =  -3.00    Nose mass-parameter (am)
   estimated Nose-frequenzy (Omega)   =  0.10E-29 period in steps =****** mass=  -0.255E-26a.u.
   SCALEE = 1.0000    scale energy and forces
   NPACO  =    256;   APACO  = 16.0  distance and # of slots for P.C.
   PSTRESS=    0.0 pullay stress

  Mass of Ions in am
   POMASS =  55.85195.08  1.00
  Ionic Valenz
   ZVAL   =   8.00 10.00  1.00
  Atomic Wigner-Seitz radii
   RWIGS  =  -1.00 -1.00 -1.00
  virtual crystal weights 
   VCA    =   1.00  1.00  1.00
   NELECT =     674.0000    total number of electrons
   NUPDOWN=      -1.0000    fix difference up-down

 DOS related values:
   EMIN   =  10.00;   EMAX   =-10.00  energy-range for DOS
   EFERMI =   0.00
   ISMEAR =    -5;   SIGMA  =   0.10  broadening in eV -4-tet -1-fermi 0-gaus

 Electronic relaxation 2 (details)
   IALGO  =     68    algorithm
   LDIAG  =      T    sub-space diagonalisation (order eigenvalues)
   LSUBROT=      F    optimize rotation matrix (better conditioning)
   TURBO    =      0    0=normal 1=particle mesh
   IRESTART =      0    0=no restart 2=restart with 2 vectors
   NREBOOT  =      0    no. of reboots
   NMIN     =      0    reboot dimension
   EREF     =   0.00    reference energy to select bands
   IMIX   =      4    mixing-type and parameters
     AMIX     =   0.40;   BMIX     =  1.00
     AMIX_MAG =   1.60;   BMIX_MAG =  1.00
     AMIN     =   0.10
     WC   =   100.;   INIMIX=   1;  MIXPRE=   1;  MAXMIX= -45

 Intra band minimization:
   WEIMIN = 0.0010     energy-eigenvalue tresh-hold
   EBREAK =  0.52E-08  absolut break condition
   DEPER  =   0.30     relativ break condition  

   TIME   =   0.40     timestep for ELM

  volume/ion in A,a.u.               =      25.91       174.85
  Fermi-wavevector in a.u.,A,eV,Ry     =   1.116523  2.109923 16.961349  1.246624
  Thomas-Fermi vector in A             =   2.253138
 
 Write flags
   LWAVE        =      F    write WAVECAR
   LDOWNSAMPLE  =      F    k-point downsampling of WAVECAR
   LCHARG       =      F    write CHGCAR
   LVTOT        =      F    write LOCPOT, total local potential
   LVHAR        =      F    write LOCPOT, Hartree potential only
   LELF         =      F    write electronic localiz. function (ELF)
   LORBIT       =      0    0 simple, 1 ext, 2 COOP (PROOUT), +10 PAW based schemes


 Dipole corrections
   LMONO  =      F    monopole corrections only (constant potential shift)
   LDIPOL =      F    correct potential (dipole corrections)
   IDIPOL =      0    1-x, 2-y, 3-z, 4-all directions 
   EPSILON=  1.0000000 bulk dielectric constant

 Exchange correlation treatment:
   GGA     =    --    GGA type
   LEXCH   =     8    internal setting for exchange type
   VOSKOWN=      0    Vosko Wilk Nusair interpolation
   LHFCALC =     F    Hartree Fock is set to
   LHFONE  =     F    Hartree Fock one center treatment
   AEXX    =    0.0000 exact exchange contribution

 Linear response parameters
   LEPSILON=     F    determine dielectric tensor
   LRPA    =     F    only Hartree local field effects (RPA)
   LNABLA  =     F    use nabla operator in PAW spheres
   LVEL    =     F    velocity operator in full k-point grid
   LINTERFAST=   F  fast interpolation
   KINTER  =     0    interpolate to denser k-point grid
   CSHIFT  =0.1000    complex shift for real part using Kramers Kronig
   OMEGAMAX=  -1.0    maximum frequency
   DEG_THRESHOLD= 0.2000000E-02 threshold for treating states as degnerate
   RTIME   =   -0.100 relaxation time in fs
  (WPLASMAI=    0.000 imaginary part of plasma frequency in eV, 0.658/RTIME)
   DFIELD  = 0.0000000 0.0000000 0.0000000 field for delta impulse in time
 
 Orbital magnetization related:
   ORBITALMAG=     F  switch on orbital magnetization
   LCHIMAG   =     F  perturbation theory with respect to B field
   DQ        =  0.001000  dq finite difference perturbation B field
   LLRAUG    =     F  two centre corrections for induced B field



--------------------------------------------------------------------------------------------------------


 finite differences
   using selective dynamics as specified on POSCAR
   WARNING: If single coordinates had been selected the selection of coordinates
            is made according to the corresponding   d i r e c t   coordinates!
            Don't support selection of single cartesian coordinates -- sorry ...
  !
 charge density and potential will be updated during run
 spin polarized calculation
 RMM-DIIS sequential band-by-band and
  variant of blocked Davidson during initial phase
 perform sub-space diagonalisation
    before iterative eigenvector-optimisation
 modified Broyden-mixing scheme, WC =      100.0
 initial mixing is a Kerker type mixing with AMIX =  0.4000 and BMIX =      1.0000
 Hartree-type preconditioning will be used
 using additional bands          143
 real space projection scheme for non local part
 use partial core corrections
 calculate Harris-corrections to forces 
   (improved forces if not selfconsistent)
 use gradient corrections 
 use of overlap-Matrix (Vanderbilt PP)
 Fermi weights with tetrahedron method with Bloechl corrections


--------------------------------------------------------------------------------------------------------


  energy-cutoff  :      550.00
  volume of cell :     2124.62
      direct lattice vectors                 reciprocal lattice vectors
    10.560000420  0.000000000  0.000000000     0.094696966 -0.054673319  0.000000000
     5.280000210  9.145228627  0.000000000     0.000000000  0.109346638  0.000000000
     0.000000000  0.000000000 22.000000000     0.000000000  0.000000000  0.045454545

  length of vectors
    10.560000420 10.560000420 22.000000000     0.109346638  0.109346638  0.045454545


 
 k-points in units of 2pi/SCALE and weight: mesh auto                               
   0.00000000  0.00000000  0.00000000       0.250
   0.04734848 -0.02733666  0.00000000       0.250
   0.00000000  0.05467332  0.00000000       0.250
   0.04734848  0.02733666  0.00000000       0.250
 
 k-points in reciprocal lattice and weights: mesh auto                               
   0.00000000  0.00000000  0.00000000       0.250
   0.50000000  0.00000000  0.00000000       0.250
   0.00000000  0.50000000  0.00000000       0.250
   0.50000000  0.50000000  0.00000000       0.250
 
 position of ions in fractional coordinates (direct lattice) 
   0.77554243  0.87243867  0.31092942
   0.02989964  0.86972767  0.31687556
   0.03028274  0.61844884  0.31611218
   0.80262678  0.86154673  0.04548925
   0.04041952  0.86170272  0.05313215
   0.05094006  0.60623876  0.04345509
   0.61796243  0.20894070  0.13542057
   0.37710814  0.95205520  0.13151546
   0.03335620  0.37037061  0.31677067
   0.05135058  0.35331409  0.04887412
   0.87963640  0.19644551  0.14052428
   0.96087417  0.53038295  0.22417750
   0.27626882  0.12774532  0.31599517
   0.52010217  0.61985897  0.31003646
   0.28080313  0.37124549  0.31702408
   0.28932566  0.12342146  0.04415376
   0.52764202  0.62724309  0.04507467
   0.28909440  0.36894265  0.04793021
   0.62308868  0.95893090  0.13135365
   0.70548715  0.78282520  0.21818676
   0.88715030  0.69533554  0.13503616
   0.62004886  0.45380695  0.13368724
   0.26753411  0.87549279  0.31431568
   0.26874220  0.88463744  0.04648647
   0.62886211  0.69959047  0.12842619
   0.21239216  0.03338926  0.22681761
   0.52800220  0.37010783  0.31493268
   0.54121580  0.36930502  0.04425184
   0.52741049  0.12591136  0.31369430
   0.53369445  0.13558673  0.04398512
   0.88328883  0.44709780  0.13815827
   0.14022323  0.44695400  0.13555909
   0.03432834  0.12701089  0.31252661
   0.05899674  0.10183506  0.05752430
   0.13429353  0.93758220  0.14247060
   0.45349676  0.52714197  0.22155385
   0.36936136  0.21615030  0.13478133
   0.13522385  0.19851637  0.13931783
   0.96451857  0.77895096  0.22632147
   0.77740373  0.62235215  0.31108034
   0.27715787  0.61635056  0.31722165
   0.81363781  0.60358461  0.04581253
   0.28273285  0.61368477  0.04197721
   0.37110451  0.69197205  0.12976376
   0.36508999  0.45372452  0.13352880
   0.20868798  0.28973998  0.22336751
   0.78234457  0.37116390  0.31326805
   0.79556672  0.36237866  0.05257846
   0.96301722  0.03218542  0.22949185
   0.45519853  0.77935227  0.21737099
   0.70659607  0.52983886  0.22021742
   0.21528506  0.77065112  0.22674456
   0.45242396  0.04418545  0.22118138
   0.13654308  0.68114990  0.13635370
   0.70125119  0.04139902  0.22321830
   0.78133336  0.12455082  0.31392773
   0.51404246  0.87720751  0.30893289
   0.79323109  0.11303356  0.05068741
   0.53860456  0.88072804  0.04620693
   0.20906199  0.52482163  0.22538723
   0.95737933  0.28366201  0.22768997
   0.87747443  0.94780407  0.14048969
   0.69875871  0.29119994  0.22372627
   0.43631328  0.29652439  0.22196889
   0.85945710  0.95534768  0.41082850
   0.11069413  0.45574940  0.41467122
   0.10986166  0.95585710  0.41317639
   0.86065773  0.45648615  0.41057336
   0.36000088  0.95556357  0.41057310
   0.86173383  0.20521104  0.41073330
   0.11075865  0.20535883  0.41362673
   0.60949491  0.95495531  0.40753822
   0.85961676  0.70558735  0.40990037
   0.36218076  0.20449061  0.41364274
   0.36013050  0.70544151  0.41136525
   0.61040665  0.45583303  0.40979291
   0.10999600  0.70506113  0.41421173
   0.61157773  0.20531173  0.41164998
   0.36162561  0.45441973  0.41495609
   0.60894170  0.70612477  0.40535853
   0.47413114  0.55576770  0.54802701
   0.51653434  0.59568982  0.54778553
 
 position of ions in cartesian coordinates  (Angst):
  12.79620469  7.97865109  6.84044717
   4.90790252  7.95385835  6.97126227
   3.58519575  5.65585606  6.95446793
  13.02470601  7.87904181  1.00076339
   4.97662069  7.88046837  1.16890735
   3.73886781  5.54419210  0.95601204
   7.62889049  1.91081050  2.97925250
   9.00911375  8.70676251  2.89334004
   2.30779837  3.38712393  6.96895475
   2.40776059  3.23113815  1.07523068
  10.32619303  1.79653909  3.09153417
  12.94725375  4.85047335  4.93190510
   3.59189418  1.16826018  6.95189382
   8.76513468  5.66875202  6.82080203
   4.92545746  3.39512484  6.97452970
   3.70694447  1.12871750  0.97138267
   8.88374358  5.73628142  0.99164268
   5.00085423  3.37406493  1.05446452
  11.64297204  8.76964231  2.88978026
  11.58326189  7.15911547  4.80010883
  13.03967928  6.35900246  2.97079554
   8.94381702  4.15016834  2.94111937
   7.44776245  8.00658175  6.91494486
   7.50880361  8.09021164  1.02270230
  10.33462199  6.39791481  2.82537609
   2.41915660  0.30535238  4.98998737
   7.52987287  3.38472068  6.92851897
   7.66516964  3.37737887  0.97354052
   6.23426705  1.15148818  6.90127449
   6.35171159  1.23997163  0.96767274
  11.68820690  4.08881158  3.03948197
   3.84067457  4.08749653  2.98230000
   1.03312484  1.16154363  6.87558543
   1.16069472  0.93130488  1.26553464
   6.36857396  8.57440354  3.13435310
   7.57223566  4.82083388  4.87418460
   5.04172978  1.97674389  2.96518916
   2.47613036  1.81547761  3.06499229
  14.29817770  7.12368464  4.97907223
  11.49540323  5.69155270  6.84376753
   6.18111832  5.63666680  6.97887627
  11.77894245  5.51991923  1.00787576
   6.22591477  5.61228756  0.92349870
   7.57247639  6.32824264  2.85480283
   6.25101599  4.14941446  2.93763351
   3.73357229  2.64973832  4.91408519
  10.22130449  3.39437873  6.89189709
  10.31454426  3.31403569  1.15672606
  10.33940127  0.29434304  5.04882075
   8.92187680  7.12735472  4.78216174
  10.25920409  4.84549749  4.84478322
   6.34244844  7.04778068  4.98838022
   5.01089638  0.40408600  4.86599028
   5.03836660  6.22927156  2.99978141
   7.62379972  0.37860351  4.91080270
   8.90850904  1.13904576  6.90641010
  10.05994444  8.02226323  6.79652366
   8.97333784  1.03371774  1.11512301
  10.33790857  8.05445927  1.01655249
   4.97875301  4.79961380  4.95851916
  11.60766163  2.59415390  5.00917929
  14.27053609  8.66788494  3.09077329
   8.91642800  2.66309000  4.92197796
   6.17311720  2.71178330  4.88331555
  14.12010328  8.73687298  9.03822694
   3.57528697  4.16793245  9.12276682
   6.20706485  8.74153174  9.08988068
  11.49879295  4.17467021  9.03261403
   8.84698527  8.73884732  9.03260818
  10.18342393  1.87670190  9.03613250
   2.25390608  1.87805343  9.09978808
  11.47843077  8.73328463  8.96584084
  12.80305465  6.45275763  9.01780813
   4.90433943  1.87011342  9.10014025
   7.52770960  6.45142391  9.05003548
   8.85269300  4.16869728  9.01544399
   4.88428070  6.44794520  9.11265809
   7.54230708  1.87762275  9.05629945
   6.21810289  4.15577234  9.12903402
  10.15876351  6.45767250  8.91788764
   7.94127858  5.08262266 12.05659426
   8.59984522  5.44771957 12.05128165
 


--------------------------------------------------------------------------------------------------------


 k-point  1 :   0.0000 0.0000 0.0000  plane waves:   62167
 k-point  2 :   0.5000 0.0000 0.0000  plane waves:   62242
 k-point  3 :   0.0000 0.5000 0.0000  plane waves:   62242
 k-point  4 :   0.5000 0.5000 0.0000  plane waves:   62242

 maximum and minimum number of plane-waves per node :     62242    62167

 maximum number of plane-waves:     62242
 maximum index in each direction: 
   IXMAX=   20   IYMAX=   20   IZMAX=   42
   IXMIN=  -20   IYMIN=  -20   IZMIN=  -42


 serial   3D FFT for wavefunctions
 parallel 3D FFT for charge:
    minimum data exchange during FFTs selected (reduces bandwidth)


 total amount of memory used by VASP MPI-rank0   371015. kBytes
=======================================================================

   base      :      30000. kBytes
   nonlr-proj:     106519. kBytes
   fftplans  :      13995. kBytes
   grid      :     120016. kBytes
   one-center:       2550. kBytes
   wavefun   :      97935. kBytes
 
     INWAV:  cpu time    0.0000: real time    0.0000
 Broyden mixing: mesh for mixing (old mesh)
   NGX = 41   NGY = 41   NGZ = 85
  (NGX  =168   NGY  =168   NGZ  =336)
  gives a total of 142885 points

 initial charge density was supplied:
 charge density of overlapping atoms calculated
 number of electron     674.0000000 magnetization      82.0000000
 keeping initial charge density in first step


--------------------------------------------------------------------------------------------------------


 Maximum index for non-local projection operator         7549
 Maximum index for augmentation-charges         1472 (set IRDMAX)


--------------------------------------------------------------------------------------------------------


 First call to EWALD:  gamma=   0.138
 Maximum number of real-space cells 4x 4x 2
 Maximum number of reciprocal cells 2x 2x 4

    FEWALD:  cpu time    0.0039: real time    0.0039


--------------------------------------- Iteration      1(   1)  ---------------------------------------


    POTLOK:  cpu time    0.4826: real time    0.5010
    SETDIJ:  cpu time    0.0332: real time    0.0335
     EDDAV:  cpu time   47.0742: real time   47.2578
 BZINTS: Fermi energy: 13.535453;674.000000 electrons
         Band energy:5934.820580;  BLOECHL correction: -0.013530
       DOS:  cpu time    0.0145: real time    0.0147
    --------------------------------------------
      LOOP:  cpu time   47.6045: real time   47.8070

 eigenvalue-minimisations  :  7680
 total energy-change (2. order) : 0.6225151E+04  (-0.2872685E+05)
 number of electron     674.0000000 magnetization      82.0000000
 augmentation part      674.0000000 magnetization      82.0000000

 Free energy of the ion-electron system (eV)
  ---------------------------------------------------
  alpha Z        PSCENC =      2238.05104169
  Ewald energy   TEWEN  =    178842.38178342
  -Hartree energ DENC   =   -230780.94733271
  -exchange      EXHF   =         0.00000000
  -V(xc)+E(xc)   XCENC  =       304.61596760
  PAW double counting   =     46642.83966157   -46683.45960708
  entropy T*S    EENTRO =         0.00000000
  eigenvalues    EBANDS =      5934.82057996
  atomic energy  EATOM  =     49726.84884536
  Solvation  Ediel_sol  =         0.00000000
  ---------------------------------------------------
  free energy    TOTEN  =      6225.15093981 eV

  energy without entropy =     6225.15093981  energy(sigma->0) =     6225.15093981


--------------------------------------------------------------------------------------------------------




--------------------------------------- Iteration      1(   2)  ---------------------------------------


     EDDAV:  cpu time   46.6560: real time   46.7662
 BZINTS: Fermi energy:  3.035136;674.000000 electrons
         Band energy:-193.143012;  BLOECHL correction: -0.002829
       DOS:  cpu time    0.0138: real time    0.0139
    --------------------------------------------
      LOOP:  cpu time   46.6698: real time   46.7800

 eigenvalue-minimisations  :  7680
 total energy-change (2. order) :-0.6127964E+04  (-0.5746433E+04)
 number of electron     674.0000000 magnetization      82.0000000
 augmentation part      674.0000000 magnetization      82.0000000

 Free energy of the ion-electron system (eV)
  ---------------------------------------------------
  alpha Z        PSCENC =      2238.05104169
  Ewald energy   TEWEN  =    178842.38178342
  -Hartree energ DENC   =   -230780.94733271
  -exchange      EXHF   =         0.00000000
  -V(xc)+E(xc)   XCENC  =       304.61596760
  PAW double counting   =     46642.83966157   -46683.45960708
  entropy T*S    EENTRO =         0.00000000
  eigenvalues    EBANDS =      -193.14301178
  atomic energy  EATOM  =     49726.84884536
  Solvation  Ediel_sol  =         0.00000000
  ---------------------------------------------------
  free energy    TOTEN  =        97.18734807 eV

  energy without entropy =       97.18734807  energy(sigma->0) =       97.18734807


--------------------------------------------------------------------------------------------------------




--------------------------------------- Iteration      1(   3)  ---------------------------------------


     EDDAV:  cpu time   53.5486: real time   53.6751
 BZINTS: Fermi energy:  1.718377;674.000000 electrons
         Band energy:-895.336113;  BLOECHL correction: -0.036226
       DOS:  cpu time    0.0139: real time    0.0140
    --------------------------------------------
      LOOP:  cpu time   53.5626: real time   53.6891

 eigenvalue-minimisations  :  9160
 total energy-change (2. order) :-0.7021931E+03  (-0.5352175E+03)
 number of electron     674.0000000 magnetization      82.0000000
 augmentation part      674.0000000 magnetization      82.0000000

 Free energy of the ion-electron system (eV)
  ---------------------------------------------------
  alpha Z        PSCENC =      2238.05104169
  Ewald energy   TEWEN  =    178842.38178342
  -Hartree energ DENC   =   -230780.94733271
  -exchange      EXHF   =         0.00000000
  -V(xc)+E(xc)   XCENC  =       304.61596760
  PAW double counting   =     46642.83966157   -46683.45960708
  entropy T*S    EENTRO =         0.00000000
  eigenvalues    EBANDS =      -895.33611290
  atomic energy  EATOM  =     49726.84884536
  Solvation  Ediel_sol  =         0.00000000
  ---------------------------------------------------
  free energy    TOTEN  =      -605.00575305 eV

  energy without entropy =     -605.00575305  energy(sigma->0) =     -605.00575305


--------------------------------------------------------------------------------------------------------




--------------------------------------- Iteration      1(   4)  ---------------------------------------


     EDDAV:  cpu time   63.7202: real time   63.8999
 BZINTS: Fermi energy:  1.563354;674.000000 electrons
         Band energy:-970.568859;  BLOECHL correction: -0.006399
       DOS:  cpu time    0.0149: real time    0.0150
    --------------------------------------------
      LOOP:  cpu time   63.7351: real time   63.9149

 eigenvalue-minimisations  : 11320
 total energy-change (2. order) :-0.7523275E+02  (-0.6743076E+02)
 number of electron     674.0000000 magnetization      82.0000000
 augmentation part      674.0000000 magnetization      82.0000000

 Free energy of the ion-electron system (eV)
  ---------------------------------------------------
  alpha Z        PSCENC =      2238.05104169
  Ewald energy   TEWEN  =    178842.38178342
  -Hartree energ DENC   =   -230780.94733271
  -exchange      EXHF   =         0.00000000
  -V(xc)+E(xc)   XCENC  =       304.61596760
  PAW double counting   =     46642.83966157   -46683.45960708
  entropy T*S    EENTRO =         0.00000000
  eigenvalues    EBANDS =      -970.56885878
  atomic energy  EATOM  =     49726.84884536
  Solvation  Ediel_sol  =         0.00000000
  ---------------------------------------------------
  free energy    TOTEN  =      -680.23849894 eV

  energy without entropy =     -680.23849894  energy(sigma->0) =     -680.23849894


--------------------------------------------------------------------------------------------------------




--------------------------------------- Iteration      1(   5)  ---------------------------------------


     EDDAV:  cpu time   61.8198: real time   61.9940
 BZINTS: Fermi energy:  1.547855;674.000000 electrons
         Band energy:-972.554210;  BLOECHL correction: -0.003622
       DOS:  cpu time    0.0230: real time    0.0230
    CHARGE:  cpu time    2.4257: real time    2.4317
    MIXING:  cpu time    0.0097: real time    0.0103
    --------------------------------------------
      LOOP:  cpu time   64.2782: real time   64.4591

 eigenvalue-minimisations  : 10920
 total energy-change (2. order) :-0.1985351E+01  (-0.1940210E+01)
 number of electron     674.0000015 magnetization      78.6671873
 augmentation part      275.1603488 magnetization      60.6766740

 Broyden mixing:
  rms(total) = 0.95298E+01    rms(broyden)= 0.95298E+01
  rms(prec ) = 0.10233E+02
  weight for this iteration     100.00

 Free energy of the ion-electron system (eV)
  ---------------------------------------------------
  alpha Z        PSCENC =      2238.05104169
  Ewald energy   TEWEN  =    178842.38178342
  -Hartree energ DENC   =   -230780.94733271
  -exchange      EXHF   =         0.00000000
  -V(xc)+E(xc)   XCENC  =       304.61596760
  PAW double counting   =     46642.83966157   -46683.45960708
  entropy T*S    EENTRO =         0.00000000
  eigenvalues    EBANDS =      -972.55420966
  atomic energy  EATOM  =     49726.84884536
  Solvation  Ediel_sol  =         0.00000000
  ---------------------------------------------------
  free energy    TOTEN  =      -682.22384982 eV

  energy without entropy =     -682.22384982  energy(sigma->0) =     -682.22384982


--------------------------------------------------------------------------------------------------------




--------------------------------------- Iteration      1(   6)  ---------------------------------------


    POTLOK:  cpu time    0.4203: real time    0.4213
    SETDIJ:  cpu time    0.0328: real time    0.0329
    EDDIAG:  cpu time    7.1433: real time    7.1605
  RMM-DIIS:  cpu time   29.8823: real time   29.9531
    ORTHCH:  cpu time    0.8808: real time    0.8829
 BZINTS: Fermi energy:  1.369815;674.000000 electrons
         Band energy:***********;  BLOECHL correction: -0.009046
       DOS:  cpu time    0.0168: real time    0.0169
    CHARGE:  cpu time    2.4184: real time    2.4241
    MIXING:  cpu time    0.0091: real time    0.0094
    --------------------------------------------
      LOOP:  cpu time   40.8040: real time   40.9011

 eigenvalue-minimisations  :  7694
 total energy-change (2. order) :-0.3708778E+03  (-0.1199579E+03)
 number of electron     674.0000012 magnetization      77.7835883
 augmentation part      324.3211925 magnetization      64.9844509

 Broyden mixing:
  rms(total) = 0.24681E+02    rms(broyden)= 0.24681E+02
  rms(prec ) = 0.29472E+02
  weight for this iteration     100.00

 eigenvalues of (default mixing * dielectric matrix)
  average eigenvalue GAMMA=   0.1451
  0.1451

 Free energy of the ion-electron system (eV)
  ---------------------------------------------------
  alpha Z        PSCENC =      2238.05104169
  Ewald energy   TEWEN  =    178842.38178342
  -Hartree energ DENC   =   -230253.31565268
  -exchange      EXHF   =         0.00000000
  -V(xc)+E(xc)   XCENC  =       250.69526256
  PAW double counting   =     50437.19222569   -50363.65308076
  entropy T*S    EENTRO =         0.00000000
  eigenvalues    EBANDS =     -1931.30204072
  atomic energy  EATOM  =     49726.84884536
  Solvation  Ediel_sol  =         0.00000000
  ---------------------------------------------------
  free energy    TOTEN  =     -1053.10161545 eV

  energy without entropy =    -1053.10161545  energy(sigma->0) =    -1053.10161545


--------------------------------------------------------------------------------------------------------




--------------------------------------- Iteration      1(   7)  ---------------------------------------


    POTLOK:  cpu time    0.4191: real time    0.4201
    SETDIJ:  cpu time    0.0326: real time    0.0327
    EDDIAG:  cpu time    7.1402: real time    7.1571
  RMM-DIIS:  cpu time   30.1477: real time   30.2191
    ORTHCH:  cpu time    0.8776: real time    0.8796
 BZINTS: Fermi energy: -0.361066;674.000000 electrons
         Band energy:***********;  BLOECHL correction: -0.006253
       DOS:  cpu time    0.0154: real time    0.0155
    CHARGE:  cpu time    2.4186: real time    2.4243
    MIXING:  cpu time    0.0108: real time    0.0108
    --------------------------------------------
      LOOP:  cpu time   41.0621: real time   41.1593

 eigenvalue-minimisations  :  7717
 total energy-change (2. order) : 0.4040945E+03  (-0.3212393E+02)
 number of electron     674.0000022 magnetization      76.2050267
 augmentation part      330.1323549 magnetization      59.4515611

 Broyden mixing:
  rms(total) = 0.13066E+02    rms(broyden)= 0.13066E+02
  rms(prec ) = 0.15860E+02
  weight for this iteration     100.00

 eigenvalues of (default mixing * dielectric matrix)
  average eigenvalue GAMMA=   0.2971
  0.4803  0.1139

 Free energy of the ion-electron system (eV)
  ---------------------------------------------------
  alpha Z        PSCENC =      2238.05104169
  Ewald energy   TEWEN  =    178842.38178342
  -Hartree energ DENC   =   -229861.03966182
  -exchange      EXHF   =         0.00000000
  -V(xc)+E(xc)   XCENC  =       252.19670466
  PAW double counting   =     51243.01781443   -51190.92151679
  entropy T*S    EENTRO =         0.00000000
  eigenvalues    EBANDS =     -1899.54209542
  atomic energy  EATOM  =     49726.84884536
  Solvation  Ediel_sol  =         0.00000000
  ---------------------------------------------------
  free energy    TOTEN  =      -649.00708449 eV

  energy without entropy =     -649.00708449  energy(sigma->0) =     -649.00708449


--------------------------------------------------------------------------------------------------------




--------------------------------------- Iteration      1(   8)  ---------------------------------------


    POTLOK:  cpu time    0.4273: real time    0.4283
    SETDIJ:  cpu time    0.0334: real time    0.0335
    EDDIAG:  cpu time    7.3351: real time    7.3588
  RMM-DIIS:  cpu time   30.1424: real time   30.2136
    ORTHCH:  cpu time    0.8779: real time    0.8800
 BZINTS: Fermi energy:  0.730946;674.000000 electrons
         Band energy:***********;  BLOECHL correction: -0.009223
       DOS:  cpu time    0.0146: real time    0.0146
    CHARGE:  cpu time    2.4108: real time    2.4165
    MIXING:  cpu time    0.0102: real time    0.0103
    --------------------------------------------
      LOOP:  cpu time   41.2518: real time   41.3555

 eigenvalue-minimisations  :  7689
 total energy-change (2. order) :-0.3346308E+03  (-0.1987702E+02)
 number of electron     674.0000012 magnetization      74.8534332
 augmentation part      323.0603826 magnetization      62.1683255

 Broyden mixing:
  rms(total) = 0.20969E+02    rms(broyden)= 0.20969E+02
  rms(prec ) = 0.28649E+02
  weight for this iteration     100.00

 eigenvalues of (default mixing * dielectric matrix)
  average eigenvalue GAMMA=   0.3070
  0.6692  0.1676  0.0841

 Free energy of the ion-electron system (eV)
  ---------------------------------------------------
  alpha Z        PSCENC =      2238.05104169
  Ewald energy   TEWEN  =    178842.38178342
  -Hartree energ DENC   =   -230042.61961885
  -exchange      EXHF   =         0.00000000
  -V(xc)+E(xc)   XCENC  =       264.30049931
  PAW double counting   =     52974.93094635   -53004.24538683
  entropy T*S    EENTRO =         0.00000000
  eigenvalues    EBANDS =     -1983.28601440
  atomic energy  EATOM  =     49726.84884536
  Solvation  Ediel_sol  =         0.00000000
  ---------------------------------------------------
  free energy    TOTEN  =      -983.63790397 eV

  energy without entropy =     -983.63790397  energy(sigma->0) =     -983.63790397


--------------------------------------------------------------------------------------------------------




--------------------------------------- Iteration      1(   9)  ---------------------------------------


    POTLOK:  cpu time    0.4322: real time    0.4332
    SETDIJ:  cpu time    0.0335: real time    0.0336
    EDDIAG:  cpu time    7.1511: real time    7.1679
  RMM-DIIS:  cpu time   29.6739: real time   29.7439
    ORTHCH:  cpu time    0.8868: real time    0.8889
 BZINTS: Fermi energy:  1.185931;674.000000 electrons
         Band energy:***********;  BLOECHL correction: -0.062619
       DOS:  cpu time    0.0158: real time    0.0158
    CHARGE:  cpu time    2.4088: real time    2.4145
    MIXING:  cpu time    0.0110: real time    0.0110
    --------------------------------------------
      LOOP:  cpu time   40.6129: real time   40.7088

 eigenvalue-minimisations  :  7690
 total energy-change (2. order) : 0.1879303E+03  (-0.9188569E+01)
 number of electron     674.0000013 magnetization      73.6593002
 augmentation part      314.1482222 magnetization      59.6765356

 Broyden mixing:
  rms(total) = 0.18135E+02    rms(broyden)= 0.18135E+02
  rms(prec ) = 0.22328E+02
  weight for this iteration     100.00

 eigenvalues of (default mixing * dielectric matrix)
  average eigenvalue GAMMA=   0.2949
  0.7720  0.2424  0.0826  0.0826

 Free energy of the ion-electron system (eV)
  ---------------------------------------------------
  alpha Z        PSCENC =      2238.05104169
  Ewald energy   TEWEN  =    178842.38178342
  -Hartree energ DENC   =   -230522.72837533
  -exchange      EXHF   =         0.00000000
  -V(xc)+E(xc)   XCENC  =       269.03177400
  PAW double counting   =     54218.85941560   -54291.66675267
  entropy T*S    EENTRO =         0.00000000
  eigenvalues    EBANDS =     -1276.48535729
  atomic energy  EATOM  =     49726.84884536
  Solvation  Ediel_sol  =         0.00000000
  ---------------------------------------------------
  free energy    TOTEN  =      -795.70762523 eV

  energy without entropy =     -795.70762523  energy(sigma->0) =     -795.70762523


--------------------------------------------------------------------------------------------------------




--------------------------------------- Iteration      1(  10)  ---------------------------------------


    POTLOK:  cpu time    0.4205: real time    0.4215
    SETDIJ:  cpu time    0.0326: real time    0.0326
    EDDIAG:  cpu time    7.1371: real time    7.1540
  RMM-DIIS:  cpu time   30.0055: real time   30.0764
    ORTHCH:  cpu time    0.8835: real time    0.8856
 BZINTS: Fermi energy:  0.955602;674.000000 electrons
         Band energy:***********;  BLOECHL correction: -0.084997
       DOS:  cpu time    0.0157: real time    0.0157
    CHARGE:  cpu time    2.4170: real time    2.4227
    MIXING:  cpu time    0.0109: real time    0.0109
    --------------------------------------------
      LOOP:  cpu time   40.9228: real time   41.0194

 eigenvalue-minimisations  :  7694
 total energy-change (2. order) : 0.1313959E+03  (-0.1146714E+02)
 number of electron     674.0000016 magnetization      72.3622012
 augmentation part      310.2487070 magnetization      55.6114355

 Broyden mixing:
  rms(total) = 0.13378E+02    rms(broyden)= 0.13378E+02
  rms(prec ) = 0.16476E+02
  weight for this iteration     100.00

 eigenvalues of (default mixing * dielectric matrix)
  average eigenvalue GAMMA=   0.3217
  0.9084  0.3995  0.1182  0.1182  0.0643

 Free energy of the ion-electron system (eV)
  ---------------------------------------------------
  alpha Z        PSCENC =      2238.05104169
  Ewald energy   TEWEN  =    178842.38178342
  -Hartree energ DENC   =   -230416.64761704
  -exchange      EXHF   =         0.00000000
  -V(xc)+E(xc)   XCENC  =       271.51965916
  PAW double counting   =     55026.25615229   -55123.88354120
  entropy T*S    EENTRO =         0.00000000
  eigenvalues    EBANDS =     -1228.83803491
  atomic energy  EATOM  =     49726.84884536
  Solvation  Ediel_sol  =         0.00000000
  ---------------------------------------------------
  free energy    TOTEN  =      -664.31171125 eV

  energy without entropy =     -664.31171125  energy(sigma->0) =     -664.31171125


--------------------------------------------------------------------------------------------------------




--------------------------------------- Iteration      1(  11)  ---------------------------------------


    POTLOK:  cpu time    0.4354: real time    0.4364
    SETDIJ:  cpu time    0.0334: real time    0.0334
    EDDIAG:  cpu time    7.4022: real time    7.4247
  RMM-DIIS:  cpu time   30.2391: real time   30.3420
    ORTHCH:  cpu time    0.8838: real time    0.8867
 BZINTS: Fermi energy:  0.800002;674.000000 electrons
         Band energy:***********;  BLOECHL correction: -0.031565
       DOS:  cpu time    0.0156: real time    0.0157
    CHARGE:  cpu time    2.3711: real time    2.3790
    MIXING:  cpu time    0.0101: real time    0.0102
    --------------------------------------------
      LOOP:  cpu time   41.3907: real time   41.5281

 eigenvalue-minimisations  :  7708
 total energy-change (2. order) : 0.1176101E+02  (-0.7835021E+01)
 number of electron     674.0000010 magnetization      71.0484514
 augmentation part      311.6750751 magnetization      56.0619869

 Broyden mixing:
  rms(total) = 0.13281E+02    rms(broyden)= 0.13281E+02
  rms(prec ) = 0.15628E+02
  weight for this iteration     100.00

 eigenvalues of (default mixing * dielectric matrix)
  average eigenvalue GAMMA=   0.3272
  1.0418  0.4721  0.1743  0.1043  0.1043  0.0660

 Free energy of the ion-electron system (eV)
  ---------------------------------------------------
  alpha Z        PSCENC =      2238.05104169
  Ewald energy   TEWEN  =    178842.38178342
  -Hartree energ DENC   =   -230341.91290697
  -exchange      EXHF   =         0.00000000
  -V(xc)+E(xc)   XCENC  =       271.68033252
  PAW double counting   =     55740.76128594   -55850.96201268
  entropy T*S    EENTRO =         0.00000000
  eigenvalues    EBANDS =     -1279.39907114
  atomic energy  EATOM  =     49726.84884536
  Solvation  Ediel_sol  =         0.00000000
  ---------------------------------------------------
  free energy    TOTEN  =      -652.55070187 eV

  energy without entropy =     -652.55070187  energy(sigma->0) =     -652.55070187


--------------------------------------------------------------------------------------------------------




--------------------------------------- Iteration      1(  12)  ---------------------------------------


    POTLOK:  cpu time    0.4255: real time    0.4267
    SETDIJ:  cpu time    0.0399: real time    0.0400
    EDDIAG:  cpu time    7.2301: real time    7.2537
  RMM-DIIS:  cpu time   30.3736: real time   30.4775
    ORTHCH:  cpu time    0.8827: real time    0.8857
 BZINTS: Fermi energy:  0.655246;674.000000 electrons
         Band energy:***********;  BLOECHL correction: -0.001969
       DOS:  cpu time    0.0155: real time    0.0155
    CHARGE:  cpu time    2.4414: real time    2.4491
    MIXING:  cpu time    0.0119: real time    0.0119
    --------------------------------------------
      LOOP:  cpu time   41.4205: real time   41.5601

 eigenvalue-minimisations  :  7713
 total energy-change (2. order) : 0.4272333E+02  (-0.5612837E+01)
 number of electron     674.0000018 magnetization      70.4539523
 augmentation part      314.0517907 magnetization      52.4048090

 Broyden mixing:
  rms(total) = 0.99494E+01    rms(broyden)= 0.99493E+01
  rms(prec ) = 0.11490E+02
  weight for this iteration     100.00

 eigenvalues of (default mixing * dielectric matrix)
  average eigenvalue GAMMA=   0.3253
  1.1010  0.4023  0.4023  0.1109  0.1109  0.0660  0.0836

 Free energy of the ion-electron system (eV)
  ---------------------------------------------------
  alpha Z        PSCENC =      2238.05104169
  Ewald energy   TEWEN  =    178842.38178342
  -Hartree energ DENC   =   -230281.62110457
  -exchange      EXHF   =         0.00000000
  -V(xc)+E(xc)   XCENC  =       270.30314459
  PAW double counting   =     56321.45982848   -56436.97712163
  entropy T*S    EENTRO =         0.00000000
  eigenvalues    EBANDS =     -1290.27379109
  atomic energy  EATOM  =     49726.84884536
  Solvation  Ediel_sol  =         0.00000000
  ---------------------------------------------------
  free energy    TOTEN  =      -609.82737375 eV

  energy without entropy =     -609.82737375  energy(sigma->0) =     -609.82737375


--------------------------------------------------------------------------------------------------------




--------------------------------------- Iteration      1(  13)  ---------------------------------------


    POTLOK:  cpu time    0.4351: real time    0.4367
    SETDIJ:  cpu time    0.0333: real time    0.0333
    EDDIAG:  cpu time    7.1645: real time    7.1867
  RMM-DIIS:  cpu time   30.2226: real time   30.2939
    ORTHCH:  cpu time    0.8751: real time    0.8772
 BZINTS: Fermi energy:  0.753524;674.000000 electrons
         Band energy:***********;  BLOECHL correction: -0.025558
       DOS:  cpu time    0.0153: real time    0.0154
    CHARGE:  cpu time    2.5030: real time    2.5140
    MIXING:  cpu time    0.0137: real time    0.0138
    --------------------------------------------
      LOOP:  cpu time   41.2627: real time   41.3711

 eigenvalue-minimisations  :  7714
 total energy-change (2. order) : 0.1373284E+02  (-0.2664675E+01)
 number of electron     674.0000016 magnetization      69.9425449
 augmentation part      311.0643407 magnetization      50.3238032

 Broyden mixing:
  rms(total) = 0.78993E+01    rms(broyden)= 0.78992E+01
  rms(prec ) = 0.90582E+01
  weight for this iteration     100.00

 eigenvalues of (default mixing * dielectric matrix)
  average eigenvalue GAMMA=   0.3312
  1.1760  0.4988  0.4988  0.1182  0.1182  0.0973  0.0679  0.0744

 Free energy of the ion-electron system (eV)
  ---------------------------------------------------
  alpha Z        PSCENC =      2238.05104169
  Ewald energy   TEWEN  =    178842.38178342
  -Hartree energ DENC   =   -230319.71707849
  -exchange      EXHF   =         0.00000000
  -V(xc)+E(xc)   XCENC  =       269.10350038
  PAW double counting   =     56613.98937946   -56737.50870512
  entropy T*S    EENTRO =         0.00000000
  eigenvalues    EBANDS =     -1229.24329901
  atomic energy  EATOM  =     49726.84884536
  Solvation  Ediel_sol  =         0.00000000
  ---------------------------------------------------
  free energy    TOTEN  =      -596.09453233 eV

  energy without entropy =     -596.09453233  energy(sigma->0) =     -596.09453233


--------------------------------------------------------------------------------------------------------




--------------------------------------- Iteration      1(  14)  ---------------------------------------


    POTLOK:  cpu time    0.5236: real time    0.5249
    SETDIJ:  cpu time    0.0515: real time    0.0516
    EDDIAG:  cpu time    7.1905: real time    7.2098
  RMM-DIIS:  cpu time   30.0485: real time   30.1199
    ORTHCH:  cpu time    0.8801: real time    0.8822
 BZINTS: Fermi energy:  0.747321;674.000000 electrons
         Band energy:***********;  BLOECHL correction: -0.016225
       DOS:  cpu time    0.0156: real time    0.0157
    CHARGE:  cpu time    2.4440: real time    2.4498
    MIXING:  cpu time    0.0124: real time    0.0125
    --------------------------------------------
      LOOP:  cpu time   41.1662: real time   41.2661

 eigenvalue-minimisations  :  7702
 total energy-change (2. order) : 0.1530715E+02  (-0.1484356E+01)
 number of electron     674.0000016 magnetization      69.7945078
 augmentation part      310.5473405 magnetization      50.8263499

 Broyden mixing:
  rms(total) = 0.46589E+01    rms(broyden)= 0.46588E+01
  rms(prec ) = 0.52501E+01
  weight for this iteration     100.00

 eigenvalues of (default mixing * dielectric matrix)
  average eigenvalue GAMMA=   0.3187
  1.2127  0.5041  0.5041  0.1972  0.1075  0.1075  0.0985  0.0685  0.0685

 Free energy of the ion-electron system (eV)
  ---------------------------------------------------
  alpha Z        PSCENC =      2238.05104169
  Ewald energy   TEWEN  =    178842.38178342
  -Hartree energ DENC   =   -230342.64531530
  -exchange      EXHF   =         0.00000000
  -V(xc)+E(xc)   XCENC  =       268.29835536
  PAW double counting   =     56939.11023504   -57066.84145703
  entropy T*S    EENTRO =         0.00000000
  eigenvalues    EBANDS =     -1185.99086775
  atomic energy  EATOM  =     49726.84884536
  Solvation  Ediel_sol  =         0.00000000
  ---------------------------------------------------
  free energy    TOTEN  =      -580.78737922 eV

  energy without entropy =     -580.78737922  energy(sigma->0) =     -580.78737922


--------------------------------------------------------------------------------------------------------




--------------------------------------- Iteration      1(  15)  ---------------------------------------


    POTLOK:  cpu time    0.4184: real time    0.4194
    SETDIJ:  cpu time    0.0333: real time    0.0334
    EDDIAG:  cpu time    7.1403: real time    7.1572
  RMM-DIIS:  cpu time   30.1281: real time   30.1993
    ORTHCH:  cpu time    0.8777: real time    0.8798
 BZINTS: Fermi energy:  0.648508;674.000000 electrons
         Band energy:***********;  BLOECHL correction: -0.008082
       DOS:  cpu time    0.0146: real time    0.0146
    CHARGE:  cpu time    2.4515: real time    2.4573
    MIXING:  cpu time    0.0114: real time    0.0115
    --------------------------------------------
      LOOP:  cpu time   41.0754: real time   41.1724

 eigenvalue-minimisations  :  7710
 total energy-change (2. order) : 0.1665486E+01  (-0.5413119E+00)
 number of electron     674.0000017 magnetization      69.8524494
 augmentation part      312.4755935 magnetization      50.8547062

 Broyden mixing:
  rms(total) = 0.37192E+01    rms(broyden)= 0.37192E+01
  rms(prec ) = 0.41069E+01
  weight for this iteration     100.00

 eigenvalues of (default mixing * dielectric matrix)
  average eigenvalue GAMMA=   0.3011
  1.2018  0.4990  0.4990  0.2619  0.1150  0.1150  0.1084  0.0676  0.0716  0.0716

 Free energy of the ion-electron system (eV)
  ---------------------------------------------------
  alpha Z        PSCENC =      2238.05104169
  Ewald energy   TEWEN  =    178842.38178342
  -Hartree energ DENC   =   -230317.65365995
  -exchange      EXHF   =         0.00000000
  -V(xc)+E(xc)   XCENC  =       267.73896756
  PAW double counting   =     57070.32698353   -57196.93484837
  entropy T*S    EENTRO =         0.00000000
  eigenvalues    EBANDS =     -1209.88100683
[...]
      1.03312      1.16154      6.87559        -0.103764     -0.173609      0.626209
      1.16069      0.93130      1.26553        -0.971020      1.070197     -0.025753
      6.36857      8.57440      3.13435        -0.234922      0.036723      0.104458
      7.57224      4.82083      4.87418        -0.291611     -0.094086      0.072004
      5.04173      1.97674      2.96519        -0.218474     -0.546862     -0.243018
      2.47613      1.81548      3.06499        -0.295842      0.192689     -0.253329
     14.29818      7.12368      4.97907         0.091679      0.054899     -0.127510
     11.49540      5.69155      6.84377        -0.064438     -0.108012     -0.056639
      6.18112      5.63667      6.97888         0.015391     -0.002757      0.043179
     11.77894      5.51992      1.00788        -0.263947      0.169955      0.141926
      6.22591      5.61229      0.92350         0.204893     -0.043430      0.496711
      7.57248      6.32824      2.85480         0.099013      0.317386      0.273022
      6.25102      4.14941      2.93763         0.361617      0.016241     -0.573368
      3.73357      2.64974      4.91409         0.338242      0.226897      0.260116
     10.22130      3.39438      6.89190         0.057446      0.011766     -0.137619
     10.31454      3.31404      1.15673         0.259461      0.136008     -0.206821
     10.33940      0.29434      5.04882         0.004177      0.024630     -0.184968
      8.92188      7.12735      4.78216        -0.192704      0.311479      0.002789
     10.25920      4.84550      4.84478         0.061614      0.397525      0.021399
      6.34245      7.04778      4.98838         0.036633      0.004703     -0.098130
      5.01090      0.40409      4.86599        -0.193243      0.024285     -0.178841
      5.03837      6.22927      2.99978         0.153406      0.074271     -0.157470
      7.62380      0.37860      4.91080        -0.023541      0.007645      0.071520
      8.90851      1.13905      6.90641        -0.059184     -0.128395     -0.096073
     10.05994      8.02226      6.79652         0.021361      0.047386     -0.168139
      8.97334      1.03372      1.11512        -0.181273     -0.059004     -0.005500
     10.33791      8.05446      1.01655        -0.194742     -0.353434      0.345703
      4.97875      4.79961      4.95852        -0.034306     -0.126640     -0.082561
     11.60766      2.59415      5.00918         0.348201     -0.146255     -0.195767
     14.27054      8.66788      3.09077         0.158691      0.182922      0.024226
      8.91643      2.66309      4.92198        -0.162284     -0.223559      0.097935
      6.17312      2.71178      4.88332        -0.004522      0.033786      0.178082
     14.12010      8.73687      9.03823         0.008337      0.022245     -0.035763
      3.57529      4.16793      9.12277         0.079115      0.066028      0.026083
      6.20706      8.74153      9.08988        -0.005415     -0.115966      0.068354
     11.49879      4.17467      9.03261         0.018112      0.012272      0.008295
      8.84699      8.73885      9.03261         0.023080      0.000498      0.060414
     10.18342      1.87670      9.03613        -0.051065      0.067318      0.112758
      2.25391      1.87805      9.09979         0.077689      0.026190      0.059167
     11.47843      8.73328      8.96584         0.004405     -0.051352      0.062314
     12.80305      6.45276      9.01781        -0.069073      0.006400     -0.024676
      4.90434      1.87011      9.10014         0.048311     -0.031433      0.015399
      7.52771      6.45142      9.05004         0.032936      0.008405     -0.014507
      8.85269      4.16870      9.01544        -0.008725      0.005910     -0.024302
      4.88428      6.44795      9.11266         0.023664     -0.027883      0.026961
      7.54231      1.87762      9.05630        -0.036182      0.043580      0.010220
      6.21810      4.15577      9.12903         0.011221     -0.018593     -0.014191
     10.15876      6.45767      8.91789         0.021155      0.014604      0.056077
      7.94128      5.08262     12.05659        -0.180373     -0.096944      0.025310
      8.59985      5.43272     12.05128         0.192409      0.101957      0.031053
 -----------------------------------------------------------------------------------
    total drift:                                0.012367      0.023837      0.026677


--------------------------------------------------------------------------------------------------------



  FREE ENERGIE OF THE ION-ELECTRON SYSTEM (eV)
  ---------------------------------------------------
  free  energy   TOTEN  =      -627.37899292 eV

  energy  without entropy=     -627.37899292  energy(sigma->0) =     -627.37899292
 
 d Force = 0.4301071E-03[-0.306E-02, 0.392E-02]  d Energy = 0.5873692E-03-0.157E-03
 d Force =-0.3808467E+00[-0.377E+00,-0.385E+00]  d Ewald  =-0.3811148E+00 0.268E-03


--------------------------------------------------------------------------------------------------------


    POTLOK:  cpu time    0.4737: real time    0.4752


--------------------------------------------------------------------------------------------------------


 Finite differences progress:
  Degree of freedom:   5/  6
  Displacement:        2/  2
  Total:              10/ 12
  LATTYP: Found a hexagonal cell.
 ALAT       =    10.5600004196
 C/A-ratio  =     2.0833332505
  
  Lattice vectors:
  
 A1 = (   5.2800002098,  -9.1452286274,   0.0000000000)
 A2 = ( -10.5600004196,   0.0000000000,   0.0000000000)
 A3 = (   0.0000000000,   0.0000000000, -22.0000000000)


Analysis of symmetry for initial positions (statically):
=====================================================================
 Subroutine PRICEL returns:
 Original cell was already a primitive cell.
 

 Routine SETGRP: Setting up the symmetry group for a 
 hexagonal supercell.


 Subroutine GETGRP returns: Found  1 space group operations
 (whereof  1 operations were pure point group operations)
 out of a pool of 24 trial point group operations.


The static configuration has the point symmetry C_1 .


Analysis of symmetry for dynamics (positions and initial velocities):
=====================================================================
 Subroutine PRICEL returns:
 Original cell was already a primitive cell.
 

 Routine SETGRP: Setting up the symmetry group for a 
 hexagonal supercell.


 Subroutine GETGRP returns: Found  1 space group operations
 (whereof  1 operations were pure point group operations)
 out of a pool of 24 trial point group operations.


The dynamic configuration has the point symmetry C_1 .


Analysis of constrained symmetry for selective dynamics:
=====================================================================
 Subroutine PRICEL returns:
 Original cell was already a primitive cell.
 

 Routine SETGRP: Setting up the symmetry group for a 
 hexagonal supercell.


 Subroutine GETGRP returns: Found  1 space group operations
 (whereof  1 operations were pure point group operations)
 out of a pool of 24 trial point group operations.


The constrained configuration has the point symmetry C_1 .


Analysis of structural, dynamic, and magnetic symmetry:
=====================================================================
 Subroutine PRICEL returns:
 Original cell was already a primitive cell.
 

 Routine SETGRP: Setting up the symmetry group for a 
 hexagonal supercell.


 Subroutine GETGRP returns: Found  1 space group operations
 (whereof  1 operations were pure point group operations)
 out of a pool of 24 trial point group operations.


The magnetic configuration has the point symmetry C_1 .


 Subroutine INISYM returns: Found  1 space group operations
 (whereof  1 operations are pure point group operations),
 and found     1 'primitive' translations

 
 KPOINTS: mesh auto                               

Automatic generation of k-mesh.
Space group operators:
 irot       det(A)        alpha          n_x          n_y          n_z        tau_x        tau_y        tau_z
    1     1.000000     0.000001     1.000000     0.000000     0.000000     0.000000     0.000000     0.000000
 
 Subroutine IBZKPT returns following result:
 ===========================================
 
 Found      4 irreducible k-points:
 
 Following reciprocal coordinates:
            Coordinates               Weight
  0.000000  0.000000  0.000000      1.000000
  0.500000  0.000000  0.000000      1.000000
  0.000000  0.500000  0.000000      1.000000
  0.500000  0.500000  0.000000      1.000000
 
 Following cartesian coordinates:
            Coordinates               Weight
  0.000000  0.000000  0.000000      1.000000
  0.047348 -0.027337  0.000000      1.000000
  0.000000  0.054673  0.000000      1.000000
  0.047348  0.027337  0.000000      1.000000
 
 TETIRR: Found     12 inequivalent tetrahedra from       24
    WAVPRE:  cpu time    0.3406: real time    0.3421
    FEWALD:  cpu time    0.0023: real time    0.0023
    ORTHCH:  cpu time    4.6145: real time    4.6296
     LOOP+:  cpu time  460.6682: real time  461.9626


--------------------------------------- Iteration     12(   1)  ---------------------------------------


    POTLOK:  cpu time    0.4295: real time    0.4320
    SETDIJ:  cpu time    0.0333: real time    0.0334
     EDDAV:  cpu time   47.7763: real time   47.9415
 BZINTS: Fermi energy:  0.863040;674.000000 electrons
         Band energy:***********;  BLOECHL correction: -0.079016
       DOS:  cpu time    0.0160: real time    0.0160
    CHARGE:  cpu time    2.4341: real time    2.4425
    MIXING:  cpu time    0.0093: real time    0.0093
    --------------------------------------------
      LOOP:  cpu time   50.6985: real time   50.8748

 eigenvalue-minimisations  :  7880
 total energy-change (2. order) :-0.1525451E-02  (-0.1627764E-01)
 number of electron     674.0000016 magnetization     108.0253699
 augmentation part      315.2315950 magnetization      84.1782423

 Broyden mixing:
  rms(total) = 0.13566E-01    rms(broyden)= 0.13558E-01
  rms(prec ) = 0.14351E-01
  weight for this iteration     100.00

 Free energy of the ion-electron system (eV)
  ---------------------------------------------------
  alpha Z        PSCENC =      2238.05104169
  Ewald energy   TEWEN  =    178838.86296197
  -Hartree energ DENC   =   -230298.43952879
  -exchange      EXHF   =         0.00000000
  -V(xc)+E(xc)   XCENC  =       327.09113260
  PAW double counting   =     59462.39502764   -59643.71165340
  entropy T*S    EENTRO =         0.00000000
  eigenvalues    EBANDS =     -1254.28152533
  atomic energy  EATOM  =     49726.84884536
  Solvation  Ediel_sol  =         0.00000000
  ---------------------------------------------------
  free energy    TOTEN  =      -603.18369826 eV

  energy without entropy =     -603.18369826  energy(sigma->0) =     -603.18369826


--------------------------------------------------------------------------------------------------------




--------------------------------------- Iteration     12(   2)  ---------------------------------------


    POTLOK:  cpu time    0.4284: real time    0.4299
    SETDIJ:  cpu time    0.0332: real time    0.0333
    EDDIAG:  cpu time    7.3289: real time    7.3595
  RMM-DIIS:  cpu time   29.4938: real time   29.5636
    ORTHCH:  cpu time    0.8761: real time    0.8782
 BZINTS: Fermi energy:  0.863123;674.000000 electrons
         Band energy:***********;  BLOECHL correction: -0.076944
       DOS:  cpu time    0.0155: real time    0.0155
    CHARGE:  cpu time    2.4288: real time    2.4346
    MIXING:  cpu time    0.0097: real time    0.0097
    --------------------------------------------
      LOOP:  cpu time   40.6145: real time   40.7244

 eigenvalue-minimisations  :  7676
 total energy-change (2. order) : 0.4762245E-04  (-0.8716413E-04)
 number of electron     674.0000016 magnetization     108.0260407
 augmentation part      315.2614413 magnetization      84.1379301

 Broyden mixing:
  rms(total) = 0.72305E-01    rms(broyden)= 0.72304E-01
  rms(prec ) = 0.89256E-01
  weight for this iteration     100.00

 eigenvalues of (default mixing * dielectric matrix)
  average eigenvalue GAMMA=   0.0804
  0.0804

 Free energy of the ion-electron system (eV)
  ---------------------------------------------------
  alpha Z        PSCENC =      2238.05104169
  Ewald energy   TEWEN  =    178838.86296197
  -Hartree energ DENC   =   -230298.55282875
  -exchange      EXHF   =         0.00000000
  -V(xc)+E(xc)   XCENC  =       327.08373265
  PAW double counting   =     59462.37320459   -59643.66883898
  entropy T*S    EENTRO =         0.00000000
  eigenvalues    EBANDS =     -1254.18176915
  atomic energy  EATOM  =     49726.84884536
  Solvation  Ediel_sol  =         0.00000000
  ---------------------------------------------------
  free energy    TOTEN  =      -603.18365064 eV

  energy without entropy =     -603.18365064  energy(sigma->0) =     -603.18365064


--------------------------------------------------------------------------------------------------------




--------------------------------------- Iteration     12(   3)  ---------------------------------------


    POTLOK:  cpu time    0.4225: real time    0.4234
    SETDIJ:  cpu time    0.0334: real time    0.0335
    EDDIAG:  cpu time    7.1805: real time    7.1977
  RMM-DIIS:  cpu time   29.1760: real time   29.2449
    ORTHCH:  cpu time    0.8775: real time    0.8796
 BZINTS: Fermi energy:  0.862998;674.000000 electrons
         Band energy:***********;  BLOECHL correction: -0.080410
       DOS:  cpu time    0.0159: real time    0.0159
    CHARGE:  cpu time    2.4347: real time    2.4405
    MIXING:  cpu time    0.0099: real time    0.0099
    --------------------------------------------
      LOOP:  cpu time   40.1503: real time   40.2454

 eigenvalue-minimisations  :  7590
 total energy-change (2. order) :-0.1010191E-02  (-0.4027148E-04)
 number of electron     674.0000016 magnetization     108.0254122
 augmentation part      315.2165158 magnetization      84.2004763

 Broyden mixing:
  rms(total) = 0.31865E-01    rms(broyden)= 0.31862E-01
  rms(prec ) = 0.41567E-01
  weight for this iteration     100.00

 eigenvalues of (default mixing * dielectric matrix)
  average eigenvalue GAMMA=   0.1383
  0.2333  0.0432

 Free energy of the ion-electron system (eV)
  ---------------------------------------------------
  alpha Z        PSCENC =      2238.05104169
  Ewald energy   TEWEN  =    178838.86296197
  -Hartree energ DENC   =   -230298.44363065
  -exchange      EXHF   =         0.00000000
  -V(xc)+E(xc)   XCENC  =       327.08772426
  PAW double counting   =     59462.16291779   -59643.48969022
  entropy T*S    EENTRO =         0.00000000
  eigenvalues    EBANDS =     -1254.26483101
  atomic energy  EATOM  =     49726.84884536
  Solvation  Ediel_sol  =         0.00000000
  ---------------------------------------------------
  free energy    TOTEN  =      -603.18466083 eV

  energy without entropy =     -603.18466083  energy(sigma->0) =     -603.18466083


--------------------------------------------------------------------------------------------------------




--------------------------------------- Iteration     12(   4)  ---------------------------------------


    POTLOK:  cpu time    0.4322: real time    0.4332
    SETDIJ:  cpu time    0.0334: real time    0.0334
    EDDIAG:  cpu time    7.2856: real time    7.3029
  RMM-DIIS:  cpu time   29.1547: real time   29.2236
    ORTHCH:  cpu time    0.8766: real time    0.8786
 BZINTS: Fermi energy:  0.863302;674.000000 electrons
         Band energy:***********;  BLOECHL correction: -0.077776
       DOS:  cpu time    0.0154: real time    0.0154
    CHARGE:  cpu time    2.4233: real time    2.4290
    MIXING:  cpu time    0.0101: real time    0.0101
    --------------------------------------------
      LOOP:  cpu time   40.2311: real time   40.3263

 eigenvalue-minimisations  :  7601
 total energy-change (2. order) : 0.1505970E-02  (-0.3095064E-04)
 number of electron     674.0000016 magnetization     108.0248720
 augmentation part      315.2406585 magnetization      84.1661542

 Broyden mixing:
  rms(total) = 0.32647E-01    rms(broyden)= 0.32646E-01
  rms(prec ) = 0.38705E-01
  weight for this iteration     100.00

 eigenvalues of (default mixing * dielectric matrix)
  average eigenvalue GAMMA=   0.2860
  0.7320  0.0794  0.0466

 Free energy of the ion-electron system (eV)
  ---------------------------------------------------
  alpha Z        PSCENC =      2238.05104169
  Ewald energy   TEWEN  =    178838.86296197
  -Hartree energ DENC   =   -230298.38344116
  -exchange      EXHF   =         0.00000000
  -V(xc)+E(xc)   XCENC  =       327.08772982
  PAW double counting   =     59462.28654443   -59643.59095320
  entropy T*S    EENTRO =         0.00000000
  eigenvalues    EBANDS =     -1254.34588376
  atomic energy  EATOM  =     49726.84884536
  Solvation  Ediel_sol  =         0.00000000
  ---------------------------------------------------
  free energy    TOTEN  =      -603.18315486 eV

  energy without entropy =     -603.18315486  energy(sigma->0) =     -603.18315486


--------------------------------------------------------------------------------------------------------




--------------------------------------- Iteration     12(   5)  ---------------------------------------


    POTLOK:  cpu time    0.4231: real time    0.4241
    SETDIJ:  cpu time    0.0334: real time    0.0335
    EDDIAG:  cpu time    7.1806: real time    7.1978
  RMM-DIIS:  cpu time   29.5900: real time   29.6599
    ORTHCH:  cpu time    0.8745: real time    0.8766
 BZINTS: Fermi energy:  0.862831;674.000000 electrons
         Band energy:***********;  BLOECHL correction: -0.080249
       DOS:  cpu time    0.0155: real time    0.0155
    CHARGE:  cpu time    2.4310: real time    2.4367
    MIXING:  cpu time    0.0107: real time    0.0107
    --------------------------------------------
      LOOP:  cpu time   40.5588: real time   40.6548

 eigenvalue-minimisations  :  7682
 total energy-change (2. order) :-0.1919551E-02  (-0.3936480E-04)
 number of electron     674.0000016 magnetization     108.0238217
 augmentation part      315.2170809 magnetization      84.1946394

 Broyden mixing:
  rms(total) = 0.47845E-01    rms(broyden)= 0.47845E-01
  rms(prec ) = 0.58141E-01
  weight for this iteration     100.00

 eigenvalues of (default mixing * dielectric matrix)
  average eigenvalue GAMMA=   0.4366
  1.5125  0.1145  0.0442  0.0751

 Free energy of the ion-electron system (eV)
  ---------------------------------------------------
  alpha Z        PSCENC =      2238.05104169
  Ewald energy   TEWEN  =    178838.86296197
  -Hartree energ DENC   =   -230298.52668625
  -exchange      EXHF   =         0.00000000
  -V(xc)+E(xc)   XCENC  =       327.08170998
  PAW double counting   =     59461.96430671   -59643.29915860
  entropy T*S    EENTRO =         0.00000000
  eigenvalues    EBANDS =     -1254.16809525
  atomic energy  EATOM  =     49726.84884536
  Solvation  Ediel_sol  =         0.00000000
  ---------------------------------------------------
  free energy    TOTEN  =      -603.18507441 eV

  energy without entropy =     -603.18507441  energy(sigma->0) =     -603.18507441


--------------------------------------------------------------------------------------------------------




--------------------------------------- Iteration     12(   6)  ---------------------------------------


    POTLOK:  cpu time    0.4193: real time    0.4203
    SETDIJ:  cpu time    0.0332: real time    0.0333
    EDDIAG:  cpu time    7.1778: real time    7.1949
  RMM-DIIS:  cpu time   29.2163: real time   29.2853
    ORTHCH:  cpu time    0.8794: real time    0.8846
 BZINTS: Fermi energy:  0.863283;674.000000 electrons
         Band energy:***********;  BLOECHL correction: -0.078829
       DOS:  cpu time    0.0154: real time    0.0155
