 vasp.5.4.4.18Apr17-6-g9f103f2a35 (build Nov 30 2020 22:55:02) complex          
  
 executed on             LinuxIFC date 2023.08.07  09:08:19
 running on   40 total cores
 distrk:  each k-point on   40 cores,    1 groups
 distr:  one band on NCORES_PER_BAND=   4 cores,   10 groups


--------------------------------------------------------------------------------------------------------


 INCAR:
 POTCAR:    PAW_PBE Pt 04Feb2005                  
 POTCAR:    PAW_PBE H 15Jun2001                   
 POTCAR:    PAW_PBE Pt 04Feb2005                  
   VRHFIN =Pt: s1d9                                                             
   LEXCH  = PE                                                                  
   EATOM  =   729.1176 eV,   53.5886 Ry                                         
                                                                                
   TITEL  = PAW_PBE Pt 04Feb2005                                                
   LULTRA =        F    use ultrasoft PP ?                                      
   IUNSCR =        1    unscreen: 0-lin 1-nonlin 2-no                           
   RPACOR =    2.330    partial core radius                                     
   POMASS =  195.080; ZVAL   =   10.000    mass and valenz                      
   RCORE  =    2.600    outmost cutoff radius                                   
   RWIGS  =    2.750; RWIGS  =    1.455    wigner-seitz radius (au A)           
   ENMAX  =  230.283; ENMIN  =  172.712 eV                                      
   ICORE  =        3    local potential                                         
   LCOR   =        T    correct aug charges                                     
   LPAW   =        T    paw PP                                                  
   EAUG   =  358.966                                                            
   DEXC   =    0.000                                                            
   RMAX   =    2.658    core radius for proj-oper                               
   RAUG   =    1.300    factor for augmentation sphere                          
   RDEP   =    2.761    radius for radial grids                                 
   RDEPT  =    2.203    core radius for aug-charge                              
                                                                                
   Atomic configuration                                                         
   16 entries                                                                   
     n  l   j            E        occ.                                          
     1  0  0.50    -78401.1885   2.0000                                         
     2  0  0.50    -13770.7750   2.0000                                         
     2  1  1.50    -11931.0468   6.0000                                         
     3  0  0.50     -3234.7234   2.0000                                         
     3  1  1.50     -2699.2216   6.0000                                         
     3  2  2.50     -2119.5714  10.0000                                         
     4  0  0.50      -695.1528   2.0000                                         
     4  1  1.50      -519.6034   6.0000                                         
     4  2  2.50      -306.6786  10.0000                                         
     4  3  3.50       -70.1041  14.0000                                         
     5  0  0.50      -101.7747   2.0000                                         
     5  1  1.50       -55.9873   6.0000                                         
     5  2  2.50        -6.1423   9.0000                                         
     6  0  0.50        -5.6573   1.0000                                         
     6  1  1.50        -6.8029   0.0000                                         
     5  3  2.50        -1.3606   0.0000                                         
   Description                                                                  
     l       E           TYP  RCUT    TYP  RCUT                                 
     2     -6.1423404     23  2.500                                             
     2     -7.5029230     23  2.500                                             
     0     -5.6573207     23  2.500                                             
     0      0.7416693     23  2.500                                             
     1     -2.7211652     23  2.600                                             
     1     20.4087390     23  2.600                                             
     3     -1.3605826     23  2.500                                             
  local pseudopotential read in
  partial core-charges read in
  partial kinetic energy density read in
  atomic valenz-charges read in
  non local Contribution for L=           2  read in
    real space projection operators read in
  non local Contribution for L=           2  read in
    real space projection operators read in
  non local Contribution for L=           0  read in
    real space projection operators read in
  non local Contribution for L=           0  read in
    real space projection operators read in
  non local Contribution for L=           1  read in
    real space projection operators read in
  non local Contribution for L=           1  read in
    real space projection operators read in
    PAW grid and wavefunctions read in
 
   number of l-projection  operators is LMAX  =           6
   number of lm-projection operators is LMMAX =          18
 
 POTCAR:    PAW_PBE H 15Jun2001                   
   VRHFIN =H: ultrasoft test                                                    
   LEXCH  = PE                                                                  
   EATOM  =    12.4884 eV,    0.9179 Ry                                         
                                                                                
   TITEL  = PAW_PBE H 15Jun2001                                                 
   LULTRA =        F    use ultrasoft PP ?                                      
   IUNSCR =        0    unscreen: 0-lin 1-nonlin 2-no                           
   RPACOR =    0.000    partial core radius                                     
   POMASS =    1.000; ZVAL   =    1.000    mass and valenz                      
   RCORE  =    1.100    outmost cutoff radius                                   
   RWIGS  =    0.700; RWIGS  =    0.370    wigner-seitz radius (au A)           
   ENMAX  =  250.000; ENMIN  =  200.000 eV                                      
   RCLOC  =    0.701    cutoff for local pot                                    
   LCOR   =        T    correct aug charges                                     
   LPAW   =        T    paw PP                                                  
   EAUG   =  400.000                                                            
   RMAX   =    1.123    core radius for proj-oper                               
   RAUG   =    1.200    factor for augmentation sphere                          
   RDEP   =    1.112    radius for radial grids                                 
   RDEPT  =    0.926    core radius for aug-charge                              
                                                                                
   Atomic configuration                                                         
    2 entries                                                                   
     n  l   j            E        occ.                                          
     1  0  0.50        -6.4927   1.0000                                         
     2  1  0.50        -3.4015   0.0000                                         
   Description                                                                  
     l       E           TYP  RCUT    TYP  RCUT                                 
     0     -6.4927494     23  1.100                                             
     0      6.8029130     23  1.100                                             
     1     -4.0817478     23  1.100                                             
  local pseudopotential read in
  atomic valenz-charges read in
  non local Contribution for L=           0  read in
    real space projection operators read in
  non local Contribution for L=           0  read in
    real space projection operators read in
  non local Contribution for L=           1  read in
    real space projection operators read in
    PAW grid and wavefunctions read in
 
   number of l-projection  operators is LMAX  =           3
   number of lm-projection operators is LMMAX =           5
 
 Optimization of the real space projectors (new method)

 maximal supplied QI-value         = 14.36
 optimisation between [QCUT,QGAM] = [ 11.92, 23.98] = [ 39.79,161.09] Ry 
 Optimized for a Real-space Cutoff    1.49 Angstroem

   l    n(q)    QCUT    max X(q) W(low)/X(q) W(high)/X(q)  e(spline) 
   2     10    11.920    66.195    0.79E-04    0.18E-03    0.24E-06
   2     10    11.920    64.643    0.81E-04    0.19E-03    0.24E-06
   0     11    11.920    95.520    0.28E-04    0.54E-04    0.18E-06
   0     11    11.920    63.403    0.27E-04    0.52E-04    0.17E-06
   1     10    11.920    19.961    0.18E-04    0.11E-03    0.23E-06
   1     10    11.920    13.289    0.25E-04    0.87E-04    0.19E-06
 Optimization of the real space projectors (new method)

 maximal supplied QI-value         = 34.20
 optimisation between [QCUT,QGAM] = [ 11.97, 23.94] = [ 40.13,160.53] Ry 
 Optimized for a Real-space Cutoff    1.18 Angstroem

   l    n(q)    QCUT    max X(q) W(low)/X(q) W(high)/X(q)  e(spline) 
   0      8    11.971    19.460    0.15E-03    0.31E-03    0.25E-06
   0      8    11.971    12.209    0.13E-03    0.29E-03    0.25E-06
   1      8    11.971     4.655    0.22E-03    0.24E-03    0.21E-06
  PAW_PBE Pt 04Feb2005                  :
 energy of atom  1       EATOM= -729.1176
 kinetic energy error for atom=    0.0021 (will be added to EATOM!!)
  PAW_PBE H 15Jun2001                   :
 energy of atom  2       EATOM=  -12.4884
 kinetic energy error for atom=    0.0008 (will be added to EATOM!!)
 
 
 POSCAR: Pt111\(1\1\1)\(2)                       
  positions in cartesian coordinates
  No initial velocities read in
 exchange correlation table for  LEXCH =        8
   RHO(1)=    0.500       N(1)  =     2000
   RHO(2)=  100.500       N(2)  =     4000
 


--------------------------------------------------------------------------------------------------------


 ion  position               nearest neighbor table
   1  1.000  0.000  0.056-   5 2.64   9 2.64  13 2.64  29 2.64  57 2.64  37 2.64  42 2.87  14 2.87
                            54 2.87
   2  0.333  0.167  0.178-  30 2.64  26 2.64  38 2.64  42 2.64  14 2.64   6 2.64  11 2.83   7 2.86
                            15 2.87   9 2.87  21 2.87  13 2.87
   3  0.168  0.334  0.299-  15 2.62  43 2.62   7 2.63  39 2.63  27 2.65  31 2.65   8 2.81   6 2.86
                            10 2.86  14 2.87  48 2.97  12 2.97
   4  1.000  0.000  0.419-  12 2.62  60 2.64  40 2.64  32 2.64  16 2.64   8 2.64   7 2.86  63 2.87
                            27 2.88
   5  1.000  0.250  0.056-   1 2.64  45 2.64  33 2.64   9 2.64  29 2.64  25 2.64  14 2.87  10 2.87
                            18 2.87
   6  0.333  0.417  0.178-  26 2.64  62 2.64  10 2.64  34 2.64  14 2.64   2 2.64   3 2.86  15 2.86
                            43 2.86  45 2.87  49 2.87   9 2.87
   7  0.167  0.085  0.299-  15 2.63   3 2.63  27 2.64  11 2.64  63 2.65  35 2.65   2 2.86  14 2.86
                            16 2.86   4 2.86  42 2.87  12 2.95
   8  0.999  0.250  0.416-  28 2.63  32 2.63  36 2.64   4 2.64  48 2.66  12 2.66   3 2.81  31 2.82
                            27 2.83
   9  0.250  0.250  0.056-  21 2.64  13 2.64   1 2.64  49 2.64  45 2.64   5 2.64   2 2.87  14 2.87
                             6 2.87
  10  0.083  0.417  0.178-  34 2.64   6 2.64  46 2.64  14 2.64  18 2.64  22 2.64  31 2.83  39 2.86
                             3 2.86  33 2.87  45 2.87   5 2.87
  11  0.417  0.083  0.297-  47 2.63  35 2.64   7 2.64  23 2.64  19 2.65  15 2.65  24 2.83  38 2.83
                             2 2.83  30 2.83  16 2.88  20 2.91
  12  0.249  0.247  0.426-  65 1.85  16 2.62   4 2.62  24 2.66   8 2.66  52 2.69  48 2.69   7 2.95
                             3 2.97  15 2.97
  13  0.250  0.000  0.056-  21 2.64   9 2.64  17 2.64   1 2.64  37 2.64  41 2.64  38 2.87   2 2.87
                            42 2.87
  14  0.083  0.167  0.178-  42 2.64  54 2.64   6 2.64   2 2.64  10 2.64  18 2.64  27 2.83   7 2.86
                             3 2.87   5 2.87   1 2.87   9 2.87
  15  0.416  0.334  0.299-   3 2.62  43 2.62   7 2.63  55 2.63  11 2.65  19 2.65  24 2.81   6 2.86
                            26 2.86   2 2.87  52 2.97  12 2.97
  16  0.250  0.000  0.419-  12 2.62  44 2.64  40 2.64  20 2.64   4 2.64  24 2.64   7 2.86  35 2.87
                            11 2.88
  17  0.500  0.000  0.056-  29 2.64  25 2.64  13 2.64  21 2.64  41 2.64  53 2.64  58 2.87  30 2.87
                            38 2.87
  18  0.833  0.167  0.178-  54 2.64  58 2.64  22 2.64  10 2.64  30 2.64  14 2.64  27 2.83  31 2.83
                            23 2.86  25 2.87  29 2.87   5 2.87
  19  0.667  0.334  0.297-  31 2.63  59 2.64  55 2.64  23 2.64  11 2.65  15 2.65  24 2.82  22 2.83
                            26 2.83  30 2.83  64 2.88  28 2.91
  20  0.500  0.000  0.421-  56 2.63  24 2.63  16 2.64  44 2.64  32 2.64  28 2.64  23 2.88  11 2.91
                            47 2.91
  21  0.500  0.250  0.056-  25 2.64  61 2.64   9 2.64  13 2.64  49 2.64  17 2.64  30 2.87   2 2.87
                            26 2.87
  22  0.833  0.417  0.178-  50 2.64  26 2.64  30 2.64  18 2.64  46 2.64  10 2.64  19 2.83  31 2.83
                            59 2.84  61 2.87  25 2.87  33 2.87
  23  0.667  0.083  0.299-  31 2.64  19 2.64  51 2.64  47 2.64  27 2.64  11 2.64  18 2.86  30 2.86
                            58 2.86  32 2.88  20 2.88  28 2.88
  24  0.501  0.250  0.416-  28 2.63  20 2.63  64 2.64  16 2.64  52 2.66  12 2.66  15 2.81  19 2.82
                            11 2.83
  25  0.750  0.250  0.056-  17 2.64  21 2.64  29 2.64  61 2.64  33 2.64   5 2.64  18 2.87  22 2.87
                            30 2.87
  26  0.583  0.417  0.178-   6 2.64   2 2.64  22 2.64  30 2.64  62 2.64  50 2.64  19 2.83  55 2.86
                            15 2.86  49 2.87  61 2.87  21 2.87
  27  0.917  0.083  0.297-  51 2.63  63 2.64   7 2.64  23 2.64  31 2.65   3 2.65   8 2.83  54 2.83
                            14 2.83  18 2.83   4 2.88  32 2.91
  28  0.750  0.251  0.421-  24 2.63   8 2.63  64 2.64  36 2.64  20 2.64  32 2.64  23 2.88  19 2.91
                            31 2.91
  29  0.750  0.000  0.056-  17 2.64  25 2.64   5 2.64  53 2.64   1 2.64  57 2.64  54 2.87  18 2.87
                            58 2.87
  30  0.583  0.167  0.178-   2 2.64  38 2.64  58 2.64  26 2.64  22 2.64  18 2.64  11 2.83  19 2.83
                            23 2.86  21 2.87  17 2.87  25 2.87
  31  0.917  0.334  0.297-  19 2.63  59 2.64  39 2.64  23 2.64  27 2.65   3 2.65   8 2.82  22 2.83
                            10 2.83  18 2.83  36 2.88  28 2.91
  32  0.750  0.000  0.421-  56 2.63   8 2.63   4 2.64  60 2.64  20 2.64  28 2.64  23 2.88  27 2.91
                            51 2.91
  33  1.000  0.500  0.056-  37 2.64  41 2.64   5 2.64  45 2.64  25 2.64  61 2.64  10 2.87  46 2.87
                            22 2.87
  34  0.333  0.667  0.178-  62 2.64  10 2.64  58 2.64  46 2.64   6 2.64  38 2.64  47 2.83  39 2.86
                            43 2.86  41 2.87  45 2.87  53 2.87
  35  0.167  0.833  0.297-  59 2.64  63 2.64  47 2.64  11 2.64   7 2.65  39 2.65  42 2.84  38 2.84
                            46 2.84  40 2.86  44 2.87  16 2.87
  36  0.000  0.500  0.419-  48 2.62  64 2.64  40 2.64  44 2.64  28 2.64   8 2.64  39 2.86  59 2.87
                            31 2.88
  37  1.000  0.750  0.056-  33 2.64  41 2.64  61 2.64  57 2.64  13 2.64   1 2.64  46 2.87  50 2.87
                            42 2.87
  38  0.333  0.917  0.178-  58 2.64  30 2.64   2 2.64  42 2.64  34 2.64  46 2.64  47 2.83  11 2.83
                            35 2.84  13 2.87  17 2.87  41 2.87
  39  0.167  0.583  0.299-  43 2.63   3 2.63  31 2.64  47 2.64  59 2.65  35 2.65  34 2.86  10 2.86
                            36 2.86  44 2.86  46 2.87  48 2.95
  40  0.000  0.750  0.418-  36 2.64  64 2.64  16 2.64   4 2.64  44 2.64  60 2.64  63 2.86  35 2.86
                            59 2.86
  41  0.250  0.750  0.056-  45 2.64  33 2.64  37 2.64  53 2.64  17 2.64  13 2.64  34 2.87  46 2.87
                            38 2.87
  42  0.083  0.917  0.178-  14 2.64   2 2.64  38 2.64  46 2.64  50 2.64  54 2.64  63 2.84  35 2.84
                             7 2.87   1 2.87  13 2.87  37 2.87
  43  0.416  0.582  0.299-  15 2.62   3 2.62  39 2.63  55 2.63  51 2.65  47 2.65  56 2.81   6 2.86
                            62 2.86  34 2.86  52 2.97  48 2.97
  44  0.250  0.750  0.419-  48 2.62  16 2.64  40 2.64  36 2.64  20 2.64  56 2.64  39 2.86  35 2.87
                            47 2.88
  45  0.250  0.500  0.056-  41 2.64  53 2.64   5 2.64   9 2.64  49 2.64  33 2.64   6 2.87  10 2.87
                            34 2.87
  46  0.083  0.667  0.178-  34 2.64  50 2.64  10 2.64  42 2.64  22 2.64  38 2.64  59 2.84  35 2.84
                            39 2.87  37 2.87  33 2.87  41 2.87
  47  0.417  0.834  0.297-  11 2.63  35 2.64  23 2.64  39 2.64  51 2.65  43 2.65  56 2.83  38 2.83
                            58 2.83  34 2.83  44 2.88  20 2.91
  48  0.249  0.502  0.426-  65 1.86  44 2.62  36 2.62   8 2.66  56 2.66  52 2.68  12 2.69  39 2.95
                            43 2.97   3 2.97
  49  0.500  0.500  0.056-  61 2.64  53 2.64  57 2.64  21 2.64   9 2.64  45 2.64  26 2.87   6 2.87
                            62 2.87
  50  0.833  0.667  0.178-  22 2.64  46 2.64  26 2.64  42 2.64  54 2.64  62 2.64  59 2.84  63 2.84
                            55 2.87  57 2.87  61 2.87  37 2.87
  51  0.667  0.834  0.297-  27 2.63  63 2.64  23 2.64  55 2.64  47 2.65  43 2.65  56 2.83  54 2.83
                            58 2.83  62 2.83  60 2.88  32 2.91
  52  0.503  0.502  0.426-  65 1.86  60 2.62  64 2.62  24 2.66  56 2.66  48 2.68  12 2.69  55 2.95
                            43 2.97  15 2.97
  53  0.500  0.750  0.056-  49 2.64  57 2.64  45 2.64  41 2.64  29 2.64  17 2.64  62 2.87  34 2.87
                            58 2.87
  54  0.833  0.917  0.178-  18 2.64  14 2.64  50 2.64  58 2.64  42 2.64  62 2.64  51 2.83  27 2.83
                            63 2.84  29 2.87   1 2.87  57 2.87
  55  0.665  0.583  0.299-  43 2.63  15 2.63  19 2.64  51 2.64  59 2.65  63 2.65  62 2.86  26 2.86
                            64 2.86  60 2.86  50 2.87  52 2.95
  56  0.501  0.751  0.416-  32 2.63  20 2.63  60 2.64  44 2.64  52 2.66  48 2.66  43 2.81  47 2.83
                            51 2.83
  57  0.750  0.750  0.056-  61 2.64  49 2.64  53 2.64  37 2.64   1 2.64  29 2.64  50 2.87  62 2.87
                            54 2.87
  58  0.583  0.917  0.178-  38 2.64  30 2.64  18 2.64  34 2.64  62 2.64  54 2.64  47 2.83  51 2.83
                            23 2.86  17 2.87  29 2.87  53 2.87
  59  0.917  0.584  0.297-  35 2.64  63 2.64  31 2.64  19 2.64  55 2.65  39 2.65  46 2.84  50 2.84
                            22 2.84  40 2.86  36 2.87  64 2.87
  60  0.750  0.750  0.419-  52 2.62   4 2.64  40 2.64  64 2.64  32 2.64  56 2.64  55 2.86  63 2.87
                            51 2.88
  61  0.750  0.500  0.056-  49 2.64  57 2.64  21 2.64  25 2.64  37 2.64  33 2.64  22 2.87  26 2.87
                            50 2.87
  62  0.583  0.667  0.178-  34 2.64   6 2.64  26 2.64  58 2.64  54 2.64  50 2.64  51 2.83  55 2.86
                            43 2.86  53 2.87  49 2.87  57 2.87
  63  0.917  0.833  0.297-  59 2.64  35 2.64  51 2.64  27 2.64   7 2.65  55 2.65  42 2.84  50 2.84
                            54 2.84  40 2.86  60 2.87   4 2.87
  64  0.750  0.500  0.419-  52 2.62  36 2.64  40 2.64  60 2.64  28 2.64  24 2.64  55 2.86  59 2.87
                            19 2.88
  65  0.333  0.416  0.477-  12 1.85  48 1.86  52 1.86
 
  LATTYP: Found a hexagonal cell.
 ALAT       =    10.5600004196
 C/A-ratio  =     1.8939393187
  
  Lattice vectors:
  
 A1 = (  10.5600004196,   0.0000000000,   0.0000000000)
 A2 = (  -5.2800002098,   9.1452286274,   0.0000000000)
 A3 = (   0.0000000000,   0.0000000000,  20.0000000000)


Analysis of symmetry for initial positions (statically):
=====================================================================
 Subroutine PRICEL returns:
 Original cell was already a primitive cell.
 

 Routine SETGRP: Setting up the symmetry group for a 
 hexagonal supercell.


 Subroutine GETGRP returns: Found  1 space group operations
 (whereof  1 operations were pure point group operations)
 out of a pool of 24 trial point group operations.


The static configuration has the point symmetry C_1 .


Analysis of symmetry for dynamics (positions and initial velocities):
=====================================================================
 Subroutine PRICEL returns:
 Original cell was already a primitive cell.
 

 Routine SETGRP: Setting up the symmetry group for a 
 hexagonal supercell.


 Subroutine GETGRP returns: Found  1 space group operations
 (whereof  1 operations were pure point group operations)
 out of a pool of 24 trial point group operations.


The dynamic configuration has the point symmetry C_1 .


Analysis of constrained symmetry for selective dynamics:
=====================================================================
 Subroutine PRICEL returns:
 Original cell was already a primitive cell.
 

 Routine SETGRP: Setting up the symmetry group for a 
 hexagonal supercell.


 Subroutine GETGRP returns: Found  1 space group operations
 (whereof  1 operations were pure point group operations)
 out of a pool of 24 trial point group operations.


The constrained configuration has the point symmetry C_1 .


Analysis of structural, dynamic, and magnetic symmetry:
=====================================================================
 Subroutine PRICEL returns:
 Original cell was already a primitive cell.
 

 Routine SETGRP: Setting up the symmetry group for a 
 hexagonal supercell.


 Subroutine GETGRP returns: Found  1 space group operations
 (whereof  1 operations were pure point group operations)
 out of a pool of 24 trial point group operations.


The magnetic configuration has the point symmetry C_1 .


 Subroutine INISYM returns: Found  1 space group operations
 (whereof  1 operations are pure point group operations),
 and found     1 'primitive' translations

 
 
 KPOINTS: mesh auto                               

Automatic generation of k-mesh.
Space group operators:
 irot       det(A)        alpha          n_x          n_y          n_z        tau_x        tau_y        tau_z
    1     1.000000     0.000000     1.000000     0.000000     0.000000     0.000000     0.000000     0.000000
 
 Subroutine IBZKPT returns following result:
 ===========================================
 
 Found      4 irreducible k-points:
 
 Following reciprocal coordinates:
            Coordinates               Weight
  0.000000  0.000000  0.000000      1.000000
  0.500000 -0.000000  0.000000      1.000000
  0.000000  0.500000  0.000000      1.000000
  0.500000  0.500000  0.000000      1.000000
 
 Following cartesian coordinates:
            Coordinates               Weight
  0.000000  0.000000  0.000000      1.000000
  0.047348  0.027337  0.000000      1.000000
  0.000000  0.054673  0.000000      1.000000
  0.047348  0.082010  0.000000      1.000000
 


--------------------------------------------------------------------------------------------------------




 Dimension of arrays:
   k-points           NKPTS =      4   k-points in BZ     NKDIM =      4   number of bands    NBANDS=    420
   number of dos      NEDOS =    301   number of ions     NIONS =     65
   non local maximal  LDIM  =      6   non local SUM 2l+1 LMDIM =     18
   total plane-waves  NPLWV = ******
   max r-space proj   IRMAX =   8171   max aug-charges    IRDMAX=  35597
   dimension x,y,z NGX =    84 NGY =   84 NGZ =  160
   dimension x,y,z NGXF=   168 NGYF=  168 NGZF=  320
   support grid    NGXF=   168 NGYF=  168 NGZF=  320
   ions per type =              64   1
   NGX,Y,Z   is equivalent  to a cutoff of  13.22, 13.22, 13.30 a.u.
   NGXF,Y,Z  is equivalent  to a cutoff of  26.45, 26.45, 26.60 a.u.

 SYSTEM =  Pt111                                   
 POSCAR =  Pt111\(1\1\1)\(2)                       

 Startparameter for this run:
   NWRITE =      2    write-flag & timer
   PREC   = accura    normal or accurate (medium, high low for compatibility)
   ISTART =      0    job   : 0-new  1-cont  2-samecut
   ICHARG =      2    charge: 1-file 2-atom 10-const
   ISPIN  =      2    spin polarized calculation?
   LNONCOLLINEAR =      F non collinear calculations
   LSORBIT =      F    spin-orbit coupling
   INIWAV =      1    electr: 0-lowe 1-rand  2-diag
   LASPH  =      F    aspherical Exc in radial PAW
   METAGGA=      F    non-selfconsistent MetaGGA calc.

 Electronic Relaxation 1
   ENCUT  =  550.0 eV  40.42 Ry    6.36 a.u.  20.19 20.19 38.24*2*pi/ulx,y,z
   ENINI  =  550.0     initial cutoff
   ENAUG  =  400.0 eV  augmentation charge cutoff
   NELM   =    200;   NELMIN=  2; NELMDL= -5     # of ELM steps 
   EDIFF  = 0.1E-04   stopping-criterion for ELM
   LREAL  =      T    real-space projection
   NLSPLINE    = F    spline interpolate recip. space projectors
   LCOMPAT=      F    compatible to vasp.4.4
   GGA_COMPAT  = T    GGA compatible to vasp.4.4-vasp.4.6
   LMAXPAW     = -100 max onsite density
   LMAXMIX     =    2 max onsite mixed and CHGCAR
   VOSKOWN=      0    Vosko Wilk Nusair interpolation
   ROPT   =   -0.00025  -0.00025
 Ionic relaxation
   EDIFFG = -.5E-01   stopping-criterion for IOM
   NSW    =    300    number of steps for IOM
   NBLOCK =      1;   KBLOCK =    300    inner block; outer block 
   IBRION =      2    ionic relax: 0-MD 1-quasi-New 2-CG
   NFREE  =      1    steps in history (QN), initial steepest desc. (CG)
   ISIF   =      2    stress and relaxation
   IWAVPR =     11    prediction:  0-non 1-charg 2-wave 3-comb
   ISYM   =      2    0-nonsym 1-usesym 2-fastsym
   LCORR  =      T    Harris-Foulkes like correction to forces

   POTIM  = 0.5000    time-step for ionic-motion
   TEIN   =    0.0    initial temperature
   TEBEG  =    0.0;   TEEND  =   0.0 temperature during run
   SMASS  =  -3.00    Nose mass-parameter (am)
   estimated Nose-frequenzy (Omega)   =  0.10E-29 period in steps =****** mass=  -0.255E-26a.u.
   SCALEE = 1.0000    scale energy and forces
   NPACO  =    256;   APACO  = 16.0  distance and # of slots for P.C.
   PSTRESS=    0.0 pullay stress

  Mass of Ions in am
   POMASS = 195.08  1.00
  Ionic Valenz
   ZVAL   =  10.00  1.00
  Atomic Wigner-Seitz radii
   RWIGS  =  -1.00 -1.00
  virtual crystal weights 
   VCA    =   1.00  1.00
   NELECT =     641.0000    total number of electrons
   NUPDOWN=      -1.0000    fix difference up-down

 DOS related values:
   EMIN   =  10.00;   EMAX   =-10.00  energy-range for DOS
   EFERMI =   0.00
   ISMEAR =     1;   SIGMA  =   0.10  broadening in eV -4-tet -1-fermi 0-gaus

 Electronic relaxation 2 (details)
   IALGO  =     68    algorithm
   LDIAG  =      T    sub-space diagonalisation (order eigenvalues)
   LSUBROT=      F    optimize rotation matrix (better conditioning)
   TURBO    =      0    0=normal 1=particle mesh
   IRESTART =      0    0=no restart 2=restart with 2 vectors
   NREBOOT  =      0    no. of reboots
   NMIN     =      0    reboot dimension
   EREF     =   0.00    reference energy to select bands
   IMIX   =      4    mixing-type and parameters
     AMIX     =   0.40;   BMIX     =  1.00
     AMIX_MAG =   1.60;   BMIX_MAG =  1.00
     AMIN     =   0.10
     WC   =   100.;   INIMIX=   1;  MIXPRE=   1;  MAXMIX= -45

 Intra band minimization:
   WEIMIN = 0.0010     energy-eigenvalue tresh-hold
   EBREAK =  0.60E-08  absolut break condition
   DEPER  =   0.30     relativ break condition  

   TIME   =   0.40     timestep for ELM

  volume/ion in A,a.u.               =      29.71       200.53
  Fermi-wavevector in a.u.,A,eV,Ry     =   1.133439  2.141888 17.479175  1.284683
  Thomas-Fermi vector in A             =   2.270141
 
 Write flags
   LWAVE        =      F    write WAVECAR
   LDOWNSAMPLE  =      F    k-point downsampling of WAVECAR
   LCHARG       =      F    write CHGCAR
   LVTOT        =      F    write LOCPOT, total local potential
   LVHAR        =      F    write LOCPOT, Hartree potential only
   LELF         =      F    write electronic localiz. function (ELF)
   LORBIT       =      0    0 simple, 1 ext, 2 COOP (PROOUT), +10 PAW based schemes


 Dipole corrections
   LMONO  =      F    monopole corrections only (constant potential shift)
   LDIPOL =      F    correct potential (dipole corrections)
   IDIPOL =      0    1-x, 2-y, 3-z, 4-all directions 
   EPSILON=  1.0000000 bulk dielectric constant

 Exchange correlation treatment:
   GGA     =    --    GGA type
   LEXCH   =     8    internal setting for exchange type
   VOSKOWN=      0    Vosko Wilk Nusair interpolation
   LHFCALC =     F    Hartree Fock is set to
   LHFONE  =     F    Hartree Fock one center treatment
   AEXX    =    0.0000 exact exchange contribution

 Linear response parameters
   LEPSILON=     F    determine dielectric tensor
   LRPA    =     F    only Hartree local field effects (RPA)
   LNABLA  =     F    use nabla operator in PAW spheres
   LVEL    =     F    velocity operator in full k-point grid
   LINTERFAST=   F  fast interpolation
   KINTER  =     0    interpolate to denser k-point grid
   CSHIFT  =0.1000    complex shift for real part using Kramers Kronig
   OMEGAMAX=  -1.0    maximum frequency
   DEG_THRESHOLD= 0.2000000E-02 threshold for treating states as degnerate
   RTIME   =   -0.100 relaxation time in fs
  (WPLASMAI=    0.000 imaginary part of plasma frequency in eV, 0.658/RTIME)
   DFIELD  = 0.0000000 0.0000000 0.0000000 field for delta impulse in time
 
 Orbital magnetization related:
   ORBITALMAG=     F  switch on orbital magnetization
   LCHIMAG   =     F  perturbation theory with respect to B field
   DQ        =  0.001000  dq finite difference perturbation B field
   LLRAUG    =     F  two centre corrections for induced B field



--------------------------------------------------------------------------------------------------------


 conjugate gradient relaxation of ions
   using selective dynamics as specified on POSCAR
   WARNING: If single coordinates had been selected the selection of coordinates
            is made according to the corresponding   d i r e c t   coordinates!
            Don't support selection of single cartesian coordinates -- sorry ...
  !
 charge density and potential will be updated during run
 spin polarized calculation
 RMM-DIIS sequential band-by-band and
  variant of blocked Davidson during initial phase
 perform sub-space diagonalisation
    before iterative eigenvector-optimisation
 modified Broyden-mixing scheme, WC =      100.0
 initial mixing is a Kerker type mixing with AMIX =  0.4000 and BMIX =      1.0000
 Hartree-type preconditioning will be used
 using additional bands           99
 real space projection scheme for non local part
 use partial core corrections
 calculate Harris-corrections to forces 
   (improved forces if not selfconsistent)
 use gradient corrections 
 use of overlap-Matrix (Vanderbilt PP)
 Methfessel and Paxton  Order N= 1 SIGMA  =   0.10


--------------------------------------------------------------------------------------------------------


  energy-cutoff  :      550.00
  volume of cell :     1931.47
      direct lattice vectors                 reciprocal lattice vectors
    10.560000420  0.000000000  0.000000000     0.094696966  0.054673319  0.000000000
    -5.280000210  9.145228627  0.000000000     0.000000000  0.109346638  0.000000000
     0.000000000  0.000000000 20.000000000     0.000000000  0.000000000  0.050000000

  length of vectors
    10.560000420 10.560000420 20.000000000     0.109346638  0.109346638  0.050000000


 
 k-points in units of 2pi/SCALE and weight: mesh auto                               
   0.00000000  0.00000000  0.00000000       0.250
   0.04734848  0.02733666  0.00000000       0.250
   0.00000000  0.05467332  0.00000000       0.250
   0.04734848  0.08200998  0.00000000       0.250
 
 k-points in reciprocal lattice and weights: mesh auto                               
   0.00000000  0.00000000  0.00000000       0.250
   0.50000000 -0.00000000  0.00000000       0.250
   0.00000000  0.50000000  0.00000000       0.250
   0.50000000  0.50000000  0.00000000       0.250
 
 position of ions in fractional coordinates (direct lattice) 
   0.99999844  0.00000156  0.05579229
   0.33333173  0.16666826  0.17752397
   0.16789213  0.33403322  0.29863071
   0.99999387  0.00001869  0.41923595
   0.99999844  0.25000155  0.05579229
   0.33333172  0.41666827  0.17752397
   0.16745864  0.08491248  0.29856887
   0.99903384  0.24980324  0.41581712
   0.24999844  0.25000155  0.05579229
   0.08333172  0.41666827  0.17752397
   0.41656665  0.08314265  0.29677035
   0.24868992  0.24737517  0.42607214
   0.24999844  0.00000156  0.05579229
   0.08333172  0.16666826  0.17752397
   0.41614589  0.33403322  0.29863071
   0.25002948  0.00001869  0.41923595
   0.49999844  0.00000156  0.05579229
   0.83333168  0.16666826  0.17752397
   0.66707099  0.33364725  0.29678313
   0.50000026  0.00017561  0.42052524
   0.49999843  0.25000155  0.05579229
   0.83333168  0.41666827  0.17752397
   0.66674699  0.08348911  0.29863634
   0.50077406  0.24980324  0.41581712
   0.74999841  0.25000155  0.05579229
   0.58333168  0.41666827  0.17752397
   0.91658082  0.08314265  0.29677035
   0.75025392  0.25050324  0.42060703
   0.74999842  0.00000156  0.05579229
   0.58333166  0.16666826  0.17752397
   0.91658108  0.33364725  0.29678313
   0.75018000  0.00017561  0.42052524
   0.99999844  0.50000154  0.05579229
   0.33333171  0.66666826  0.17752397
   0.16659900  0.83340150  0.29744137
   0.00007607  0.50044686  0.41915474
   0.99999843  0.75000151  0.05579229
   0.33333173  0.91666828  0.17752397
   0.16745807  0.58274108  0.29851833
   0.00013306  0.75026142  0.41832325
   0.24999843  0.75000151  0.05579229
   0.08333173  0.91666828  0.17752397
   0.41615746  0.58231005  0.29864645
   0.24997829  0.75027909  0.41916804
   0.24999844  0.50000154  0.05579229
   0.08333171  0.66666826  0.17752397
   0.41656907  0.83365652  0.29676610
   0.24873591  0.50167992  0.42590148
   0.49999844  0.50000154  0.05579229
   0.83333171  0.66666826  0.17752397
   0.66709232  0.83365652  0.29676610
   0.50294868  0.50167992  0.42590148
   0.49999843  0.75000151  0.05579229
   0.83333170  0.91666828  0.17752397
   0.66528789  0.58274108  0.29851833
   0.50066776  0.75133082  0.41581697
   0.74999841  0.75000151  0.05579229
   0.58333168  0.91666828  0.17752397
   0.91681226  0.58361965  0.29743809
   0.75030547  0.75027909  0.41916804
   0.74999839  0.50000154  0.05579229
   0.58333166  0.66666826  0.17752397
   0.91680733  0.83340150  0.29744137
   0.75037541  0.50044686  0.41915474
   0.33308831  0.41617662  0.47690930
 
 position of ions in cartesian coordinates  (Angst):
  10.55997578  0.00001422  1.11584590
   2.63997474  1.52421935  3.55047947
   0.00924549  3.05481019  5.97261418
  10.55983704  0.00017093  8.38471901
   9.23997574  2.28632132  1.11584590
   1.31997457  3.81052657  3.55047947
   1.32002541  0.77654402  5.97137747
   9.23083656  2.28450776  8.31634239
   1.31997542  2.28632132  1.11584590
  -1.32002553  3.81052657  3.55047947
   3.95995078  0.76035853  5.93540695
   1.32002469  2.26230245  8.52144271
   2.63997547  0.00001422  1.11584590
  -0.00002541  1.52421935  3.55047947
   2.63080531  3.05481019  5.97261418
   2.64021275  0.00017093  8.38471901
   5.27997557  0.00001422  1.11584590
   7.91997448  1.52421935  3.55047947
   5.28261243  3.05128036  5.93566267
   5.27907572  0.00160603  8.41050487
   3.95997540  2.28632132  1.11584590
   6.59997431  3.81052657  3.55047947
   6.60002598  0.76352699  5.97272689
   3.96921312  2.28450776  8.31634239
   6.59997527  2.28632132  1.11584590
   3.95997420  3.81052657  3.55047947
   9.24010069  0.76035853  5.93540695
   6.60002455  2.29090940  8.41214053
   7.91997543  0.00001422  1.11584590
   5.27997414  1.52421935  3.55047947
   7.91743903  3.05128036  5.93566267
   7.92097384  0.00160603  8.41050487
   7.91997567  4.57262842  1.11584590
  -0.00002559  6.09683366  3.55047947
  -2.64107463  7.62164727  5.94882736
  -2.64155626  4.57670097  8.38309476
   6.59997574  6.85893527  1.11584590
  -1.32002553  8.38314100  3.55047947
  -1.30851573  5.32930039  5.97036661
  -3.95997540  6.86131224  8.36646503
  -1.32002457  6.85893527  1.11584590
  -3.96002563  8.38314100  3.55047947
   1.32002577  5.32535854  5.97292906
  -1.32170294  6.86147378  8.38336070
  -0.00002464  4.57262842  1.11584590
  -2.64002570  6.09683366  3.55047947
  -0.00273706  7.62397946  5.93532196
  -0.02221877  4.58797761  8.51802966
   2.63997546  4.57262842  1.11584590
   5.27997462  6.09683366  3.55047947
   2.64278859  7.62397946  5.93532196
   2.66226813  4.58797761  8.51802966
   1.31997553  6.85893527  1.11584590
   3.95997444  8.38314100  3.55047947
   3.94856739  5.32930039  5.97036661
   1.32002481  6.87109215  8.31633948
   3.95997540  6.85893527  1.11584590
   1.31997410  8.38314100  3.55047947
   6.60002598  5.33733514  5.94876182
   3.96175232  6.86147378  8.38336070
   5.27997509  4.57262842  1.11584590
   2.63997404  6.09683366  3.55047947
   5.28112569  7.62164727  5.94882736
   5.28160516  4.57670097  8.38309476
   1.32000005  3.80603036  9.53818590
 


--------------------------------------------------------------------------------------------------------


 k-point  1 :   0.0000 0.0000 0.0000  plane waves:   56579
 k-point  2 :   0.5000-0.0000 0.0000  plane waves:   56606
 k-point  3 :   0.0000 0.5000 0.0000  plane waves:   56606
 k-point  4 :   0.5000 0.5000 0.0000  plane waves:   56606

 maximum and minimum number of plane-waves per node :     14185    14108

 maximum number of plane-waves:     56606
 maximum index in each direction: 
   IXMAX=   20   IYMAX=   20   IZMAX=   38
   IXMIN=  -20   IYMIN=  -20   IZMIN=  -38


 real space projection operators:
  total allocation   :      71204.30 KBytes
  max/ min on nodes  :      17806.59      17790.68


 parallel 3D FFT for wavefunctions:
    minimum data exchange during FFTs selected (reduces bandwidth)
 parallel 3D FFT for charge:
    minimum data exchange during FFTs selected (reduces bandwidth)


 total amount of memory used by VASP MPI-rank0   200598. kBytes
=======================================================================

   base      :      30000. kBytes
   nonlr-proj:      30940. kBytes
   fftplans  :      17093. kBytes
   grid      :      44247. kBytes
   one-center:        528. kBytes
   wavefun   :      77790. kBytes
 
     INWAV:  cpu time    0.0000: real time    0.0000
 Broyden mixing: mesh for mixing (old mesh)
   NGX = 41   NGY = 41   NGZ = 77
  (NGX  =168   NGY  =168   NGZ  =320)
  gives a total of 129437 points

 initial charge density was supplied:
 charge density of overlapping atoms calculated
 number of electron     641.0000000 magnetization      65.0000000
 keeping initial charge density in first step


--------------------------------------------------------------------------------------------------------


 Maximum index for non-local projection operator         2013
 Maximum index for augmentation-charges         2183 (set IRDMAX)


--------------------------------------------------------------------------------------------------------


 First call to EWALD:  gamma=   0.142
 Maximum number of real-space cells 4x 4x 2
 Maximum number of reciprocal cells 2x 2x 4

    FEWALD:  cpu time    0.0031: real time    0.0031


--------------------------------------- Iteration      1(   1)  ---------------------------------------


    POTLOK:  cpu time    0.3872: real time    0.4241
    SETDIJ:  cpu time    0.0330: real time    0.0333
     EDDAV:  cpu time   42.6542: real time   42.7770
       DOS:  cpu time    0.0025: real time    0.0025
    --------------------------------------------
      LOOP:  cpu time   43.0769: real time   43.2369

 eigenvalue-minimisations  :  6730
 total energy-change (2. order) : 0.4497304E+04  (-0.3120866E+05)
 number of electron     641.0000000 magnetization      65.0000000
 augmentation part      641.0000000 magnetization      65.0000000

 Free energy of the ion-electron system (eV)
  ---------------------------------------------------
  alpha Z        PSCENC =      2019.82280658
  Ewald energy   TEWEN  =    125288.48307672
  -Hartree energ DENC   =   -176373.30987143
  -exchange      EXHF   =         0.00000000
  -V(xc)+E(xc)   XCENC  =       245.02431293
  PAW double counting   =     44548.75599742   -42738.90423410
  entropy T*S    EENTRO =        -0.00559301
  eigenvalues    EBANDS =      4831.55484806
  atomic energy  EATOM  =     46675.88275157
  Solvation  Ediel_sol  =         0.00000000
  ---------------------------------------------------
  free energy    TOTEN  =      4497.30409473 eV

  energy without entropy =     4497.30968774  energy(sigma->0) =     4497.30595907


--------------------------------------------------------------------------------------------------------




--------------------------------------- Iteration      1(   2)  ---------------------------------------


     EDDAV:  cpu time   46.5077: real time   46.6440
       DOS:  cpu time    0.0015: real time    0.0015
    --------------------------------------------
      LOOP:  cpu time   46.5092: real time   46.6455

 eigenvalue-minimisations  :  7550
 total energy-change (2. order) :-0.4634485E+04  (-0.4247308E+04)
 number of electron     641.0000000 magnetization      65.0000000
 augmentation part      641.0000000 magnetization      65.0000000

 Free energy of the ion-electron system (eV)
  ---------------------------------------------------
  alpha Z        PSCENC =      2019.82280658
  Ewald energy   TEWEN  =    125288.48307672
  -Hartree energ DENC   =   -176373.30987143
  -exchange      EXHF   =         0.00000000
  -V(xc)+E(xc)   XCENC  =       245.02431293
  PAW double counting   =     44548.75599742   -42738.90423410
  entropy T*S    EENTRO =         0.00130676
  eigenvalues    EBANDS =       197.06318175
  atomic energy  EATOM  =     46675.88275157
  Solvation  Ediel_sol  =         0.00000000
  ---------------------------------------------------
  free energy    TOTEN  =      -137.18067180 eV

  energy without entropy =     -137.18197856  energy(sigma->0) =     -137.18110739


--------------------------------------------------------------------------------------------------------




--------------------------------------- Iteration      1(   3)  ---------------------------------------


     EDDAV:  cpu time   47.1072: real time   47.2461
       DOS:  cpu time    0.0016: real time    0.0016
    --------------------------------------------
      LOOP:  cpu time   47.1088: real time   47.2477

 eigenvalue-minimisations  :  7640
 total energy-change (2. order) :-0.2451677E+03  (-0.2271770E+03)
 number of electron     641.0000000 magnetization      65.0000000
 augmentation part      641.0000000 magnetization      65.0000000

 Free energy of the ion-electron system (eV)
  ---------------------------------------------------
  alpha Z        PSCENC =      2019.82280658
  Ewald energy   TEWEN  =    125288.48307672
  -Hartree energ DENC   =   -176373.30987143
  -exchange      EXHF   =         0.00000000
  -V(xc)+E(xc)   XCENC  =       245.02431293
  PAW double counting   =     44548.75599742   -42738.90423410
  entropy T*S    EENTRO =         0.01349950
  eigenvalues    EBANDS =       -48.11669821
  atomic energy  EATOM  =     46675.88275157
  Solvation  Ediel_sol  =         0.00000000
  ---------------------------------------------------
  free energy    TOTEN  =      -382.34835902 eV

  energy without entropy =     -382.36185852  energy(sigma->0) =     -382.35285885


--------------------------------------------------------------------------------------------------------




--------------------------------------- Iteration      1(   4)  ---------------------------------------


     EDDAV:  cpu time   48.3614: real time   48.4947
       DOS:  cpu time    0.0017: real time    0.0017
    --------------------------------------------
      LOOP:  cpu time   48.3631: real time   48.4964

 eigenvalue-minimisations  :  7950
 total energy-change (2. order) :-0.6322228E+01  (-0.6261002E+01)
 number of electron     641.0000000 magnetization      65.0000000
 augmentation part      641.0000000 magnetization      65.0000000

 Free energy of the ion-electron system (eV)
  ---------------------------------------------------
  alpha Z        PSCENC =      2019.82280658
  Ewald energy   TEWEN  =    125288.48307672
  -Hartree energ DENC   =   -176373.30987143
  -exchange      EXHF   =         0.00000000
  -V(xc)+E(xc)   XCENC  =       245.02431293
  PAW double counting   =     44548.75599742   -42738.90423410
  entropy T*S    EENTRO =         0.01147991
  eigenvalues    EBANDS =       -54.43690686
  atomic energy  EATOM  =     46675.88275157
  Solvation  Ediel_sol  =         0.00000000
  ---------------------------------------------------
  free energy    TOTEN  =      -388.67058725 eV

  energy without entropy =     -388.68206717  energy(sigma->0) =     -388.67441389


--------------------------------------------------------------------------------------------------------




--------------------------------------- Iteration      1(   5)  ---------------------------------------


     EDDAV:  cpu time   48.6731: real time   48.7901
       DOS:  cpu time    0.0016: real time    0.0016
    CHARGE:  cpu time    3.1735: real time    3.1811
    MIXING:  cpu time    0.0088: real time    0.0094
    --------------------------------------------
      LOOP:  cpu time   51.8572: real time   51.9822

 eigenvalue-minimisations  :  7980
 total energy-change (2. order) :-0.2250855E+00  (-0.2244637E+00)
 number of electron     641.0000089 magnetization      58.7711993
 augmentation part      185.7153288 magnetization      46.9817633

 Broyden mixing:
  rms(total) = 0.10528E+02    rms(broyden)= 0.10528E+02
  rms(prec ) = 0.10633E+02
  weight for this iteration     100.00

 Free energy of the ion-electron system (eV)
  ---------------------------------------------------
  alpha Z        PSCENC =      2019.82280658
  Ewald energy   TEWEN  =    125288.48307672
  -Hartree energ DENC   =   -176373.30987143
  -exchange      EXHF   =         0.00000000
  -V(xc)+E(xc)   XCENC  =       245.02431293
  PAW double counting   =     44548.75599742   -42738.90423410
  entropy T*S    EENTRO =         0.01172553
  eigenvalues    EBANDS =       -54.66223794
  atomic energy  EATOM  =     46675.88275157
  Solvation  Ediel_sol  =         0.00000000
  ---------------------------------------------------
  free energy    TOTEN  =      -388.89567272 eV

  energy without entropy =     -388.90739825  energy(sigma->0) =     -388.89958123


--------------------------------------------------------------------------------------------------------




--------------------------------------- Iteration      1(   6)  ---------------------------------------


    POTLOK:  cpu time    0.3664: real time    0.3673
    SETDIJ:  cpu time    0.0319: real time    0.0320
    EDDIAG:  cpu time    7.5180: real time    7.5359
  RMM-DIIS:  cpu time   27.6200: real time   27.6858
    ORTHCH:  cpu time    0.6528: real time    0.6543
       DOS:  cpu time    0.0015: real time    0.0015
    CHARGE:  cpu time    3.1209: real time    3.1283
    MIXING:  cpu time    0.0091: real time    0.2153
    --------------------------------------------
      LOOP:  cpu time   39.3206: real time   39.6203

 eigenvalue-minimisations  :  6764
 total energy-change (2. order) : 0.2675551E+02  (-0.6365123E+01)
 number of electron     641.0000096 magnetization      51.1939514
 augmentation part      195.1679484 magnetization      38.1174433

 Broyden mixing:
  rms(total) = 0.67770E+01    rms(broyden)= 0.67770E+01
  rms(prec ) = 0.70701E+01
  weight for this iteration     100.00

 eigenvalues of (default mixing * dielectric matrix)
  average eigenvalue GAMMA=   1.2630
  1.2630

 Free energy of the ion-electron system (eV)
  ---------------------------------------------------
  alpha Z        PSCENC =      2019.82280658
  Ewald energy   TEWEN  =    125288.48307672
  -Hartree energ DENC   =   -175689.46291297
  -exchange      EXHF   =         0.00000000
  -V(xc)+E(xc)   XCENC  =       234.80150332
  PAW double counting   =     50869.15067029   -49166.65071884
  entropy T*S    EENTRO =        -0.03077728
  eigenvalues    EBANDS =      -594.13656050
  atomic energy  EATOM  =     46675.88275157
  Solvation  Ediel_sol  =         0.00000000
  ---------------------------------------------------
  free energy    TOTEN  =      -362.14016112 eV

  energy without entropy =     -362.10938384  energy(sigma->0) =     -362.12990203


--------------------------------------------------------------------------------------------------------




--------------------------------------- Iteration      1(   7)  ---------------------------------------


    POTLOK:  cpu time    0.3787: real time    0.3796
    SETDIJ:  cpu time    0.0320: real time    0.0321
    EDDIAG:  cpu time    7.6110: real time    7.6309
  RMM-DIIS:  cpu time   27.0496: real time   27.1292
    ORTHCH:  cpu time    0.7406: real time    0.7426
       DOS:  cpu time    0.0016: real time    0.0016
    CHARGE:  cpu time    3.1750: real time    3.1843
    MIXING:  cpu time    0.0092: real time    0.0092
    --------------------------------------------
      LOOP:  cpu time   38.9977: real time   39.1096

 eigenvalue-minimisations  :  6727
 total energy-change (2. order) :-0.1085854E+03  (-0.1216782E+02)
 number of electron     641.0000098 magnetization      45.3979232
 augmentation part      192.6630499 magnetization      34.0962527

 Broyden mixing:
  rms(total) = 0.96194E+01    rms(broyden)= 0.96194E+01
  rms(prec ) = 0.11899E+02
  weight for this iteration     100.00

 eigenvalues of (default mixing * dielectric matrix)
  average eigenvalue GAMMA=   1.0529
  1.7751  0.3306

 Free energy of the ion-electron system (eV)
  ---------------------------------------------------
  alpha Z        PSCENC =      2019.82280658
  Ewald energy   TEWEN  =    125288.48307672
  -Hartree energ DENC   =   -176238.87727498
  -exchange      EXHF   =         0.00000000
  -V(xc)+E(xc)   XCENC  =       228.85890142
  PAW double counting   =     56448.80528815   -54807.85051501
  entropy T*S    EENTRO =        -0.00389121
  eigenvalues    EBANDS =       -85.84674995
  atomic energy  EATOM  =     46675.88275157
  Solvation  Ediel_sol  =         0.00000000
  ---------------------------------------------------
  free energy    TOTEN  =      -470.72560671 eV

  energy without entropy =     -470.72171550  energy(sigma->0) =     -470.72430964


--------------------------------------------------------------------------------------------------------




--------------------------------------- Iteration      1(   8)  ---------------------------------------


    POTLOK:  cpu time    0.3796: real time    0.3805
    SETDIJ:  cpu time    0.0321: real time    0.0322
    EDDIAG:  cpu time    7.5068: real time    7.5292
  RMM-DIIS:  cpu time   27.2119: real time   27.2915
    ORTHCH:  cpu time    0.6527: real time    0.6548
       DOS:  cpu time    0.0016: real time    0.0016
    CHARGE:  cpu time    3.0971: real time    3.1061
    MIXING:  cpu time    0.0088: real time    0.0088
    --------------------------------------------
      LOOP:  cpu time   38.8906: real time   39.0047

 eigenvalue-minimisations  :  6751
 total energy-change (2. order) : 0.1114329E+03  (-0.4982186E+01)
 number of electron     641.0000099 magnetization      43.0787446
 augmentation part      198.4501563 magnetization      30.9851627

 Broyden mixing:
  rms(total) = 0.35444E+01    rms(broyden)= 0.35444E+01
  rms(prec ) = 0.43626E+01
  weight for this iteration     100.00

 eigenvalues of (default mixing * dielectric matrix)
  average eigenvalue GAMMA=   0.9868
  2.0950  0.5380  0.3273

 Free energy of the ion-electron system (eV)
  ---------------------------------------------------
  alpha Z        PSCENC =      2019.82280658
  Ewald energy   TEWEN  =    125288.48307672
  -Hartree energ DENC   =   -175720.07481370
  -exchange      EXHF   =         0.00000000
  -V(xc)+E(xc)   XCENC  =       230.97543018
  PAW double counting   =     59985.79629244   -58387.64785399
  entropy T*S    EENTRO =        -0.06790988
  eigenvalues    EBANDS =      -452.46249038
  atomic energy  EATOM  =     46675.88275157
  Solvation  Ediel_sol  =         0.00000000
  ---------------------------------------------------
  free energy    TOTEN  =      -359.29271046 eV

  energy without entropy =     -359.22480058  energy(sigma->0) =     -359.27007383


--------------------------------------------------------------------------------------------------------




--------------------------------------- Iteration      1(   9)  ---------------------------------------


    POTLOK:  cpu time    0.3621: real time    0.3630
    SETDIJ:  cpu time    0.0318: real time    0.0319
    EDDIAG:  cpu time    7.5110: real time    7.5330
  RMM-DIIS:  cpu time   27.1367: real time   27.2161
    ORTHCH:  cpu time    0.6571: real time    0.6590
       DOS:  cpu time    0.0015: real time    0.0016
    CHARGE:  cpu time    3.1099: real time    3.1188
    MIXING:  cpu time    0.0095: real time    0.0095
    --------------------------------------------
      LOOP:  cpu time   38.8196: real time   38.9330

 eigenvalue-minimisations  :  6737
 total energy-change (2. order) :-0.2283181E+02  (-0.2793947E+01)
 number of electron     641.0000096 magnetization      40.7047963
 augmentation part      198.0727942 magnetization      33.5640861

 Broyden mixing:
  rms(total) = 0.53509E+01    rms(broyden)= 0.53509E+01
  rms(prec ) = 0.80047E+01
  weight for this iteration     100.00

 eigenvalues of (default mixing * dielectric matrix)
  average eigenvalue GAMMA=   0.8589
  2.2488  0.6896  0.3247  0.1725

 Free energy of the ion-electron system (eV)
  ---------------------------------------------------
  alpha Z        PSCENC =      2019.82280658
  Ewald energy   TEWEN  =    125288.48307672
  -Hartree energ DENC   =   -175669.62083782
  -exchange      EXHF   =         0.00000000
  -V(xc)+E(xc)   XCENC  =       230.15940039
  PAW double counting   =     60456.90593323   -58860.89288910
  entropy T*S    EENTRO =         0.01188977
  eigenvalues    EBANDS =      -522.87664879
  atomic energy  EATOM  =     46675.88275157
  Solvation  Ediel_sol  =         0.00000000
  ---------------------------------------------------
  free energy    TOTEN  =      -382.12451747 eV

  energy without entropy =     -382.13640724  energy(sigma->0) =     -382.12848072


--------------------------------------------------------------------------------------------------------




--------------------------------------- Iteration      1(  10)  ---------------------------------------


    POTLOK:  cpu time    0.3630: real time    0.3639
    SETDIJ:  cpu time    0.0320: real time    0.0321
    EDDIAG:  cpu time    7.5229: real time    7.5452
  RMM-DIIS:  cpu time   27.3305: real time   27.4106
    ORTHCH:  cpu time    0.6551: real time    0.6572
       DOS:  cpu time    0.0017: real time    0.0017
    CHARGE:  cpu time    3.1109: real time    3.1200
    MIXING:  cpu time    0.0111: real time    0.0111
    --------------------------------------------
      LOOP:  cpu time   39.0272: real time   39.1417

 eigenvalue-minimisations  :  6757
 total energy-change (2. order) : 0.1591950E+02  (-0.9247589E+00)
 number of electron     641.0000097 magnetization      38.6478109
 augmentation part      197.6124349 magnetization      29.8096270

 Broyden mixing:
  rms(total) = 0.36419E+01    rms(broyden)= 0.36419E+01
  rms(prec ) = 0.46822E+01
  weight for this iteration     100.00

 eigenvalues of (default mixing * dielectric matrix)
  average eigenvalue GAMMA=   0.7503
  2.2953  0.7467  0.2896  0.2896  0.1303

 Free energy of the ion-electron system (eV)
  ---------------------------------------------------
  alpha Z        PSCENC =      2019.82280658
  Ewald energy   TEWEN  =    125288.48307672
  -Hartree energ DENC   =   -175729.36034565
  -exchange      EXHF   =         0.00000000
  -V(xc)+E(xc)   XCENC  =       229.75664680
  PAW double counting   =     60821.26691227   -59226.50174166
  entropy T*S    EENTRO =         0.02692450
  eigenvalues    EBANDS =      -445.58204832
  atomic energy  EATOM  =     46675.88275157
  Solvation  Ediel_sol  =         0.00000000
  ---------------------------------------------------
  free energy    TOTEN  =      -366.20501720 eV

  energy without entropy =     -366.23194170  energy(sigma->0) =     -366.21399203


--------------------------------------------------------------------------------------------------------




--------------------------------------- Iteration      1(  11)  ---------------------------------------


    POTLOK:  cpu time    0.3879: real time    0.3889
    SETDIJ:  cpu time    0.0355: real time    0.0356
    EDDIAG:  cpu time    7.5261: real time    7.5442
  RMM-DIIS:  cpu time   27.3661: real time   27.4468
    ORTHCH:  cpu time    0.6527: real time    0.6542
       DOS:  cpu time    0.0016: real time    0.0016
    CHARGE:  cpu time    3.1082: real time    3.1156
    MIXING:  cpu time    0.0095: real time    0.0095
    --------------------------------------------
      LOOP:  cpu time   39.0876: real time   39.1965

 eigenvalue-minimisations  :  6745
 total energy-change (2. order) : 0.1094311E+02  (-0.4119526E+00)
 number of electron     641.0000095 magnetization      37.0365281
 augmentation part      197.6171877 magnetization      27.4963671

 Broyden mixing:
  rms(total) = 0.16743E+01    rms(broyden)= 0.16743E+01
  rms(prec ) = 0.18710E+01
  weight for this iteration     100.00

 eigenvalues of (default mixing * dielectric matrix)
  average eigenvalue GAMMA=   0.7107
  2.2104  0.6427  0.6427  0.3236  0.3236  0.1213

 Free energy of the ion-electron system (eV)
  ---------------------------------------------------
  alpha Z        PSCENC =      2019.82280658
  Ewald energy   TEWEN  =    125288.48307672
  -Hartree energ DENC   =   -175736.00800154
  -exchange      EXHF   =         0.00000000
  -V(xc)+E(xc)   XCENC  =       229.37591225
  PAW double counting   =     61031.14351838   -59437.84740994
  entropy T*S    EENTRO =        -0.00410370
  eigenvalues    EBANDS =      -426.11045494
  atomic energy  EATOM  =     46675.88275157
  Solvation  Ediel_sol  =         0.00000000
  ---------------------------------------------------
  free energy    TOTEN  =      -355.26190462 eV

  energy without entropy =     -355.25780092  energy(sigma->0) =     -355.26053672


--------------------------------------------------------------------------------------------------------




--------------------------------------- Iteration      1(  12)  ---------------------------------------


    POTLOK:  cpu time    0.3826: real time    0.3835
    SETDIJ:  cpu time    0.0321: real time    0.0321
    EDDIAG:  cpu time    7.5110: real time    7.5289
  RMM-DIIS:  cpu time   27.2982: real time   27.3628
    ORTHCH:  cpu time    0.6537: real time    0.6553
       DOS:  cpu time    0.0016: real time    0.0016
    CHARGE:  cpu time    3.0954: real time    3.1027
    MIXING:  cpu time    0.0105: real time    0.0105
    --------------------------------------------
      LOOP:  cpu time   38.9852: real time   39.0776

 eigenvalue-minimisations  :  6756
 total energy-change (2. order) :-0.6087029E+00  (-0.1613060E+00)
 number of electron     641.0000095 magnetization      35.2143741
 augmentation part      197.5339311 magnetization      25.4901002

 Broyden mixing:
  rms(total) = 0.11575E+01    rms(broyden)= 0.11575E+01
  rms(prec ) = 0.12582E+01
  weight for this iteration     100.00

 eigenvalues of (default mixing * dielectric matrix)
  average eigenvalue GAMMA=   0.6970
  2.2145  0.6373  0.6373  0.6549  0.3068  0.3068  0.1216

 Free energy of the ion-electron system (eV)
  ---------------------------------------------------
  alpha Z        PSCENC =      2019.82280658
  Ewald energy   TEWEN  =    125288.48307672
  -Hartree energ DENC   =   -175734.38814214
  -exchange      EXHF   =         0.00000000
  -V(xc)+E(xc)   XCENC  =       228.76278481
  PAW double counting   =     60775.31983607   -59179.81405627
  entropy T*S    EENTRO =         0.02961605
  eigenvalues    EBANDS =      -429.96928095
  atomic energy  EATOM  =     46675.88275157
  Solvation  Ediel_sol  =         0.00000000
  ---------------------------------------------------
  free energy    TOTEN  =      -355.87060757 eV

  energy without entropy =     -355.90022362  energy(sigma->0) =     -355.88047958


--------------------------------------------------------------------------------------------------------




--------------------------------------- Iteration      1(  13)  ---------------------------------------


    POTLOK:  cpu time    0.3804: real time    0.3813
    SETDIJ:  cpu time    0.0320: real time    0.0320
    EDDIAG:  cpu time    7.5155: real time    7.5333
  RMM-DIIS:  cpu time   27.2874: real time   27.3519
    ORTHCH:  cpu time    0.6544: real time    0.6559
       DOS:  cpu time    0.0017: real time    0.0017
    CHARGE:  cpu time    3.0755: real time    3.0829
    MIXING:  cpu time    0.0106: real time    0.0106
    --------------------------------------------
      LOOP:  cpu time   38.9574: real time   39.0497

 eigenvalue-minimisations  :  6765
 total energy-change (2. order) :-0.1239949E+01  (-0.7827524E-01)
 number of electron     641.0000095 magnetization      31.8087666
 augmentation part      197.4431013 magnetization      22.1475426

 Broyden mixing:
  rms(total) = 0.10382E+01    rms(broyden)= 0.10382E+01
  rms(prec ) = 0.11303E+01
  weight for this iteration     100.00

 eigenvalues of (default mixing * dielectric matrix)
  average eigenvalue GAMMA=   0.6984
  2.2251  0.8227  0.7568  0.7568  0.3216  0.3216  0.1217  0.2605

 Free energy of the ion-electron system (eV)
  ---------------------------------------------------
  alpha Z        PSCENC =      2019.82280658
  Ewald energy   TEWEN  =    125288.48307672
  -Hartree energ DENC   =   -175749.36772980
  -exchange      EXHF   =         0.00000000
  -V(xc)+E(xc)   XCENC  =       228.00023267
  PAW double counting   =     60786.57227049   -59191.26015343
  entropy T*S    EENTRO =         0.02058137
  eigenvalues    EBANDS =      -415.26439249
  atomic energy  EATOM  =     46675.88275157
  Solvation  Ediel_sol  =         0.00000000
  ---------------------------------------------------
  free energy    TOTEN  =      -357.11055632 eV

  energy without entropy =     -357.13113769  energy(sigma->0) =     -357.11741678


--------------------------------------------------------------------------------------------------------




--------------------------------------- Iteration      1(  14)  ---------------------------------------


    POTLOK:  cpu time    0.3809: real time    0.3818
    SETDIJ:  cpu time    0.0324: real time    0.0325
    EDDIAG:  cpu time    7.6256: real time    7.6438
  RMM-DIIS:  cpu time   27.4919: real time   27.5570
    ORTHCH:  cpu time    0.6530: real time    0.6546
       DOS:  cpu time    0.0016: real time    0.0016
    CHARGE:  cpu time    3.0729: real time    3.0803
    MIXING:  cpu time    0.0109: real time    0.0109
    --------------------------------------------
      LOOP:  cpu time   39.2693: real time   39.3626

 eigenvalue-minimisations  :  6753
 total energy-change (2. order) :-0.2226895E+01  (-0.8075576E-01)
 number of electron     641.0000095 magnetization      27.1174651
 augmentation part      197.2770209 magnetization      17.1862625

 Broyden mixing:
  rms(total) = 0.75963E+00    rms(broyden)= 0.75963E+00
  rms(prec ) = 0.81483E+00
  weight for this iteration     100.00

 eigenvalues of (default mixing * dielectric matrix)
  average eigenvalue GAMMA=   0.7621
  2.0462  1.7070  0.9032  0.6125  0.6125  0.3092  0.3092  0.1216  0.2372

 Free energy of the ion-electron system (eV)
  ---------------------------------------------------
  alpha Z        PSCENC =      2019.82280658
  Ewald energy   TEWEN  =    125288.48307672
  -Hartree energ DENC   =   -175769.99738664
  -exchange      EXHF   =         0.00000000
  -V(xc)+E(xc)   XCENC  =       226.56975412
  PAW double counting   =     60824.86048916   -59229.95256217
  entropy T*S    EENTRO =        -0.02371123
  eigenvalues    EBANDS =      -394.98266913
  atomic energy  EATOM  =     46675.88275157
  Solvation  Ediel_sol  =         0.00000000
  ---------------------------------------------------
  free energy    TOTEN  =      -359.33745101 eV

  energy without entropy =     -359.31373978  energy(sigma->0) =     -359.32954727


--------------------------------------------------------------------------------------------------------




--------------------------------------- Iteration      1(  15)  ---------------------------------------


    POTLOK:  cpu time    0.3789: real time    0.3798
    SETDIJ:  cpu time    0.0321: real time    0.0322
    EDDIAG:  cpu time    7.5117: real time    7.5295
  RMM-DIIS:  cpu time   27.4430: real time   27.5100
    ORTHCH:  cpu time    0.6528: real time    0.6543
       DOS:  cpu time    0.0016: real time    0.0017
    CHARGE:  cpu time    3.0770: real time    3.0843
    MIXING:  cpu time    0.0115: real time    0.0115
    --------------------------------------------
      LOOP:  cpu time   39.1086: real time   39.2033

 eigenvalue-minimisations  :  6752
 total energy-change (2. order) :-0.4263912E+01  (-0.1867031E+00)
 number of electron     641.0000096 magnetization      24.7069714
 augmentation part      197.1042012 magnetization      15.0104377

 Broyden mixing:
  rms(total) = 0.72452E+00    rms(broyden)= 0.72452E+00
  rms(prec ) = 0.84073E+00
  weight for this iteration     100.00

 eigenvalues of (default mixing * dielectric matrix)
  average eigenvalue GAMMA=   0.7626
  2.1101  2.1101  0.8616  0.5641  0.5641  0.4339  0.3173  0.3173  0.1217  0.2257

 Free energy of the ion-electron system (eV)
  ---------------------------------------------------
  alpha Z        PSCENC =      2019.82280658
  Ewald energy   TEWEN  =    125288.48307672
  -Hartree energ DENC   =   -175784.32954510
  -exchange      EXHF   =         0.00000000
  -V(xc)+E(xc)   XCENC  =       224.17119902
  PAW double counting   =     60704.12182746   -59108.11670238
  entropy T*S    EENTRO =        -0.01460238
  eigenvalues    EBANDS =      -383.62217475
  atomic energy  EATOM  =     46675.88275157
  Solvation  Ediel_sol  =         0.00000000
  ---------------------------------------------------
  free energy    TOTEN  =      -363.60136326 eV

  energy without entropy =     -363.58676088  energy(sigma->0) =     -363.59649580


--------------------------------------------------------------------------------------------------------




--------------------------------------- Iteration      1(  16)  ---------------------------------------


    POTLOK:  cpu time    0.3832: real time    0.3841
    SETDIJ:  cpu time    0.0328: real time    0.0329
    EDDIAG:  cpu time    7.5240: real time    7.5420
  RMM-DIIS:  cpu time   27.3875: real time   27.4523
    ORTHCH:  cpu time    0.6547: real time    0.6562
       DOS:  cpu time    0.0017: real time    0.0017
    CHARGE:  cpu time    3.0791: real time    3.0864
    MIXING:  cpu time    0.0117: real time    0.0117
    --------------------------------------------
      LOOP:  cpu time   39.0747: real time   39.1674

 eigenvalue-minimisations  :  6750
 total energy-change (2. order) :-0.2104882E+01  (-0.1004907E+00)
 number of electron     641.0000095 magnetization      22.2682121
 augmentation part      197.0349103 magnetization      13.3018124

 Broyden mixing:
  rms(total) = 0.41930E+00    rms(broyden)= 0.41930E+00
  rms(prec ) = 0.45842E+00
  weight for this iteration     100.00

 eigenvalues of (default mixing * dielectric matrix)
  average eigenvalue GAMMA=   0.8210
  2.4182  2.4182  0.8466  0.8466  0.6212  0.6212  0.1217  0.3130  0.3130  0.2852
  0.2260

 Free energy of the ion-electron system (eV)
  ---------------------------------------------------
  alpha Z        PSCENC =      2019.82280658
  Ewald energy   TEWEN  =    125288.48307672
  -Hartree energ DENC   =   -175779.05513843
  -exchange      EXHF   =         0.00000000
  -V(xc)+E(xc)   XCENC  =       222.77018271
  PAW double counting   =     60607.14676488   -59010.28121280
  entropy T*S    EENTRO =        -0.01311606
  eigenvalues    EBANDS =      -390.46236092
  atomic energy  EATOM  =     46675.88275157
  Solvation  Ediel_sol  =         0.00000000
  ---------------------------------------------------
  free energy    TOTEN  =      -365.70624575 eV

  energy without entropy =     -365.69312968  energy(sigma->0) =     -365.70187373


--------------------------------------------------------------------------------------------------------




--------------------------------------- Iteration      1(  17)  ---------------------------------------


    POTLOK:  cpu time    0.3806: real time    0.3815
    SETDIJ:  cpu time    0.0329: real time    0.0330
    EDDIAG:  cpu time    7.6316: real time    7.6497
  RMM-DIIS:  cpu time   27.3495: real time   27.4142
    ORTHCH:  cpu time    0.7646: real time    0.7664
       DOS:  cpu time    0.0017: real time    0.0017
    CHARGE:  cpu time    3.1059: real time    3.1133
    MIXING:  cpu time    0.0121: real time    0.0121
    --------------------------------------------
      LOOP:  cpu time   39.2788: real time   39.3720

 eigenvalue-minimisations  :  6738
 total energy-change (2. order) :-0.1881763E+01  (-0.8080491E-01)
 number of electron     641.0000095 magnetization      20.8544575
 augmentation part      197.0406782 magnetization      12.5248748

 Broyden mixing:
  rms(total) = 0.39409E+00    rms(broyden)= 0.39409E+00
  rms(prec ) = 0.42996E+00
  weight for this iteration     100.00

 eigenvalues of (default mixing * dielectric matrix)
  average eigenvalue GAMMA=   0.8179
  2.5465  2.5465  0.9250  0.9250  0.6315  0.6315  0.1217  0.3234  0.3234  0.3556
  0.2594  0.2249

 Free energy of the ion-electron system (eV)
  ---------------------------------------------------
  alpha Z        PSCENC =      2019.82280658
  Ewald energy   TEWEN  =    125288.48307672
  -Hartree energ DENC   =   -175766.44571254
  -exchange      EXHF   =         0.00000000
  -V(xc)+E(xc)   XCENC  =       221.39807602
  PAW double counting   =     60579.35038497   -58982.47128781
  entropy T*S    EENTRO =         0.00856347
  eigenvalues    EBANDS =      -403.61666755
  atomic energy  EATOM  =     46675.88275157
  Solvation  Ediel_sol  =         0.00000000
  ---------------------------------------------------
  free energy    TOTEN  =      -367.58800857 eV

  energy without entropy =     -367.59657205  energy(sigma->0) =     -367.59086306


--------------------------------------------------------------------------------------------------------




--------------------------------------- Iteration      1(  18)  ---------------------------------------


    POTLOK:  cpu time    0.3840: real time    0.3849
    SETDIJ:  cpu time    0.0329: real time    0.0330
    EDDIAG:  cpu time    7.5158: real time    7.5339
  RMM-DIIS:  cpu time   27.4086: real time   27.4743
    ORTHCH:  cpu time    0.6535: real time    0.6551
       DOS:  cpu time    0.0017: real time    0.0017
    CHARGE:  cpu time    3.1031: real time    3.1105
    MIXING:  cpu time    0.0127: real time    0.0128
    --------------------------------------------
      LOOP:  cpu time   39.1124: real time   39.2061

 eigenvalue-minimisations  :  6747
 total energy-change (2. order) :-0.7418672E+00  (-0.2762131E-01)
 number of electron     641.0000095 magnetization      18.7318619
 augmentation part      197.0497551 magnetization      10.5226583

 Broyden mixing:
  rms(total) = 0.29976E+00    rms(broyden)= 0.29976E+00
  rms(prec ) = 0.33107E+00
  weight for this iteration     100.00

 eigenvalues of (default mixing * dielectric matrix)
  average eigenvalue GAMMA=   0.8684
  3.4670  2.2087  1.0595  1.0595  0.6417  0.6417  0.6829  0.1217  0.3153  0.3153
  0.3188  0.2347  0.2219

 Free energy of the ion-electron system (eV)
  ---------------------------------------------------
  alpha Z        PSCENC =      2019.82280658
  Ewald energy   TEWEN  =    125288.48307672
  -Hartree energ DENC   =   -175759.15203035
  -exchange      EXHF   =         0.00000000
  -V(xc)+E(xc)   XCENC  =       220.71924747
  PAW double counting   =     60601.09750133   -59004.62829872
  entropy T*S    EENTRO =         0.00331538
  eigenvalues    EBANDS =      -410.55824575
  atomic energy  EATOM  =     46675.88275157
  Solvation  Ediel_sol  =         0.00000000
  ---------------------------------------------------
  free energy    TOTEN  =      -368.32987577 eV

  energy without entropy =     -368.33319115  energy(sigma->0) =     -368.33098090


--------------------------------------------------------------------------------------------------------




--------------------------------------- Iteration      1(  19)  ---------------------------------------


    POTLOK:  cpu time    0.3812: real time    0.3822
    SETDIJ:  cpu time    0.0327: real time    0.0328
    EDDIAG:  cpu time    7.5165: real time    7.5345
  RMM-DIIS:  cpu time   27.3577: real time   27.4225
    ORTHCH:  cpu time    0.6530: real time    0.6545
       DOS:  cpu time    0.0016: real time    0.0016
    CHARGE:  cpu time    3.1001: real time    3.1075
    MIXING:  cpu time    0.0126: real time    0.0126
    --------------------------------------------
      LOOP:  cpu time   39.0554: real time   39.1483

 eigenvalue-minimisations  :  6737
 total energy-change (2. order) :-0.8836445E+00  (-0.3752776E-01)
 number of electron     641.0000095 magnetization      16.8695163
 augmentation part      197.1028182 magnetization       8.7549705

 Broyden mixing:
  rms(total) = 0.30132E+00    rms(broyden)= 0.30132E+00
  rms(prec ) = 0.34932E+00
  weight for this iteration     100.00

 eigenvalues of (default mixing * dielectric matrix)
  average eigenvalue GAMMA=   0.9313
  4.4969  2.2136  1.1737  1.1737  0.8782  0.6048  0.6048  0.1217  0.3988  0.3182
  0.3182  0.2895  0.2280  0.2175

 Free energy of the ion-electron system (eV)
  ---------------------------------------------------
  alpha Z        PSCENC =      2019.82280658
  Ewald energy   TEWEN  =    125288.48307672
  -Hartree energ DENC   =   -175743.82500537
  -exchange      EXHF   =         0.00000000
  -V(xc)+E(xc)   XCENC  =       219.85030840
  PAW double counting   =     60625.60051212   -59029.71472689
  entropy T*S    EENTRO =         0.00092333
  eigenvalues    EBANDS =      -425.31416676
  atomic energy  EATOM  =     46675.88275157
  Solvation  Ediel_sol  =         0.00000000
  ---------------------------------------------------
  free energy    TOTEN  =      -369.21352031 eV

  energy without entropy =     -369.21444365  energy(sigma->0) =     -369.21382809


--------------------------------------------------------------------------------------------------------




--------------------------------------- Iteration      1(  20)  ---------------------------------------


    POTLOK:  cpu time    0.3853: real time    0.3862
    SETDIJ:  cpu time    0.0327: real time    0.0328
    EDDIAG:  cpu time    7.5969: real time    7.6172
  RMM-DIIS:  cpu time   27.4051: real time   27.4852
    ORTHCH:  cpu time    0.7056: real time    0.7078
       DOS:  cpu time    0.0022: real time    0.0022
    CHARGE:  cpu time    3.0838: real time    3.0927
    MIXING:  cpu time    0.0149: real time    0.0149
    --------------------------------------------
      LOOP:  cpu time   39.2265: real time   39.3390

 eigenvalue-minimisations  :  6748
 total energy-change (2. order) :-0.3571968E+00  (-0.2421503E-01)
 number of electron     641.0000096 magnetization      15.5786375
 augmentation part      197.1295184 magnetization       7.8706912

 Broyden mixing:
  rms(total) = 0.24530E+00    rms(broyden)= 0.24530E+00
  rms(prec ) = 0.27256E+00
  weight for this iteration     100.00

 eigenvalues of (default mixing * dielectric matrix)
  average eigenvalue GAMMA=   0.9968
  5.5715  2.2366  1.3380  1.3380  0.6718  0.6718  0.7460  0.5352  0.1217  0.3629
  0.3163  0.3163  0.2806  0.2304  0.2149

 Free energy of the ion-electron system (eV)
  ---------------------------------------------------
  alpha Z        PSCENC =      2019.82280658
  Ewald energy   TEWEN  =    125288.48307672
  -Hartree energ DENC   =   -175729.12226632
  -exchange      EXHF   =         0.00000000
  -V(xc)+E(xc)   XCENC  =       219.42703338
  PAW double counting   =     60607.66007763   -59011.79130783
  entropy T*S    EENTRO =        -0.01913292
  eigenvalues    EBANDS =      -439.91375597
  atomic energy  EATOM  =     46675.88275157
  Solvation  Ediel_sol  =         0.00000000
  ---------------------------------------------------
  free energy    TOTEN  =      -369.57071716 eV

  energy without entropy =     -369.55158424  energy(sigma->0) =     -369.56433952


--------------------------------------------------------------------------------------------------------




--------------------------------------- Iteration      1(  21)  ---------------------------------------


    POTLOK:  cpu time    0.3624: real time    0.3632
    SETDIJ:  cpu time    0.0332: real time    0.0333
    EDDIAG:  cpu time    7.4735: real time    7.4958
  RMM-DIIS:  cpu time   27.4760: real time   27.5545
    ORTHCH:  cpu time    0.6528: real time    0.6544
       DOS:  cpu time    0.0016: real time    0.0016
    CHARGE:  cpu time    3.0934: real time    3.1007
    MIXING:  cpu time    0.0169: real time    0.0170
    --------------------------------------------
      LOOP:  cpu time   39.1097: real time   39.2204

 eigenvalue-minimisations  :  6751
 total energy-change (2. order) :-0.9052140E-01  (-0.1051613E-01)
 number of electron     641.0000095 magnetization      15.1717365
 augmentation part      197.1448161 magnetization       7.9419772

 Broyden mixing:
  rms(total) = 0.15307E+00    rms(broyden)= 0.15307E+00
  rms(prec ) = 0.17265E+00
  weight for this iteration     100.00

 eigenvalues of (default mixing * dielectric matrix)
  average eigenvalue GAMMA=   0.9605
  5.6721  2.2031  1.3748  1.3748  0.6875  0.6875  0.6944  0.5203  0.1217  0.3862
  0.3179  0.3179  0.3142  0.2617  0.2237  0.2110

 Free energy of the ion-electron system (eV)
  ---------------------------------------------------
  alpha Z        PSCENC =      2019.82280658
  Ewald energy   TEWEN  =    125288.48307672
  -Hartree energ DENC   =   -175713.17036820
  -exchange      EXHF   =         0.00000000
  -V(xc)+E(xc)   XCENC  =       219.24087233
  PAW double counting   =     60586.63008086   -58990.50132764
  entropy T*S    EENTRO =        -0.01104469
  eigenvalues    EBANDS =      -456.03808610
  atomic energy  EATOM  =     46675.88275157
  Solvation  Ediel_sol  =         0.00000000
  ---------------------------------------------------
  free energy    TOTEN  =      -369.66123856 eV

  energy without entropy =     -369.65019387  energy(sigma->0) =     -369.65755700


--------------------------------------------------------------------------------------------------------




[...]


------------------------ aborting loop because EDIFF is reached ----------------------------------------


    CHARGE:  cpu time    3.0704: real time    3.0777
    FORLOC:  cpu time    0.0665: real time    0.0666
    FORNL :  cpu time   12.3645: real time   12.3937
    STRESS:  cpu time   37.1245: real time   37.2161
    FORCOR:  cpu time    0.4660: real time    0.4671
    FORHAR:  cpu time    0.1015: real time    0.1018
    MIXING:  cpu time    0.0101: real time    0.0101
    OFIELD:  cpu time    0.0001: real time    0.0001

 ---------------------------------------------------------------------------------------------

         DFTD3 V3.0 Rev 1        
 Edisp (eV)  -38.72195

 E6    (eV) :   -14.2893
 E8    (eV) :   -24.4326
 % E8        : 63.10
    FORVDW:  cpu time    0.3132: real time    0.3152

  FORCE on cell =-STRESS in cart. coord.  units (eV):
  Direction    XX          YY          ZZ          XY          YZ          ZX
  --------------------------------------------------------------------------------------
  Alpha Z  2019.82281  2019.82281  2019.82281
  Ewald  162449.93615162449.31732************     0.01543    -0.55992    -0.01953
  Hartree173343.63909173343.49045************     0.00310    -0.14855    -0.00404
  E(xc)   -2858.94791 -2858.95935 -2884.66206     0.00018    -0.00762    -0.00023
  Local  ************************357912.33468    -0.01334     0.49884     0.01591
  n-local   575.20218   575.10070   314.50187     0.00165    -0.00575    -0.00082
  augment  3253.03475  3253.17414  3533.97567    -0.00280     0.08027     0.00289
  Kinetic  9157.28980  9157.56860  9752.93552    -0.00557     0.15937     0.00635
  Fock        0.00000     0.00000     0.00000     0.00000     0.00000     0.00000
  vdW       -53.59303   -53.57362   -28.82131    -0.00026    -0.00328    -0.00008
  -------------------------------------------------------------------------------------
  Total      81.20496    81.30167    -0.75667    -0.00161     0.01336     0.00044
  in kB      67.36039    67.44062    -0.62766    -0.00133     0.01108     0.00037
  external pressure =       44.72 kB  Pullay stress =        0.00 kB


 VOLUME and BASIS-vectors are now :
 -----------------------------------------------------------------------------
  energy-cutoff  :      550.00
  volume of cell :     1931.47
      direct lattice vectors                 reciprocal lattice vectors
    10.560000420  0.000000000  0.000000000     0.094696966  0.054673319  0.000000000
    -5.280000210  9.145228627  0.000000000     0.000000000  0.109346638  0.000000000
     0.000000000  0.000000000 20.000000000     0.000000000  0.000000000  0.050000000

  length of vectors
    10.560000420 10.560000420 20.000000000     0.109346638  0.109346638  0.050000000


 FORCES acting on ions
    electron-ion (+dipol)            ewald-force                    non-local-force                 convergence-correction
 -----------------------------------------------------------------------------------------------
   -.408E+00 -.237E+01 0.231E+04   0.388E+00 0.237E+01 -.231E+04   0.297E-02 0.736E-02 -.133E+00   0.167E-01 -.276E-01 0.411E-01
   0.275E+01 -.541E+01 0.780E+03   -.282E+01 0.545E+01 -.780E+03   0.662E-01 0.115E-01 -.296E+00   -.184E-01 -.238E-01 0.583E-01
   -.511E+01 -.279E+01 -.800E+03   0.521E+01 0.285E+01 0.800E+03   -.955E-01 -.536E-01 0.332E+00   0.110E-01 0.638E-02 -.346E-01
   0.512E+01 0.758E+01 -.230E+04   -.506E+01 -.747E+01 0.230E+04   -.808E-01 -.879E-01 0.726E-01   0.180E-01 -.152E-01 -.285E-01
   -.282E+01 -.152E+01 0.231E+04   0.287E+01 0.155E+01 -.231E+04   -.112E-01 -.675E-02 -.246E-01   -.160E-02 0.618E-03 0.276E-01
   0.769E-02 0.931E-03 0.753E+03   -.822E-02 -.718E-03 -.752E+03   -.713E-04 0.262E-02 -.825E+00   0.462E-03 -.198E-02 0.422E-01
   0.147E-01 -.311E+01 -.783E+03   -.152E-01 0.344E+01 0.783E+03   -.711E-04 -.259E+00 0.297E+00   0.373E-03 -.243E-01 -.799E-02
   0.770E+01 0.481E+01 -.226E+04   -.777E+01 -.485E+01 0.226E+04   0.459E-01 0.129E-01 0.436E-01   0.159E-01 0.105E-01 -.289E-01
   0.890E-03 -.558E+01 0.230E+04   -.126E-02 0.566E+01 -.230E+04   -.221E-04 0.261E-01 0.150E-03   0.354E-03 -.159E-01 0.365E-01
   -.610E+01 0.403E+00 0.780E+03   0.618E+01 -.377E+00 -.780E+03   -.227E-01 -.594E-01 -.287E+00   -.146E-01 0.284E-01 0.577E-01
   0.167E+01 -.327E-01 -.759E+03   -.166E+01 0.433E-01 0.759E+03   0.221E-01 0.213E-01 0.404E+00   -.481E-01 -.130E-01 0.397E-02
   0.150E-01 0.221E+02 -.233E+04   -.152E-01 -.228E+02 0.233E+04   -.261E-03 0.762E+00 -.349E+00   0.307E-03 0.463E-03 -.562E-01
   0.410E+00 -.237E+01 0.231E+04   -.391E+00 0.237E+01 -.231E+04   -.300E-02 0.739E-02 -.133E+00   -.163E-01 -.274E-01 0.413E-01
   -.273E+01 -.540E+01 0.780E+03   0.279E+01 0.545E+01 -.780E+03   -.666E-01 0.115E-01 -.296E+00   0.190E-01 -.239E-01 0.582E-01
   0.513E+01 -.280E+01 -.800E+03   -.523E+01 0.285E+01 0.800E+03   0.949E-01 -.534E-01 0.332E+00   -.106E-01 0.626E-02 -.348E-01
   -.509E+01 0.758E+01 -.230E+04   0.504E+01 -.747E+01 0.230E+04   0.799E-01 -.879E-01 0.723E-01   -.177E-01 -.149E-01 -.286E-01
   -.655E-01 -.572E-01 0.231E+04   0.950E-01 0.716E-01 -.231E+04   0.305E-02 0.221E-02 -.110E+00   -.154E-01 -.691E-02 0.171E-01
   -.125E+01 -.704E+00 0.784E+03   0.125E+01 0.701E+00 -.784E+03   -.204E-01 -.109E-01 -.376E+00   0.279E-01 0.197E-01 0.393E-01
   0.840E+00 -.125E+01 -.759E+03   -.845E+00 0.123E+01 0.759E+03   -.692E-02 -.327E-01 0.397E+00   -.103E-01 0.500E-01 0.347E-02
   -.763E-01 -.187E+00 -.231E+04   0.150E+00 0.228E+00 0.231E+04   -.556E-01 -.304E-01 0.966E-01   -.158E-01 -.663E-02 0.235E-02
   0.282E+01 -.152E+01 0.231E+04   -.287E+01 0.155E+01 -.231E+04   0.111E-01 -.674E-02 -.246E-01   0.159E-02 0.630E-03 0.278E-01
   -.838E-02 -.105E+01 0.787E+03   0.879E-02 0.981E+00 -.787E+03   0.760E-04 0.269E-01 -.463E+00   -.403E-03 0.598E-01 0.551E-01
   -.110E-01 -.677E-01 -.783E+03   0.113E-01 0.650E-01 0.783E+03   -.218E-03 0.672E-04 0.450E+00   -.308E-03 0.347E-02 0.177E-01
   -.771E+01 0.478E+01 -.226E+04   0.778E+01 -.482E+01 0.226E+04   -.453E-01 0.136E-01 0.436E-01   -.163E-01 0.103E-01 -.290E-01
   -.236E-02 0.131E+00 0.231E+04   0.269E-02 -.169E+00 -.231E+04   -.380E-04 -.289E-02 -.111E+00   -.345E-03 0.192E-01 0.186E-01
   0.610E+01 0.390E+00 0.780E+03   -.618E+01 -.364E+00 -.780E+03   0.228E-01 -.591E-01 -.287E+00   0.145E-01 0.282E-01 0.577E-01
   -.167E+01 -.330E-01 -.759E+03   0.166E+01 0.439E-01 0.759E+03   -.221E-01 0.213E-01 0.403E+00   0.479E-01 -.132E-01 0.421E-02
   -.687E-02 0.321E+00 -.231E+04   0.678E-02 -.409E+00 0.231E+04   -.288E-03 0.618E-01 0.974E-01   0.514E-04 0.194E-01 0.296E-02
   0.633E-01 -.593E-01 0.231E+04   -.925E-01 0.739E-01 -.231E+04   -.312E-02 0.223E-02 -.110E+00   0.151E-01 -.711E-02 0.169E-01
   0.122E+01 -.705E+00 0.784E+03   -.123E+01 0.702E+00 -.784E+03   0.210E-01 -.108E-01 -.376E+00   -.286E-01 0.197E-01 0.393E-01
   -.865E+00 -.125E+01 -.759E+03   0.870E+00 0.123E+01 0.759E+03   0.763E-02 -.328E-01 0.397E+00   0.981E-02 0.501E-01 0.383E-02
   0.536E-01 -.188E+00 -.231E+04   -.127E+00 0.229E+00 0.231E+04   0.556E-01 -.301E-01 0.966E-01   0.156E-01 -.648E-02 0.234E-02
   -.219E+01 0.847E+00 0.231E+04   0.218E+01 -.865E+00 -.231E+04   0.715E-02 -.524E-03 -.136E+00   -.174E-01 0.272E-01 0.426E-01
   -.338E+01 0.505E+01 0.780E+03   0.340E+01 -.513E+01 -.780E+03   0.414E-01 0.526E-01 -.292E+00   -.334E-01 -.620E-02 0.568E-01
   -.582E+00 -.463E+00 -.764E+03   0.613E+00 0.484E+00 0.763E+03   -.853E-04 0.169E-02 0.383E+00   -.302E-01 -.186E-01 -.333E-02
   0.914E+01 0.549E+00 -.230E+04   -.902E+01 -.557E+00 0.230E+04   -.114E+00 -.249E-01 0.740E-01   -.495E-02 0.220E-01 -.307E-01
   -.287E-03 -.850E-01 0.231E+04   0.294E-03 0.853E-01 -.231E+04   -.331E-04 0.138E-02 -.154E+00   -.113E-04 -.153E-02 0.555E-01
   0.926E+00 0.495E+00 0.787E+03   -.865E+00 -.462E+00 -.787E+03   -.199E-01 -.110E-01 -.464E+00   -.533E-01 -.288E-01 0.549E-01
   -.273E+01 0.157E+01 -.782E+03   0.301E+01 -.173E+01 0.782E+03   -.220E+00 0.125E+00 0.301E+00   -.247E-01 0.103E-01 -.723E-02
   0.117E-01 -.182E+00 -.229E+04   -.116E-01 0.184E+00 0.229E+04   -.181E-03 0.452E-02 0.552E-01   0.589E-04 -.641E-03 -.312E-01
   -.184E+01 0.144E+01 0.231E+04   0.185E+01 -.142E+01 -.231E+04   0.475E-02 -.551E-02 -.135E+00   -.336E-01 -.940E-03 0.410E-01
   0.992E-02 -.299E+01 0.782E+03   -.102E-01 0.302E+01 -.782E+03   -.193E-03 -.598E-02 -.320E+00   0.218E-03 -.302E-01 0.604E-01
   0.479E-02 0.581E+01 -.800E+03   -.496E-02 -.592E+01 0.800E+03   -.177E-03 0.111E+00 0.331E+00   0.187E-03 -.175E-01 -.343E-01
   0.418E+01 -.832E+01 -.230E+04   -.411E+01 0.822E+01 0.230E+04   -.391E-01 0.112E+00 0.727E-01   -.237E-01 -.740E-02 -.299E-01
   -.493E+01 0.283E+01 0.230E+04   0.500E+01 -.287E+01 -.230E+04   0.222E-01 -.118E-01 -.169E-02   -.150E-01 0.702E-02 0.362E-01
   -.249E+01 0.140E+01 0.783E+03   0.252E+01 -.142E+01 -.783E+03   -.698E-02 0.531E-02 -.316E+00   -.275E-01 0.123E-01 0.607E-01
   0.768E+00 0.140E+01 -.759E+03   -.749E+00 -.140E+01 0.759E+03   0.305E-01 0.773E-02 0.400E+00   -.396E-01 -.325E-01 0.442E-02
   0.187E+02 -.108E+02 -.233E+04   -.193E+02 0.112E+02 0.233E+04   0.692E+00 -.403E+00 -.316E+00   -.145E-02 -.206E-02 -.566E-01
   0.493E+01 0.283E+01 0.230E+04   -.500E+01 -.287E+01 -.230E+04   -.222E-01 -.118E-01 -.166E-02   0.153E-01 0.683E-02 0.364E-01
   0.249E+01 0.139E+01 0.783E+03   -.252E+01 -.141E+01 -.783E+03   0.696E-02 0.548E-02 -.316E+00   0.273E-01 0.119E-01 0.606E-01
   -.781E+00 0.139E+01 -.759E+03   0.762E+00 -.138E+01 0.759E+03   -.303E-01 0.798E-02 0.400E+00   0.393E-01 -.327E-01 0.431E-02
   -.187E+02 -.108E+02 -.233E+04   0.193E+02 0.112E+02 0.233E+04   -.692E+00 -.403E+00 -.316E+00   0.148E-02 -.250E-02 -.566E-01
   -.143E-02 0.318E+01 0.231E+04   0.137E-02 -.324E+01 -.231E+04   0.493E-05 0.140E-01 -.246E-01   0.623E-05 0.317E-03 0.258E-01
   -.927E+00 0.480E+00 0.787E+03   0.866E+00 -.447E+00 -.787E+03   0.199E-01 -.107E-01 -.464E+00   0.533E-01 -.294E-01 0.549E-01
   0.272E+01 0.155E+01 -.782E+03   -.301E+01 -.170E+01 0.782E+03   0.220E+00 0.125E+00 0.301E+00   0.245E-01 0.982E-02 -.759E-02
   -.243E-01 -.917E+01 -.226E+04   0.244E-01 0.925E+01 0.226E+04   0.888E-03 -.400E-01 0.430E-01   -.310E-03 -.189E-01 -.268E-01
   0.184E+01 0.143E+01 0.231E+04   -.185E+01 -.142E+01 -.231E+04   -.481E-02 -.552E-02 -.135E+00   0.336E-01 -.135E-02 0.410E-01
   -.104E-01 0.140E+01 0.784E+03   0.107E-01 -.141E+01 -.784E+03   0.194E-03 0.250E-01 -.376E+00   -.327E-03 -.305E-01 0.382E-01
   -.727E-03 0.687E+00 -.763E+03   0.826E-03 -.717E+00 0.763E+03   0.860E-04 -.182E-02 0.381E+00   -.924E-04 0.316E-01 -.412E-02
   -.417E+01 -.832E+01 -.230E+04   0.410E+01 0.822E+01 0.230E+04   0.390E-01 0.112E+00 0.727E-01   0.239E-01 -.744E-02 -.297E-01
   0.219E+01 0.846E+00 0.231E+04   -.218E+01 -.864E+00 -.231E+04   -.727E-02 -.563E-03 -.136E+00   0.170E-01 0.270E-01 0.428E-01
   0.339E+01 0.504E+01 0.780E+03   -.340E+01 -.512E+01 -.780E+03   -.416E-01 0.528E-01 -.292E+00   0.336E-01 -.664E-02 0.568E-01
   0.599E+00 -.472E+00 -.764E+03   -.629E+00 0.494E+00 0.763E+03   -.153E-03 0.198E-02 0.384E+00   0.305E-01 -.188E-01 -.328E-02
   -.913E+01 0.540E+00 -.230E+04   0.901E+01 -.548E+00 0.230E+04   0.114E+00 -.248E-01 0.740E-01   0.495E-02 0.219E-01 -.306E-01
   0.108E-02 -.180E+00 -.293E+03   -.113E-02 0.201E+00 0.295E+03   0.481E-04 -.179E-01 -.170E+01   0.123E-04 -.143E-03 -.261E-02
 -----------------------------------------------------------------------------------------------
   0.555E-04 0.576E-01 0.248E+01   0.790E-13 0.142E-11 0.227E-11   -.804E-03 -.452E-01 -.329E+01   -.218E-03 -.172E-02 0.846E+00
 
 
 POSITION                                       TOTAL-FORCE (eV/Angst)
 -----------------------------------------------------------------------------------
     10.55998      0.00001      1.11585        -0.000556     -0.020162     -0.023433
      2.63732      1.52537      3.55347        -0.016283      0.033497      0.016734
      0.00690      3.05384      5.99426         0.027563      0.015949      0.023296
     -0.00015      0.00071      8.38094        -0.007361      0.010094     -0.011248
      9.23998      2.28632      1.11585         0.043993      0.023580      0.030466
      1.31999      3.81060      3.61105        -0.000122      0.000731      0.016292
      1.32004      0.77718      5.97265        -0.000093      0.032768     -0.010224
      9.23246      2.28474      8.32214        -0.003211     -0.013109      0.010015
      1.31998      2.28632      1.11585        -0.000022      0.085893      0.029704
     -1.31785      3.81229      3.55248         0.037431     -0.002136      0.020286
      3.95996      0.75960      5.93361        -0.020308      0.023342      0.004048
      1.32005      2.26314      8.53271        -0.000169     -0.018327      0.044098
      2.63998      0.00001      1.11585         0.000477     -0.020191     -0.023429
      0.00265      1.52538      3.55345         0.015807      0.033466      0.016823
      2.63319      3.05384      5.99430        -0.027941      0.016074      0.023155
      2.64027      0.00070      8.38096         0.006778      0.010032     -0.011401
      5.27998      0.00001      1.11585         0.016577      0.009277     -0.013380
      7.91992      1.52433      3.55059         0.014866      0.008509     -0.021799
      5.28349      3.05221      5.93401        -0.029159      0.003110     -0.002410
      5.27914      0.00131      8.40242         0.002060      0.003682     -0.009425
      3.95998      2.28632      1.11585        -0.044129      0.023605      0.030423
      6.59997      3.81064      3.54478         0.000101      0.016235     -0.017709
      6.60003      0.76349      5.96617        -0.000138      0.000427      0.012715
      3.96757      2.28471      8.32217         0.003843     -0.012459      0.010139
      6.59998      2.28632      1.11585        -0.000048     -0.020462     -0.013646
      3.95780      3.81226      3.55250        -0.037379     -0.001831      0.020089
      9.24010      0.75961      5.93362         0.020482      0.023294      0.003818
      6.60003      2.28966      8.40293        -0.000317     -0.007057     -0.008090
      7.91998      0.00001      1.11585        -0.016683      0.009301     -0.013352
      5.28000      1.52432      3.55058        -0.014377      0.008563     -0.021910
      7.91653      3.05223      5.93401         0.029848      0.003076     -0.002675
      7.92092      0.00128      8.40240        -0.002012      0.003859     -0.009606
      7.91998      4.57263      1.11585        -0.018992      0.008686     -0.026184
     -0.00037      6.09419      3.55295         0.020952     -0.030662      0.019135
     -2.64077      7.62211      5.94267         0.000461      0.004138     -0.015654
     -2.64142      4.57545      8.37996         0.002289     -0.009304     -0.006224
      6.59998      6.85894      1.11585        -0.000021     -0.000059     -0.059013
     -1.32011      8.38322      3.54482        -0.012897     -0.007398     -0.020411
     -1.30845      5.32962      5.97158         0.030570     -0.018528     -0.014345
     -3.95996      6.86087      8.35300         0.000013      0.005960     -0.009074
     -1.32002      6.85894      1.11585        -0.017101      0.011184     -0.025660
     -3.96001      8.38402      3.54536        -0.000211     -0.005284     -0.013269
      1.32005      5.32810      5.99434        -0.000142     -0.030894      0.022567
     -1.32105      6.86185      8.38058         0.008617      0.006333     -0.008597
     -0.00002      4.57263      1.11585         0.076159     -0.044121      0.028451
     -2.63928      6.09650      3.54475        -0.005741      0.003355     -0.009744
     -0.00351      7.62435      5.93389         0.010547     -0.028818      0.000278
     -0.02239      4.58771      8.52980        -0.006117      0.003873      0.048023
      2.63998      4.57263      1.11585        -0.076239     -0.044129      0.028492
      5.27924      6.09649      3.54473         0.005716      0.003504     -0.009750
      2.64356      7.62433      5.93388        -0.010222     -0.028607      0.000294
      2.66244      4.58773      8.52984         0.006510      0.003976      0.048035
      1.31998      6.85894      1.11585        -0.000038     -0.050657      0.030770
      3.96007      8.38321      3.54480         0.012943     -0.007067     -0.020250
      3.94852      5.32959      5.97156        -0.030535     -0.017912     -0.013828
      1.31998      6.86891      8.32262         0.000755      0.014118      0.010722
      3.95998      6.85894      1.11585         0.016983      0.011148     -0.025694
      1.31997      8.38332      3.55055         0.000176     -0.016418     -0.021515
      6.60002      5.33746      5.94261         0.000108     -0.001644     -0.018303
      3.96113      6.86187      8.38053        -0.008772      0.006119     -0.008766
      5.27998      4.57263      1.11585         0.018897      0.008662     -0.026191
      2.64035      6.09417      3.55296        -0.021096     -0.030427      0.019026
      5.28084      7.62211      5.94266        -0.000619      0.004398     -0.015486
      5.28149      4.57544      8.38000        -0.002502     -0.009172     -0.006316
      1.32002      3.80849      9.55258         0.000031      0.003016      0.020115
 -----------------------------------------------------------------------------------
    total drift:                               -0.000966      0.010684      0.044021


--------------------------------------------------------------------------------------------------------



  FREE ENERGIE OF THE ION-ELECTRON SYSTEM (eV)
  ---------------------------------------------------
  free  energy   TOTEN  =      -408.88153032 eV

  energy  without entropy=     -408.84392932  energy(sigma->0) =     -408.86899665
 
 d Force = 0.1970811E-02[ 0.172E-02, 0.222E-02]  d Energy = 0.1758221E-02 0.213E-03
 d Force = 0.1493324E+02[ 0.150E+02, 0.149E+02]  d Ewald  = 0.1493324E+02 0.206E-05


--------------------------------------------------------------------------------------------------------


    POTLOK:  cpu time    0.4124: real time    0.4134


--------------------------------------------------------------------------------------------------------


 Conjugate gradient step on ions:
 trial-energy change:   -0.001758  1 .order   -0.001971   -0.002217   -0.001725
  (g-gl).g = 0.282E-02      g.g   = 0.257E-02  gl.gl    = 0.291E-02
 g(Force)  = 0.257E-02   g(Stress)= 0.000E+00 ortho     = 0.184E-03
 gamma     =   0.97095
 trial     =   0.80513
 opt step  =   3.22051  (harmonic =   3.62756) maximal distance =0.02333001
 next E    =  -408.884766   (d E  =  -0.00499)


--------------------------------------------------------------------------------------------------------


  
 reached required accuracy - stopping structural energy minimisation
     LOOP+:  cpu time  356.0285: real time  356.9470
    4ORBIT:  cpu time    0.0000: real time    0.0000

 total amount of memory used by VASP MPI-rank0   200598. kBytes
=======================================================================

   base      :      30000. kBytes
   nonlr-proj:      30940. kBytes
   fftplans  :      17093. kBytes
   grid      :      44247. kBytes
   one-center:        528. kBytes
   wavefun   :      77790. kBytes
 
  
  
 General timing and accounting informations for this job:
 ========================================================
  
                  Total CPU time used (sec):     4883.055
                            User time (sec):     4875.347
                          System time (sec):        7.708
                         Elapsed time (sec):     4897.648
  
                   Maximum memory used (kb):      627380.
                   Average memory used (kb):           0.
  
                          Minor page faults:      1735041
                          Major page faults:            0
                 Voluntary context switches:         4285
