 vasp.5.4.4.18Apr17-6-g9f103f2a35 (build Nov 30 2020 22:55:02) complex          
  
 executed on             LinuxIFC date 2023.10.01  17:49:12
 running on   40 total cores
 distrk:  each k-point on   40 cores,    1 groups
 distr:  one band on NCORES_PER_BAND=   4 cores,   10 groups


--------------------------------------------------------------------------------------------------------


 INCAR:
 POTCAR:    PAW_PBE Pt 04Feb2005                  
 POTCAR:    PAW_PBE Pt 04Feb2005                  
   VRHFIN =Pt: s1d9                                                             
   LEXCH  = PE                                                                  
   EATOM  =   729.1176 eV,   53.5886 Ry                                         
                                                                                
   TITEL  = PAW_PBE Pt 04Feb2005                                                
   LULTRA =        F    use ultrasoft PP ?                                      
   IUNSCR =        1    unscreen: 0-lin 1-nonlin 2-no                           
   RPACOR =    2.330    partial core radius                                     
   POMASS =  195.080; ZVAL   =   10.000    mass and valenz                      
   RCORE  =    2.600    outmost cutoff radius                                   
   RWIGS  =    2.750; RWIGS  =    1.455    wigner-seitz radius (au A)           
   ENMAX  =  230.283; ENMIN  =  172.712 eV                                      
   ICORE  =        3    local potential                                         
   LCOR   =        T    correct aug charges                                     
   LPAW   =        T    paw PP                                                  
   EAUG   =  358.966                                                            
   DEXC   =    0.000                                                            
   RMAX   =    2.658    core radius for proj-oper                               
   RAUG   =    1.300    factor for augmentation sphere                          
   RDEP   =    2.761    radius for radial grids                                 
   RDEPT  =    2.203    core radius for aug-charge                              
                                                                                
   Atomic configuration                                                         
   16 entries                                                                   
     n  l   j            E        occ.                                          
     1  0  0.50    -78401.1885   2.0000                                         
     2  0  0.50    -13770.7750   2.0000                                         
     2  1  1.50    -11931.0468   6.0000                                         
     3  0  0.50     -3234.7234   2.0000                                         
     3  1  1.50     -2699.2216   6.0000                                         
     3  2  2.50     -2119.5714  10.0000                                         
     4  0  0.50      -695.1528   2.0000                                         
     4  1  1.50      -519.6034   6.0000                                         
     4  2  2.50      -306.6786  10.0000                                         
     4  3  3.50       -70.1041  14.0000                                         
     5  0  0.50      -101.7747   2.0000                                         
     5  1  1.50       -55.9873   6.0000                                         
     5  2  2.50        -6.1423   9.0000                                         
     6  0  0.50        -5.6573   1.0000                                         
     6  1  1.50        -6.8029   0.0000                                         
     5  3  2.50        -1.3606   0.0000                                         
   Description                                                                  
     l       E           TYP  RCUT    TYP  RCUT                                 
     2     -6.1423404     23  2.500                                             
     2     -7.5029230     23  2.500                                             
     0     -5.6573207     23  2.500                                             
     0      0.7416693     23  2.500                                             
     1     -2.7211652     23  2.600                                             
     1     20.4087390     23  2.600                                             
     3     -1.3605826     23  2.500                                             
  local pseudopotential read in
  partial core-charges read in
  partial kinetic energy density read in
  atomic valenz-charges read in
  non local Contribution for L=           2  read in
    real space projection operators read in
  non local Contribution for L=           2  read in
    real space projection operators read in
  non local Contribution for L=           0  read in
    real space projection operators read in
  non local Contribution for L=           0  read in
    real space projection operators read in
  non local Contribution for L=           1  read in
    real space projection operators read in
  non local Contribution for L=           1  read in
    real space projection operators read in
    PAW grid and wavefunctions read in
 
   number of l-projection  operators is LMAX  =           6
   number of lm-projection operators is LMMAX =          18
 
 Optimization of the real space projectors (new method)

 maximal supplied QI-value         = 14.36
 optimisation between [QCUT,QGAM] = [ 11.92, 23.98] = [ 39.79,161.09] Ry 
 Optimized for a Real-space Cutoff    1.49 Angstroem

   l    n(q)    QCUT    max X(q) W(low)/X(q) W(high)/X(q)  e(spline) 
   2     10    11.920    66.195    0.79E-04    0.18E-03    0.24E-06
   2     10    11.920    64.643    0.81E-04    0.19E-03    0.24E-06
   0     11    11.920    95.520    0.28E-04    0.54E-04    0.18E-06
   0     11    11.920    63.403    0.27E-04    0.52E-04    0.17E-06
   1     10    11.920    19.961    0.18E-04    0.11E-03    0.23E-06
   1     10    11.920    13.289    0.25E-04    0.87E-04    0.19E-06
  PAW_PBE Pt 04Feb2005                  :
 energy of atom  1       EATOM= -729.1176
 kinetic energy error for atom=    0.0021 (will be added to EATOM!!)
 
 
 POSCAR: top                                     
  positions in cartesian coordinates
  No initial velocities read in
 exchange correlation table for  LEXCH =        8
   RHO(1)=    0.500       N(1)  =     2000
   RHO(2)=  100.500       N(2)  =     4000
 


--------------------------------------------------------------------------------------------------------


 ion  position               nearest neighbor table
   1  0.333  0.166  0.184-  10 2.64  22 2.64  19 2.65  28 2.65  31 2.66   4 2.66   8 2.74   5 2.78
                            52 2.99  54 2.99  51 2.99  11 3.02
   2  0.167  0.333  0.315-  32 2.64  11 2.64  29 2.65   5 2.65  20 2.66  23 2.66   6 2.72   4 2.77
                            36 2.88   9 2.88  10 3.02   7 3.02
   3  0.000  0.999  0.417-  12 2.63  45 2.64  24 2.64  30 2.65   6 2.65   9 2.66   5 2.78  20 2.83
                            47 3.07
   4  0.333  0.417  0.199-  25 2.66  46 2.66   7 2.66  10 2.66  19 2.66   1 2.66  32 2.77   2 2.77
                            11 2.77  61 3.25  60 3.25  51 3.25
   5  0.167  0.083  0.301-   8 2.64  20 2.64   2 2.65  11 2.65  47 2.66  26 2.66  12 2.78   3 2.78
                             1 2.78  10 2.78   9 3.11  31 3.12
   6  0.001  0.250  0.428-  36 2.64   9 2.64  27 2.65   3 2.65  24 2.66  21 2.66   2 2.72  20 3.01
                            23 3.01
   7  0.083  0.417  0.184-  25 2.64  13 2.64  10 2.65  16 2.65  34 2.66   4 2.66  23 2.74  29 2.78
                            57 2.98  60 2.99  50 2.99   2 3.02
   8  0.416  0.084  0.298-   5 2.64  14 2.64  17 2.65  26 2.65  35 2.65  11 2.66   1 2.74  15 2.81
                            12 2.83  22 2.86  28 2.97  18 3.01
   9  0.250  0.249  0.437-  18 2.64   6 2.64  39 2.65  36 2.65  12 2.66   3 2.66  11 2.88   2 2.88
                             5 3.11
  10  0.083  0.166  0.184-   1 2.64  13 2.64   7 2.65  40 2.65  31 2.66   4 2.66  20 2.74   5 2.78
                            49 2.99  51 2.99  50 2.99   2 3.02
  11  0.417  0.333  0.315-  32 2.64   2 2.64  41 2.65   5 2.65  14 2.66   8 2.66  18 2.72   4 2.77
                            39 2.88   9 2.88   1 3.02  19 3.02
  12  0.249  0.999  0.417-   3 2.63  33 2.64  15 2.64  30 2.65  18 2.65   9 2.66   5 2.78   8 2.83
                            26 3.07
  13  0.833  0.167  0.178-  22 2.64  43 2.64   7 2.64  10 2.64  16 2.65  40 2.65  17 2.79  23 2.85
                            20 2.86  55 2.87  56 2.87  50 2.87
  14  0.666  0.333  0.298-  41 2.64   8 2.64  17 2.65  44 2.65  23 2.65  11 2.66  19 2.74  21 2.82
                            48 2.83  22 2.86  16 2.97  18 3.01
  15  0.500  1.000  0.416-  21 2.64  24 2.64  33 2.64  12 2.64  42 2.66  18 2.66  35 2.81   8 2.81
                            17 2.87
  16  0.834  0.417  0.171-  37 2.64  34 2.64  13 2.65  22 2.65  19 2.65   7 2.65  44 2.71  57 2.76
                            64 2.76  55 2.76  14 2.97  23 2.97
  17  0.667  0.083  0.295-  14 2.65  35 2.65  38 2.65  23 2.65   8 2.65  20 2.65  43 2.79  13 2.79
                            22 2.79  15 2.87  24 2.87  21 2.87
  18  0.500  0.250  0.428-  39 2.64   9 2.64  48 2.65  12 2.65  21 2.66  15 2.66  11 2.72   8 3.01
                            14 3.01
  19  0.584  0.417  0.184-  46 2.64  22 2.64   1 2.65  16 2.65  37 2.66   4 2.66  14 2.74  41 2.78
                            64 2.98  54 2.99  61 2.99  11 3.02
  20  0.917  0.084  0.298-   5 2.64  23 2.64  17 2.65  47 2.65  38 2.65   2 2.66  10 2.74  24 2.81
                             3 2.83  13 2.86  40 2.97   6 3.01
  21  0.750  0.250  0.416-  24 2.64  15 2.64  48 2.64  27 2.65  18 2.66   6 2.66  23 2.82  14 2.82
                            17 2.87
  22  0.583  0.167  0.177-  13 2.64  43 2.64  19 2.64   1 2.64  16 2.65  28 2.65  17 2.79  14 2.86
                             8 2.86  55 2.87  53 2.87  54 2.87
  23  0.917  0.333  0.298-  29 2.64  20 2.64  17 2.65  44 2.65  14 2.65   2 2.66   7 2.74  21 2.82
                            27 2.83  13 2.85  16 2.97   6 3.01
  24  0.750  1.000  0.416-  21 2.64  15 2.64   3 2.64  45 2.64   6 2.66  42 2.66  38 2.81  20 2.81
                            17 2.87
  25  0.333  0.667  0.184-   7 2.64  43 2.64  46 2.65  28 2.65  34 2.66   4 2.66  35 2.74  29 2.78
                            59 2.99  60 2.99  62 2.99  32 3.02
  26  0.168  0.834  0.284-  35 2.65   8 2.65  47 2.66  44 2.66   5 2.66  29 2.66  28 2.71  30 2.82
                            34 2.84  31 2.84  12 3.07  33 3.07
  27  0.000  0.501  0.417-  33 2.63  48 2.64  21 2.65  30 2.65   6 2.65  36 2.66  29 2.78  23 2.83
                            44 3.07
  28  0.333  0.916  0.171-  34 2.64  31 2.64  43 2.65  22 2.65  25 2.65   1 2.65  26 2.71  59 2.76
                            52 2.76  53 2.77   8 2.97  35 2.97
  29  0.167  0.583  0.301-  23 2.64  35 2.64   2 2.65  32 2.65  26 2.66  44 2.66  27 2.78  33 2.78
                            25 2.78   7 2.78  36 3.11  34 3.12
  30  1.000  0.750  0.402-  27 2.65  48 2.65  12 2.65   3 2.65  45 2.65  33 2.65  47 2.82  26 2.82
                            44 2.83
  31  0.084  0.917  0.164-  40 2.64  28 2.64  49 2.65  52 2.65  34 2.65  37 2.65  58 2.66  10 2.66
                             1 2.66  47 2.84  26 2.84   5 3.12
  32  0.417  0.583  0.315-  11 2.64   2 2.64  29 2.65  41 2.65  35 2.66  38 2.66  42 2.72   4 2.77
                            36 2.88  39 2.88  46 3.02  25 3.02
  33  0.249  0.749  0.417-  27 2.63  12 2.64  15 2.64  30 2.65  42 2.65  36 2.66  29 2.78  35 2.83
                            26 3.07
  34  0.084  0.666  0.164-  28 2.64  16 2.64  59 2.65  57 2.65  31 2.65  37 2.65  58 2.66  25 2.66
                             7 2.66  26 2.84  44 2.84  29 3.12
  35  0.416  0.833  0.298-  29 2.64  38 2.64  17 2.65  26 2.65   8 2.65  32 2.66  25 2.74  15 2.81
                            33 2.83  43 2.86  28 2.97  42 3.01
  36  0.250  0.500  0.437-   6 2.64  42 2.64  39 2.65   9 2.65  27 2.66  33 2.66   2 2.88  32 2.88
                            29 3.11
  37  0.833  0.666  0.164-  40 2.64  16 2.64  64 2.65  63 2.65  31 2.65  34 2.65  58 2.66  19 2.66
                            46 2.66  47 2.84  44 2.84  41 3.12
  38  0.666  0.833  0.298-  41 2.64  35 2.64  17 2.65  47 2.65  20 2.65  32 2.66  46 2.74  24 2.81
                            45 2.83  43 2.86  40 2.97  42 3.01
  39  0.501  0.500  0.437-  18 2.64  42 2.64   9 2.65  36 2.65  45 2.66  48 2.66  11 2.88  32 2.88
                            41 3.11
  40  0.834  0.916  0.171-  31 2.64  37 2.64  43 2.65  13 2.65  46 2.65  10 2.65  47 2.71  49 2.76
                            63 2.76  56 2.77  20 2.97  38 2.97
  41  0.666  0.583  0.301-  14 2.64  38 2.64  11 2.65  32 2.65  47 2.66  44 2.66  48 2.78  45 2.78
                            46 2.78  19 2.78  39 3.11  37 3.12
  42  0.500  0.749  0.428-  36 2.64  39 2.64  45 2.65  33 2.65  15 2.66  24 2.66  32 2.72  38 3.01
                            35 3.01
  43  0.583  0.917  0.178-  22 2.64  13 2.64  25 2.64  46 2.64  28 2.65  40 2.65  17 2.79  35 2.86
                            38 2.86  53 2.87  56 2.87  62 2.87
  44  0.916  0.582  0.284-  23 2.65  14 2.65  47 2.66  26 2.66  41 2.66  29 2.66  16 2.71  30 2.83
                            34 2.84  37 2.84  48 3.07  27 3.07
  45  0.750  0.749  0.417-  48 2.63   3 2.64  24 2.64  30 2.65  42 2.65  39 2.66  41 2.78  38 2.83
                            47 3.07
  46  0.584  0.667  0.184-  19 2.64  43 2.64  25 2.65  40 2.65  37 2.66   4 2.66  38 2.74  41 2.78
                            63 2.99  61 2.99  62 2.99  32 3.02
  47  0.916  0.834  0.284-  38 2.65  20 2.65  26 2.66  44 2.66   5 2.66  41 2.66  40 2.71  30 2.82
                            37 2.84  31 2.84   3 3.07  45 3.07
  48  0.750  0.501  0.417-  45 2.63  27 2.64  21 2.64  30 2.65  18 2.65  39 2.66  41 2.78  14 2.83
                            44 3.07
  49  0.000  0.000  0.056-  50 2.64  51 2.64  52 2.64  56 2.64  63 2.64  58 2.64  31 2.65  40 2.76
                            10 2.99
  50  1.000  0.250  0.056-  49 2.64  60 2.64  57 2.64  51 2.64  56 2.64  55 2.64  13 2.87   7 2.99
                            10 2.99
  51  0.250  0.250  0.056-  54 2.64  52 2.64  49 2.64  61 2.64  60 2.64  50 2.64   1 2.99  10 2.99
                             4 3.25
  52  0.250  0.000  0.056-  54 2.64  51 2.64  53 2.64  49 2.64  58 2.64  59 2.64  31 2.65  28 2.76
                             1 2.99
  53  0.500  0.000  0.056-  56 2.64  55 2.64  52 2.64  54 2.64  59 2.64  62 2.64  28 2.77  22 2.87
                            43 2.87
  54  0.500  0.250  0.056-  55 2.64  64 2.64  51 2.64  52 2.64  61 2.64  53 2.64  22 2.87  19 2.99
                             1 2.99
  55  0.750  0.250  0.056-  53 2.64  54 2.64  56 2.64  64 2.64  57 2.64  50 2.64  16 2.76  22 2.87
                            13 2.87
  56  0.750  0.000  0.056-  53 2.64  55 2.64  50 2.64  62 2.64  49 2.64  63 2.64  40 2.77  13 2.87
                            43 2.87
  57  1.000  0.500  0.056-  58 2.64  59 2.64  50 2.64  60 2.64  55 2.64  64 2.64  34 2.65  16 2.76
                             7 2.98
  58  1.000  0.750  0.056-  57 2.64  59 2.64  64 2.64  63 2.64  52 2.64  49 2.64  34 2.66  37 2.66
                            31 2.66
  59  0.250  0.750  0.056-  60 2.64  57 2.64  58 2.64  62 2.64  53 2.64  52 2.64  34 2.65  28 2.76
                            25 2.99
  60  0.250  0.500  0.056-  59 2.64  62 2.64  50 2.64  51 2.64  61 2.64  57 2.64   7 2.99  25 2.99
                             4 3.25
  61  0.500  0.500  0.056-  64 2.64  62 2.64  63 2.64  54 2.64  51 2.64  60 2.64  19 2.99  46 2.99
                             4 3.25
  62  0.500  0.750  0.056-  61 2.64  63 2.64  60 2.64  59 2.64  56 2.64  53 2.64  43 2.87  25 2.99
                            46 2.99
  63  0.750  0.750  0.056-  64 2.64  61 2.64  62 2.64  58 2.64  49 2.64  56 2.64  37 2.65  40 2.76
                            46 2.99
  64  0.750  0.500  0.056-  61 2.64  63 2.64  54 2.64  55 2.64  58 2.64  57 2.64  37 2.65  16 2.76
                            19 2.98
 
  LATTYP: Found a hexagonal cell.
 ALAT       =    10.5600004196
 C/A-ratio  =     1.8939393187
  
  Lattice vectors:
  
 A1 = (  10.5600004196,   0.0000000000,   0.0000000000)
 A2 = (  -5.2800002098,   9.1452286274,   0.0000000000)
 A3 = (   0.0000000000,   0.0000000000,  20.0000000000)


Analysis of symmetry for initial positions (statically):
=====================================================================
 Subroutine PRICEL returns:
 Original cell was already a primitive cell.
 

 Routine SETGRP: Setting up the symmetry group for a 
 hexagonal supercell.


 Subroutine GETGRP returns: Found  1 space group operations
 (whereof  1 operations were pure point group operations)
 out of a pool of 24 trial point group operations.


The static configuration has the point symmetry C_1 .


Analysis of symmetry for dynamics (positions and initial velocities):
=====================================================================
 Subroutine PRICEL returns:
 Original cell was already a primitive cell.
 

 Routine SETGRP: Setting up the symmetry group for a 
 hexagonal supercell.


 Subroutine GETGRP returns: Found  1 space group operations
 (whereof  1 operations were pure point group operations)
 out of a pool of 24 trial point group operations.


The dynamic configuration has the point symmetry C_1 .


Analysis of constrained symmetry for selective dynamics:
=====================================================================
 Subroutine PRICEL returns:
 Original cell was already a primitive cell.
 

 Routine SETGRP: Setting up the symmetry group for a 
 hexagonal supercell.


 Subroutine GETGRP returns: Found  1 space group operations
 (whereof  1 operations were pure point group operations)
 out of a pool of 24 trial point group operations.


The constrained configuration has the point symmetry C_1 .


Analysis of structural, dynamic, and magnetic symmetry:
=====================================================================
 Subroutine PRICEL returns:
 Original cell was already a primitive cell.
 

 Routine SETGRP: Setting up the symmetry group for a 
 hexagonal supercell.


 Subroutine GETGRP returns: Found  1 space group operations
 (whereof  1 operations were pure point group operations)
 out of a pool of 24 trial point group operations.


The magnetic configuration has the point symmetry C_1 .


 Subroutine INISYM returns: Found  1 space group operations
 (whereof  1 operations are pure point group operations),
 and found     1 'primitive' translations

 
 
 KPOINTS: mesh auto                               

Automatic generation of k-mesh.
Space group operators:
 irot       det(A)        alpha          n_x          n_y          n_z        tau_x        tau_y        tau_z
    1     1.000000     0.000000     1.000000     0.000000     0.000000     0.000000     0.000000     0.000000
 
 Subroutine IBZKPT returns following result:
 ===========================================
 
 Found      4 irreducible k-points:
 
 Following reciprocal coordinates:
            Coordinates               Weight
  0.000000  0.000000  0.000000      1.000000
  0.500000 -0.000000  0.000000      1.000000
  0.000000  0.500000  0.000000      1.000000
  0.500000  0.500000  0.000000      1.000000
 
 Following cartesian coordinates:
            Coordinates               Weight
  0.000000  0.000000  0.000000      1.000000
  0.047348  0.027337  0.000000      1.000000
  0.000000  0.054673  0.000000      1.000000
  0.047348  0.082010  0.000000      1.000000
 


--------------------------------------------------------------------------------------------------------




 Dimension of arrays:
   k-points           NKPTS =      4   k-points in BZ     NKDIM =      4   number of bands    NBANDS=    420
   number of dos      NEDOS =    301   number of ions     NIONS =     64
   non local maximal  LDIM  =      6   non local SUM 2l+1 LMDIM =     18
   total plane-waves  NPLWV = ******
   max r-space proj   IRMAX =   8171   max aug-charges    IRDMAX=  35597
   dimension x,y,z NGX =    84 NGY =   84 NGZ =  160
   dimension x,y,z NGXF=   168 NGYF=  168 NGZF=  320
   support grid    NGXF=   168 NGYF=  168 NGZF=  320
   ions per type =              64
   NGX,Y,Z   is equivalent  to a cutoff of  13.22, 13.22, 13.30 a.u.
   NGXF,Y,Z  is equivalent  to a cutoff of  26.45, 26.45, 26.60 a.u.

 SYSTEM =  Pt111                                   
 POSCAR =  top                                     

 Startparameter for this run:
   NWRITE =      2    write-flag & timer
   PREC   = accura    normal or accurate (medium, high low for compatibility)
   ISTART =      0    job   : 0-new  1-cont  2-samecut
   ICHARG =      2    charge: 1-file 2-atom 10-const
   ISPIN  =      2    spin polarized calculation?
   LNONCOLLINEAR =      F non collinear calculations
   LSORBIT =      F    spin-orbit coupling
   INIWAV =      1    electr: 0-lowe 1-rand  2-diag
   LASPH  =      F    aspherical Exc in radial PAW
   METAGGA=      F    non-selfconsistent MetaGGA calc.

 Electronic Relaxation 1
   ENCUT  =  550.0 eV  40.42 Ry    6.36 a.u.  20.19 20.19 38.24*2*pi/ulx,y,z
   ENINI  =  550.0     initial cutoff
   ENAUG  =  359.0 eV  augmentation charge cutoff
   NELM   =    200;   NELMIN=  2; NELMDL= -5     # of ELM steps 
   EDIFF  = 0.1E-04   stopping-criterion for ELM
   LREAL  =      T    real-space projection
   NLSPLINE    = F    spline interpolate recip. space projectors
   LCOMPAT=      F    compatible to vasp.4.4
   GGA_COMPAT  = T    GGA compatible to vasp.4.4-vasp.4.6
   LMAXPAW     = -100 max onsite density
   LMAXMIX     =    2 max onsite mixed and CHGCAR
   VOSKOWN=      0    Vosko Wilk Nusair interpolation
   ROPT   =   -0.00025
 Ionic relaxation
   EDIFFG = -.5E-01   stopping-criterion for IOM
   NSW    =    300    number of steps for IOM
   NBLOCK =      1;   KBLOCK =    300    inner block; outer block 
   IBRION =      2    ionic relax: 0-MD 1-quasi-New 2-CG
   NFREE  =      1    steps in history (QN), initial steepest desc. (CG)
   ISIF   =      2    stress and relaxation
   IWAVPR =     11    prediction:  0-non 1-charg 2-wave 3-comb
   ISYM   =      2    0-nonsym 1-usesym 2-fastsym
   LCORR  =      T    Harris-Foulkes like correction to forces

   POTIM  = 0.5000    time-step for ionic-motion
   TEIN   =    0.0    initial temperature
   TEBEG  =    0.0;   TEEND  =   0.0 temperature during run
   SMASS  =  -3.00    Nose mass-parameter (am)
   estimated Nose-frequenzy (Omega)   =  0.10E-29 period in steps =****** mass=  -0.255E-26a.u.
   SCALEE = 1.0000    scale energy and forces
   NPACO  =    256;   APACO  = 16.0  distance and # of slots for P.C.
   PSTRESS=    0.0 pullay stress

  Mass of Ions in am
   POMASS = 195.08
  Ionic Valenz
   ZVAL   =  10.00
  Atomic Wigner-Seitz radii
   RWIGS  =  -1.00
  virtual crystal weights 
   VCA    =   1.00
   NELECT =     640.0000    total number of electrons
   NUPDOWN=      -1.0000    fix difference up-down

 DOS related values:
   EMIN   =  10.00;   EMAX   =-10.00  energy-range for DOS
   EFERMI =   0.00
   ISMEAR =     1;   SIGMA  =   0.10  broadening in eV -4-tet -1-fermi 0-gaus

 Electronic relaxation 2 (details)
   IALGO  =     68    algorithm
   LDIAG  =      T    sub-space diagonalisation (order eigenvalues)
   LSUBROT=      F    optimize rotation matrix (better conditioning)
   TURBO    =      0    0=normal 1=particle mesh
   IRESTART =      0    0=no restart 2=restart with 2 vectors
   NREBOOT  =      0    no. of reboots
   NMIN     =      0    reboot dimension
   EREF     =   0.00    reference energy to select bands
   IMIX   =      4    mixing-type and parameters
     AMIX     =   0.40;   BMIX     =  1.00
     AMIX_MAG =   1.60;   BMIX_MAG =  1.00
     AMIN     =   0.10
     WC   =   100.;   INIMIX=   1;  MIXPRE=   1;  MAXMIX= -45

 Intra band minimization:
   WEIMIN = 0.0010     energy-eigenvalue tresh-hold
   EBREAK =  0.60E-08  absolut break condition
   DEPER  =   0.30     relativ break condition  

   TIME   =   0.40     timestep for ELM

  volume/ion in A,a.u.               =      30.18       203.66
  Fermi-wavevector in a.u.,A,eV,Ry     =   1.132849  2.140774 17.460991  1.283347
  Thomas-Fermi vector in A             =   2.269551
 
 Write flags
   LWAVE        =      F    write WAVECAR
   LDOWNSAMPLE  =      F    k-point downsampling of WAVECAR
   LCHARG       =      F    write CHGCAR
   LVTOT        =      F    write LOCPOT, total local potential
   LVHAR        =      F    write LOCPOT, Hartree potential only
   LELF         =      F    write electronic localiz. function (ELF)
   LORBIT       =      0    0 simple, 1 ext, 2 COOP (PROOUT), +10 PAW based schemes


 Dipole corrections
   LMONO  =      F    monopole corrections only (constant potential shift)
   LDIPOL =      F    correct potential (dipole corrections)
   IDIPOL =      0    1-x, 2-y, 3-z, 4-all directions 
   EPSILON=  1.0000000 bulk dielectric constant

 Exchange correlation treatment:
   GGA     =    --    GGA type
   LEXCH   =     8    internal setting for exchange type
   VOSKOWN=      0    Vosko Wilk Nusair interpolation
   LHFCALC =     F    Hartree Fock is set to
   LHFONE  =     F    Hartree Fock one center treatment
   AEXX    =    0.0000 exact exchange contribution

 Linear response parameters
   LEPSILON=     F    determine dielectric tensor
   LRPA    =     F    only Hartree local field effects (RPA)
   LNABLA  =     F    use nabla operator in PAW spheres
   LVEL    =     F    velocity operator in full k-point grid
   LINTERFAST=   F  fast interpolation
   KINTER  =     0    interpolate to denser k-point grid
   CSHIFT  =0.1000    complex shift for real part using Kramers Kronig
   OMEGAMAX=  -1.0    maximum frequency
   DEG_THRESHOLD= 0.2000000E-02 threshold for treating states as degnerate
   RTIME   =   -0.100 relaxation time in fs
  (WPLASMAI=    0.000 imaginary part of plasma frequency in eV, 0.658/RTIME)
   DFIELD  = 0.0000000 0.0000000 0.0000000 field for delta impulse in time
 
 Orbital magnetization related:
   ORBITALMAG=     F  switch on orbital magnetization
   LCHIMAG   =     F  perturbation theory with respect to B field
   DQ        =  0.001000  dq finite difference perturbation B field
   LLRAUG    =     F  two centre corrections for induced B field



--------------------------------------------------------------------------------------------------------


 conjugate gradient relaxation of ions
   using selective dynamics as specified on POSCAR
   WARNING: If single coordinates had been selected the selection of coordinates
            is made according to the corresponding   d i r e c t   coordinates!
            Don't support selection of single cartesian coordinates -- sorry ...
  !
 charge density and potential will be updated during run
 spin polarized calculation
 RMM-DIIS sequential band-by-band and
  variant of blocked Davidson during initial phase
 perform sub-space diagonalisation
    before iterative eigenvector-optimisation
 modified Broyden-mixing scheme, WC =      100.0
 initial mixing is a Kerker type mixing with AMIX =  0.4000 and BMIX =      1.0000
 Hartree-type preconditioning will be used
 using additional bands          100
 real space projection scheme for non local part
 use partial core corrections
 calculate Harris-corrections to forces 
   (improved forces if not selfconsistent)
 use gradient corrections 
 use of overlap-Matrix (Vanderbilt PP)
 Methfessel and Paxton  Order N= 1 SIGMA  =   0.10


--------------------------------------------------------------------------------------------------------


  energy-cutoff  :      550.00
  volume of cell :     1931.47
      direct lattice vectors                 reciprocal lattice vectors
    10.560000420  0.000000000  0.000000000     0.094696966  0.054673319  0.000000000
    -5.280000210  9.145228627  0.000000000     0.000000000  0.109346638  0.000000000
     0.000000000  0.000000000 20.000000000     0.000000000  0.000000000  0.050000000

  length of vectors
    10.560000420 10.560000420 20.000000000     0.109346638  0.109346638  0.050000000


 
 k-points in units of 2pi/SCALE and weight: mesh auto                               
   0.00000000  0.00000000  0.00000000       0.250
   0.04734848  0.02733666  0.00000000       0.250
   0.00000000  0.05467332  0.00000000       0.250
   0.04734848  0.08200998  0.00000000       0.250
 
 k-points in reciprocal lattice and weights: mesh auto                               
   0.00000000  0.00000000  0.00000000       0.250
   0.50000000 -0.00000000  0.00000000       0.250
   0.00000000  0.50000000  0.00000000       0.250
   0.50000000  0.50000000  0.00000000       0.250
 
 position of ions in fractional coordinates (direct lattice) 
   0.33307999  0.16615000  0.18427000
   0.16679999  0.33334998  0.31465001
   0.00038001  0.99946001  0.41747999
   0.33335001  0.41670000  0.19910001
   0.16672000  0.08338999  0.30090001
   0.00088000  0.25032999  0.42779999
   0.08307999  0.41692001  0.18422999
   0.41641000  0.08372000  0.29815998
   0.24955000  0.24899999  0.43684001
   0.08308000  0.16615000  0.18427999
   0.41660001  0.33338002  0.31465001
   0.24912999  0.99944999  0.41747003
   0.83317996  0.16660000  0.17753000
   0.66619999  0.33348000  0.29814000
   0.49974995  0.99976993  0.41630001
   0.83358994  0.41715998  0.17096999
   0.66663997  0.08326999  0.29451001
   0.49953999  0.25034000  0.42778997
   0.58385998  0.41692001  0.18422999
   0.91734000  0.08371000  0.29816999
   0.75008001  0.25007998  0.41633997
   0.58341001  0.16659000  0.17749000
   0.91731001  0.33348000  0.29815001
   0.75008998  0.99978995  0.41630001
   0.33305999  0.66692000  0.18426000
   0.16786002  0.83385002  0.28381000
   0.00040000  0.50068996  0.41745000
   0.33281004  0.91640002  0.17103000
   0.16672999  0.58316999  0.30088000
   0.99994996  0.74984995  0.40237002
   0.08373001  0.91746004  0.16445000
   0.41658998  0.58313000  0.31466003
   0.24918002  0.74945999  0.41747003
   0.08374000  0.66627002  0.16443001
   0.41644000  0.83260997  0.29818001
   0.24953998  0.50028994  0.43685002
   0.83253003  0.66626000  0.16443001
   0.66623001  0.83262994  0.29819000
   0.50081995  0.50028994  0.43685999
   0.83360003  0.91640002  0.17103000
   0.66649002  0.58316999  0.30088000
   0.49952998  0.74898999  0.42782002
   0.58339997  0.91680995  0.17755001
   0.91602996  0.58201998  0.28378000
   0.75035003  0.74945999  0.41747999
   0.58387000  0.66693001  0.18427000
   0.91604002  0.83385002  0.28382001
   0.75035003  0.50066999  0.41743002
   0.00000000  0.00000000  0.05579000
   1.00000000  0.24999999  0.05579000
   0.25000000  0.24999999  0.05579000
   0.25000000  0.00000000  0.05579000
   0.50000000  0.00000000  0.05579000
   0.49999998  0.24999999  0.05579000
   0.74999996  0.24999999  0.05579000
   0.74999998  0.00000000  0.05579000
   0.99999999  0.49999999  0.05579000
   0.99999999  0.74999995  0.05579000
   0.24999999  0.74999995  0.05579000
   0.24999999  0.49999999  0.05579000
   0.49999999  0.49999999  0.05579000
   0.49999999  0.74999995  0.05579000
   0.74999997  0.74999995  0.05579000
   0.74999995  0.49999999  0.05579000
 
 position of ions in cartesian coordinates  (Angst):
   2.64005279  1.51947975  3.68540000
   0.00132001  3.04856181  6.29300022
  -5.27313614  9.14029026  8.34959984
   1.32000017  3.81081677  3.98200012
   1.32026410  0.76262057  6.01800012
  -1.31244957  2.28932500  8.55599976
  -1.32401300  3.81282878  3.68459988
   3.95524812  0.76563853  5.96319962
   1.32052815  2.27716184  8.73680020
   0.00005275  1.51947975  3.68559980
   2.63904977  3.04883647  6.29300022
  -2.64628338  9.14019871  8.34940052
   7.91873264  1.52359510  3.55060006
   5.27429771  3.04975081  5.96280002
  -0.00142575  9.14312458  8.32600022
   6.60010529  3.81502342  3.41939974
   6.60005284  0.76152312  5.89020014
   3.95334721  2.28941655  8.55579948
   3.96422386  3.81282878  3.68459988
   9.24512195  0.76554710  5.96339988
   6.60042286  2.28703856  8.32679940
   5.28121471  1.52350366  3.54979992
   7.92601966  3.04975081  5.96300030
   2.64205933  9.14330769  8.32600022
  -0.00422406  6.09913588  3.68519998
  -2.63012647  7.62574911  5.67619992
  -2.63941908  4.57892418  8.34899998
  -1.32411814  8.38068772  3.42059994
  -1.31846893  5.33322287  6.01760006
   6.60026407  6.85754919  8.04740048
  -3.96000028  8.39038181  3.28900004
   1.32026386  5.33285713  6.29320050
  -1.32580782  6.85398293  8.34940052
  -2.63361144  6.09319162  3.28860020
   0.00142574  7.61440850  5.96360016
  -0.00638866  4.57526588  8.73700046
   5.27366448  6.09310007  3.28860020
   2.63910294  7.61459112  5.96379996
   2.64712787  4.57526588  8.73719978
   3.96422434  8.38068772  3.42059994
   3.95899725  5.33322287  6.01760006
   1.32036948  6.84968472  8.55640030
   1.31994724  8.38443661  3.55100012
   6.60021115  5.32270575  5.67560006
   3.96654772  6.85398293  8.34959984
   2.64427686  6.09922743  3.68540000
   5.27065468  7.62574911  5.67640018
   5.28015900  4.57874155  8.34860038
   0.00000000  0.00000000  1.11580002
   9.24000037  2.28630709  1.11580002
   1.32000006  2.28630709  1.11580002
   2.64000010  0.00000000  1.11580002
   5.28000021  0.00000000  1.11580002
   3.96000004  2.28630709  1.11580002
   6.59999991  2.28630709  1.11580002
   7.92000007  0.00000000  1.11580002
   7.92000031  4.57261419  1.11580002
   6.60000038  6.85892105  1.11580002
  -1.31999994  6.85892105  1.11580002
  -0.00000001  4.57261419  1.11580002
   2.64000010  4.57261419  1.11580002
   1.32000017  6.85892105  1.11580002
   3.96000004  6.85892105  1.11580002
   5.27999973  4.57261419  1.11580002
 


--------------------------------------------------------------------------------------------------------


 k-point  1 :   0.0000 0.0000 0.0000  plane waves:   56579
 k-point  2 :   0.5000-0.0000 0.0000  plane waves:   56606
 k-point  3 :   0.0000 0.5000 0.0000  plane waves:   56606
 k-point  4 :   0.5000 0.5000 0.0000  plane waves:   56606

 maximum and minimum number of plane-waves per node :     14185    14108

 maximum number of plane-waves:     56606
 maximum index in each direction: 
   IXMAX=   20   IYMAX=   20   IZMAX=   38
   IXMIN=  -20   IYMIN=  -20   IZMIN=  -38


 real space projection operators:
  total allocation   :      71073.00 KBytes
  max/ min on nodes  :      17769.52      17767.27


 parallel 3D FFT for wavefunctions:
    minimum data exchange during FFTs selected (reduces bandwidth)
 parallel 3D FFT for charge:
    minimum data exchange during FFTs selected (reduces bandwidth)


 total amount of memory used by VASP MPI-rank0   198159. kBytes
=======================================================================

   base      :      30000. kBytes
   nonlr-proj:      30750. kBytes
   fftplans  :      17093. kBytes
   grid      :      42083. kBytes
   one-center:        497. kBytes
   wavefun   :      77736. kBytes
 
     INWAV:  cpu time    0.0000: real time    0.0000
 Broyden mixing: mesh for mixing (old mesh)
   NGX = 41   NGY = 41   NGZ = 77
  (NGX  =168   NGY  =168   NGZ  =320)
  gives a total of 129437 points

 initial charge density was supplied:
 charge density of overlapping atoms calculated
 number of electron     640.0000000 magnetization      64.0000000
 keeping initial charge density in first step


--------------------------------------------------------------------------------------------------------


 Maximum index for non-local projection operator         2011
 Maximum index for augmentation-charges         2177 (set IRDMAX)


--------------------------------------------------------------------------------------------------------


 First call to EWALD:  gamma=   0.142
 Maximum number of real-space cells 4x 4x 2
 Maximum number of reciprocal cells 2x 2x 4

    FEWALD:  cpu time    0.0027: real time    0.0027


--------------------------------------- Iteration      1(   1)  ---------------------------------------


    POTLOK:  cpu time    0.3869: real time    0.4022
    SETDIJ:  cpu time    0.0337: real time    0.0342
     EDDAV:  cpu time   42.5871: real time   42.7202
       DOS:  cpu time    0.0019: real time    0.0020
    --------------------------------------------
      LOOP:  cpu time   43.0097: real time   43.1585

 eigenvalue-minimisations  :  6720
 total energy-change (2. order) : 0.4486475E+04  (-0.3113545E+05)
 number of electron     640.0000000 magnetization      64.0000000
 augmentation part      640.0000000 magnetization      64.0000000

 Free energy of the ion-electron system (eV)
  ---------------------------------------------------
  alpha Z        PSCENC =      2015.86452450
  Ewald energy   TEWEN  =    123297.90434641
  -Hartree energ DENC   =   -174364.82510775
  -exchange      EXHF   =         0.00000000
  -V(xc)+E(xc)   XCENC  =       240.96416472
  PAW double counting   =     44546.96166755   -42737.10153268
  entropy T*S    EENTRO =        -0.00008649
  eigenvalues    EBANDS =      4823.31189851
  atomic energy  EATOM  =     46663.39518770
  Solvation  Ediel_sol  =         0.00000000
  ---------------------------------------------------
  free energy    TOTEN  =      4486.47506246 eV

  energy without entropy =     4486.47514895  energy(sigma->0) =     4486.47509129


--------------------------------------------------------------------------------------------------------




--------------------------------------- Iteration      1(   2)  ---------------------------------------


     EDDAV:  cpu time   46.1309: real time   46.2405
       DOS:  cpu time    0.0018: real time    0.0017
    --------------------------------------------
      LOOP:  cpu time   46.1326: real time   46.2422

 eigenvalue-minimisations  :  7520
 total energy-change (2. order) :-0.4619171E+04  (-0.4231753E+04)
 number of electron     640.0000000 magnetization      64.0000000
 augmentation part      640.0000000 magnetization      64.0000000

 Free energy of the ion-electron system (eV)
  ---------------------------------------------------
  alpha Z        PSCENC =      2015.86452450
  Ewald energy   TEWEN  =    123297.90434641
  -Hartree energ DENC   =   -174364.82510775
  -exchange      EXHF   =         0.00000000
  -V(xc)+E(xc)   XCENC  =       240.96416472
  PAW double counting   =     44546.96166755   -42737.10153268
  entropy T*S    EENTRO =        -0.00057656
  eigenvalues    EBANDS =       204.14122761
  atomic energy  EATOM  =     46663.39518770
  Solvation  Ediel_sol  =         0.00000000
  ---------------------------------------------------
  free energy    TOTEN  =      -132.69609850 eV

  energy without entropy =     -132.69552194  energy(sigma->0) =     -132.69590631


--------------------------------------------------------------------------------------------------------




--------------------------------------- Iteration      1(   3)  ---------------------------------------


     EDDAV:  cpu time   46.8425: real time   46.9576
       DOS:  cpu time    0.0017: real time    0.0017
    --------------------------------------------
      LOOP:  cpu time   46.8442: real time   46.9592

 eigenvalue-minimisations  :  7640
 total energy-change (2. order) :-0.2466380E+03  (-0.2278449E+03)
 number of electron     640.0000000 magnetization      64.0000000
 augmentation part      640.0000000 magnetization      64.0000000

 Free energy of the ion-electron system (eV)
  ---------------------------------------------------
  alpha Z        PSCENC =      2015.86452450
  Ewald energy   TEWEN  =    123297.90434641
  -Hartree energ DENC   =   -174364.82510775
  -exchange      EXHF   =         0.00000000
  -V(xc)+E(xc)   XCENC  =       240.96416472
  PAW double counting   =     44546.96166755   -42737.10153268
  entropy T*S    EENTRO =        -0.01927386
  eigenvalues    EBANDS =       -42.47810097
  atomic energy  EATOM  =     46663.39518770
  Solvation  Ediel_sol  =         0.00000000
  ---------------------------------------------------
  free energy    TOTEN  =      -379.33412438 eV

  energy without entropy =     -379.31485052  energy(sigma->0) =     -379.32769976


--------------------------------------------------------------------------------------------------------




--------------------------------------- Iteration      1(   4)  ---------------------------------------


     EDDAV:  cpu time   47.9139: real time   48.0273
       DOS:  cpu time    0.0018: real time    0.0018
    --------------------------------------------
      LOOP:  cpu time   47.9156: real time   48.0291

 eigenvalue-minimisations  :  7880
 total energy-change (2. order) :-0.6388622E+01  (-0.6323954E+01)
 number of electron     640.0000000 magnetization      64.0000000
 augmentation part      640.0000000 magnetization      64.0000000

 Free energy of the ion-electron system (eV)
  ---------------------------------------------------
  alpha Z        PSCENC =      2015.86452450
  Ewald energy   TEWEN  =    123297.90434641
  -Hartree energ DENC   =   -174364.82510775
  -exchange      EXHF   =         0.00000000
  -V(xc)+E(xc)   XCENC  =       240.96416472
  PAW double counting   =     44546.96166755   -42737.10153268
  entropy T*S    EENTRO =        -0.01896748
  eigenvalues    EBANDS =       -48.86702927
  atomic energy  EATOM  =     46663.39518770
  Solvation  Ediel_sol  =         0.00000000
  ---------------------------------------------------
  free energy    TOTEN  =      -385.72274630 eV

  energy without entropy =     -385.70377883  energy(sigma->0) =     -385.71642381


--------------------------------------------------------------------------------------------------------




--------------------------------------- Iteration      1(   5)  ---------------------------------------


     EDDAV:  cpu time   47.7343: real time   47.8491
       DOS:  cpu time    0.0018: real time    0.0018
    CHARGE:  cpu time    3.1148: real time    3.1225
    MIXING:  cpu time    0.0094: real time    0.0102
    --------------------------------------------
      LOOP:  cpu time   50.8604: real time   50.9836

 eigenvalue-minimisations  :  7790
 total energy-change (2. order) :-0.2296304E+00  (-0.2290158E+00)
 number of electron     640.0000076 magnetization      57.9643422
 augmentation part      185.5376485 magnetization      46.0074761

 Broyden mixing:
  rms(total) = 0.10438E+02    rms(broyden)= 0.10438E+02
  rms(prec ) = 0.10547E+02
  weight for this iteration     100.00

 Free energy of the ion-electron system (eV)
  ---------------------------------------------------
  alpha Z        PSCENC =      2015.86452450
  Ewald energy   TEWEN  =    123297.90434641
  -Hartree energ DENC   =   -174364.82510775
  -exchange      EXHF   =         0.00000000
  -V(xc)+E(xc)   XCENC  =       240.96416472
  PAW double counting   =     44546.96166755   -42737.10153268
  entropy T*S    EENTRO =        -0.01921330
  eigenvalues    EBANDS =       -49.09641384
  atomic energy  EATOM  =     46663.39518770
  Solvation  Ediel_sol  =         0.00000000
  ---------------------------------------------------
  free energy    TOTEN  =      -385.95237669 eV

  energy without entropy =     -385.93316339  energy(sigma->0) =     -385.94597226


--------------------------------------------------------------------------------------------------------




--------------------------------------- Iteration      1(   6)  ---------------------------------------


    POTLOK:  cpu time    0.3750: real time    0.3759
    SETDIJ:  cpu time    0.0330: real time    0.0331
    EDDIAG:  cpu time    7.4850: real time    7.5030
  RMM-DIIS:  cpu time   27.3593: real time   27.4239
    ORTHCH:  cpu time    0.6474: real time    0.6489
       DOS:  cpu time    0.0017: real time    0.0017
    CHARGE:  cpu time    3.0645: real time    3.0717
    MIXING:  cpu time    0.0101: real time    0.0104
    --------------------------------------------
      LOOP:  cpu time   38.9761: real time   39.0687

 eigenvalue-minimisations  :  6756
 total energy-change (2. order) : 0.2392523E+02  (-0.5970316E+01)
 number of electron     640.0000081 magnetization      51.7037350
 augmentation part      195.0690894 magnetization      39.2123527

 Broyden mixing:
  rms(total) = 0.70827E+01    rms(broyden)= 0.70827E+01
  rms(prec ) = 0.76301E+01
  weight for this iteration     100.00

 eigenvalues of (default mixing * dielectric matrix)
  average eigenvalue GAMMA=   1.1813
  1.1813

 Free energy of the ion-electron system (eV)
  ---------------------------------------------------
  alpha Z        PSCENC =      2015.86452450
  Ewald energy   TEWEN  =    123297.90434641
  -Hartree energ DENC   =   -173684.22369146
  -exchange      EXHF   =         0.00000000
  -V(xc)+E(xc)   XCENC  =       228.92770587
  PAW double counting   =     50799.10161216   -49096.67201549
  entropy T*S    EENTRO =        -0.04196978
  eigenvalues    EBANDS =      -586.28284754
  atomic energy  EATOM  =     46663.39518770
  Solvation  Ediel_sol  =         0.00000000
  ---------------------------------------------------
  free energy    TOTEN  =      -362.02714764 eV

  energy without entropy =     -361.98517787  energy(sigma->0) =     -362.01315772


--------------------------------------------------------------------------------------------------------




--------------------------------------- Iteration      1(   7)  ---------------------------------------


    POTLOK:  cpu time    0.3760: real time    0.3769
    SETDIJ:  cpu time    0.0331: real time    0.0332
    EDDIAG:  cpu time    7.5354: real time    7.5533
  RMM-DIIS:  cpu time   26.9714: real time   27.0352
    ORTHCH:  cpu time    0.6493: real time    0.6508
       DOS:  cpu time    0.0016: real time    0.0016
    CHARGE:  cpu time    3.1772: real time    3.1848
    MIXING:  cpu time    0.0088: real time    0.0089
    --------------------------------------------
      LOOP:  cpu time   38.7528: real time   38.8446

 eigenvalue-minimisations  :  6721
 total energy-change (2. order) :-0.1513496E+03  (-0.1657421E+02)
 number of electron     640.0000081 magnetization      46.1444132
 augmentation part      191.1712637 magnetization      34.8371671

 Broyden mixing:
  rms(total) = 0.11307E+02    rms(broyden)= 0.11307E+02
  rms(prec ) = 0.14778E+02
  weight for this iteration     100.00

 eigenvalues of (default mixing * dielectric matrix)
  average eigenvalue GAMMA=   0.9341
  1.6146  0.2537

 Free energy of the ion-electron system (eV)
  ---------------------------------------------------
  alpha Z        PSCENC =      2015.86452450
  Ewald energy   TEWEN  =    123297.90434641
  -Hartree energ DENC   =   -174166.12965017
  -exchange      EXHF   =         0.00000000
  -V(xc)+E(xc)   XCENC  =       226.08251549
  PAW double counting   =     55375.00432017   -53723.51729635
  entropy T*S    EENTRO =        -0.03309154
  eigenvalues    EBANDS =      -201.94755921
  atomic energy  EATOM  =     46663.39518770
  Solvation  Ediel_sol  =         0.00000000
  ---------------------------------------------------
  free energy    TOTEN  =      -513.37670300 eV

  energy without entropy =     -513.34361146  energy(sigma->0) =     -513.36567249


--------------------------------------------------------------------------------------------------------




--------------------------------------- Iteration      1(   8)  ---------------------------------------


    POTLOK:  cpu time    0.3773: real time    0.3781
    SETDIJ:  cpu time    0.0329: real time    0.0329
    EDDIAG:  cpu time    7.4818: real time    7.4995
  RMM-DIIS:  cpu time   26.9087: real time   26.9723
    ORTHCH:  cpu time    0.6474: real time    0.6489
       DOS:  cpu time    0.0015: real time    0.0015
    CHARGE:  cpu time    3.0917: real time    3.0990
    MIXING:  cpu time    0.0098: real time    0.0098
    --------------------------------------------
      LOOP:  cpu time   38.5509: real time   38.6420

 eigenvalue-minimisations  :  6724
 total energy-change (2. order) : 0.9193410E+02  (-0.4962689E+01)
 number of electron     640.0000091 magnetization      43.6396383
 augmentation part      196.6650777 magnetization      33.4945756

 Broyden mixing:
  rms(total) = 0.77959E+01    rms(broyden)= 0.77959E+01
  rms(prec ) = 0.98683E+01
  weight for this iteration     100.00

 eigenvalues of (default mixing * dielectric matrix)
  average eigenvalue GAMMA=   0.8256
  1.8730  0.3019  0.3019

 Free energy of the ion-electron system (eV)
  ---------------------------------------------------
  alpha Z        PSCENC =      2015.86452450
  Ewald energy   TEWEN  =    123297.90434641
  -Hartree energ DENC   =   -173932.36811797
  -exchange      EXHF   =         0.00000000
  -V(xc)+E(xc)   XCENC  =       226.73332149
  PAW double counting   =     59019.14698084   -57412.67311327
  entropy T*S    EENTRO =        -0.00126092
  eigenvalues    EBANDS =      -299.44446751
  atomic energy  EATOM  =     46663.39518770
  Solvation  Ediel_sol  =         0.00000000
  ---------------------------------------------------
  free energy    TOTEN  =      -421.44259875 eV

  energy without entropy =     -421.44133783  energy(sigma->0) =     -421.44217844


--------------------------------------------------------------------------------------------------------




--------------------------------------- Iteration      1(   9)  ---------------------------------------


    POTLOK:  cpu time    0.3732: real time    0.3741
    SETDIJ:  cpu time    0.0329: real time    0.0330
    EDDIAG:  cpu time    7.4783: real time    7.4960
  RMM-DIIS:  cpu time   26.9539: real time   27.0175
    ORTHCH:  cpu time    0.6456: real time    0.6471
       DOS:  cpu time    0.0015: real time    0.0016
    CHARGE:  cpu time    3.0702: real time    3.0774
    MIXING:  cpu time    0.0109: real time    0.0109
    --------------------------------------------
      LOOP:  cpu time   38.5665: real time   38.6575

 eigenvalue-minimisations  :  6731
 total energy-change (2. order) : 0.3835054E+02  (-0.3927384E+01)
 number of electron     640.0000080 magnetization      40.8544914
 augmentation part      197.4250265 magnetization      31.7028669

 Broyden mixing:
  rms(total) = 0.53153E+01    rms(broyden)= 0.53153E+01
  rms(prec ) = 0.80232E+01
  weight for this iteration     100.00

 eigenvalues of (default mixing * dielectric matrix)
  average eigenvalue GAMMA=   0.8126
  2.0980  0.6160  0.3787  0.1579

 Free energy of the ion-electron system (eV)
  ---------------------------------------------------
  alpha Z        PSCENC =      2015.86452450
  Ewald energy   TEWEN  =    123297.90434641
  -Hartree energ DENC   =   -173700.53331642
  -exchange      EXHF   =         0.00000000
  -V(xc)+E(xc)   XCENC  =       227.19111141
  PAW double counting   =     60175.90777941   -58581.36591708
  entropy T*S    EENTRO =         0.00211478
  eigenvalues    EBANDS =      -481.45788679
  atomic energy  EATOM  =     46663.39518770
  Solvation  Ediel_sol  =         0.00000000
  ---------------------------------------------------
  free energy    TOTEN  =      -383.09205609 eV

  energy without entropy =     -383.09417088  energy(sigma->0) =     -383.09276102


--------------------------------------------------------------------------------------------------------




--------------------------------------- Iteration      1(  10)  ---------------------------------------


    POTLOK:  cpu time    0.3734: real time    0.3743
    SETDIJ:  cpu time    0.0331: real time    0.0331
    EDDIAG:  cpu time    7.4821: real time    7.4999
  RMM-DIIS:  cpu time   27.1761: real time   27.2464
    ORTHCH:  cpu time    0.6486: real time    0.6501
       DOS:  cpu time    0.0016: real time    0.0016
    CHARGE:  cpu time    3.0768: real time    3.0840
    MIXING:  cpu time    0.0107: real time    0.0108
    --------------------------------------------
      LOOP:  cpu time   38.8023: real time   38.9001

 eigenvalue-minimisations  :  6757
 total energy-change (2. order) : 0.1212243E+02  (-0.2925085E+01)
 number of electron     640.0000086 magnetization      38.9912183
 augmentation part      197.1038984 magnetization      29.8393802

 Broyden mixing:
  rms(total) = 0.45340E+01    rms(broyden)= 0.45340E+01
  rms(prec ) = 0.54873E+01
  weight for this iteration     100.00

 eigenvalues of (default mixing * dielectric matrix)
  average eigenvalue GAMMA=   0.7110
  2.1564  0.5421  0.4631  0.2511  0.1423

 Free energy of the ion-electron system (eV)
  ---------------------------------------------------
  alpha Z        PSCENC =      2015.86452450
  Ewald energy   TEWEN  =    123297.90434641
  -Hartree energ DENC   =   -173812.09297875
  -exchange      EXHF   =         0.00000000
  -V(xc)+E(xc)   XCENC  =       225.98473740
  PAW double counting   =     60491.31192764   -58896.17983056
  entropy T*S    EENTRO =         0.00205410
  eigenvalues    EBANDS =      -357.15959751
  atomic energy  EATOM  =     46663.39518770
  Solvation  Ediel_sol  =         0.00000000
  ---------------------------------------------------
  free energy    TOTEN  =      -370.96962908 eV

  energy without entropy =     -370.97168318  energy(sigma->0) =     -370.97031378


--------------------------------------------------------------------------------------------------------




--------------------------------------- Iteration      1(  11)  ---------------------------------------


    POTLOK:  cpu time    0.3754: real time    0.3762
    SETDIJ:  cpu time    0.0320: real time    0.0320
    EDDIAG:  cpu time    7.4973: real time    7.5153
  RMM-DIIS:  cpu time   27.1376: real time   27.2035
    ORTHCH:  cpu time    0.6467: real time    0.6482
       DOS:  cpu time    0.0016: real time    0.0016
    CHARGE:  cpu time    3.0751: real time    3.0825
    MIXING:  cpu time    0.0114: real time    0.0114
    --------------------------------------------
      LOOP:  cpu time   38.7771: real time   38.8708

 eigenvalue-minimisations  :  6761
 total energy-change (2. order) : 0.2115384E+02  (-0.1471890E+01)
 number of electron     640.0000081 magnetization      37.4583755
 augmentation part      197.5285192 magnetization      27.4587103

 Broyden mixing:
  rms(total) = 0.19069E+01    rms(broyden)= 0.19069E+01
  rms(prec ) = 0.21476E+01
  weight for this iteration     100.00

 eigenvalues of (default mixing * dielectric matrix)
  average eigenvalue GAMMA=   0.6744
  2.1057  0.5736  0.5736  0.3437  0.3011  0.1483

 Free energy of the ion-electron system (eV)
  ---------------------------------------------------
  alpha Z        PSCENC =      2015.86452450
  Ewald energy   TEWEN  =    123297.90434641
  -Hartree energ DENC   =   -173754.97440607
  -exchange      EXHF   =         0.00000000
  -V(xc)+E(xc)   XCENC  =       225.78697461
  PAW double counting   =     60696.23998709   -59102.94959770
  entropy T*S    EENTRO =         0.01229318
  eigenvalues    EBANDS =      -391.09509825
  atomic energy  EATOM  =     46663.39518770
  Solvation  Ediel_sol  =         0.00000000
  ---------------------------------------------------
  free energy    TOTEN  =      -349.81578853 eV

  energy without entropy =     -349.82808171  energy(sigma->0) =     -349.81988626


--------------------------------------------------------------------------------------------------------




--------------------------------------- Iteration      1(  12)  ---------------------------------------


    POTLOK:  cpu time    0.3774: real time    0.3783
    SETDIJ:  cpu time    0.0319: real time    0.0319
    EDDIAG:  cpu time    7.4770: real time    7.4946
  RMM-DIIS:  cpu time   27.1747: real time   27.2388
    ORTHCH:  cpu time    0.6437: real time    0.6452
       DOS:  cpu time    0.0017: real time    0.0017
    CHARGE:  cpu time    3.0752: real time    3.0825
    MIXING:  cpu time    0.0108: real time    0.0108
    --------------------------------------------
      LOOP:  cpu time   38.7922: real time   38.8838

 eigenvalue-minimisations  :  6764
 total energy-change (2. order) :-0.2047290E+01  (-0.2907145E+00)
 number of electron     640.0000081 magnetization      36.3100483
 augmentation part      197.4389038 magnetization      26.9855464

 Broyden mixing:
  rms(total) = 0.17273E+01    rms(broyden)= 0.17273E+01
  rms(prec ) = 0.19480E+01
  weight for this iteration     100.00

 eigenvalues of (default mixing * dielectric matrix)
  average eigenvalue GAMMA=   0.6393
  2.1300  0.5746  0.5746  0.5130  0.2682  0.2682  0.1466

 Free energy of the ion-electron system (eV)
  ---------------------------------------------------
  alpha Z        PSCENC =      2015.86452450
  Ewald energy   TEWEN  =    123297.90434641
  -Hartree energ DENC   =   -173719.27703401
  -exchange      EXHF   =         0.00000000
  -V(xc)+E(xc)   XCENC  =       224.76801548
  PAW double counting   =     60497.19008866   -58901.72888318
  entropy T*S    EENTRO =        -0.01770304
  eigenvalues    EBANDS =      -429.96162142
  atomic energy  EATOM  =     46663.39518770
  Solvation  Ediel_sol  =         0.00000000
  ---------------------------------------------------
  free energy    TOTEN  =      -351.86307890 eV

  energy without entropy =     -351.84537586  energy(sigma->0) =     -351.85717789


--------------------------------------------------------------------------------------------------------




--------------------------------------- Iteration      1(  13)  ---------------------------------------


    POTLOK:  cpu time    0.3742: real time    0.3751
    SETDIJ:  cpu time    0.0324: real time    0.0324
    EDDIAG:  cpu time    7.4807: real time    7.4984
  RMM-DIIS:  cpu time   27.2080: real time   27.2786
    ORTHCH:  cpu time    0.6446: real time    0.6461
       DOS:  cpu time    0.0016: real time    0.0016
    CHARGE:  cpu time    3.0939: real time    3.1013
    MIXING:  cpu time    0.0120: real time    0.0120
    --------------------------------------------
      LOOP:  cpu time   38.8474: real time   38.9457

 eigenvalue-minimisations  :  6768
 total energy-change (2. order) : 0.1726653E+00  (-0.9693370E-01)
 number of electron     640.0000081 magnetization      32.9665283
 augmentation part      197.4165602 magnetization      23.6086809

 Broyden mixing:
  rms(total) = 0.12200E+01    rms(broyden)= 0.12200E+01
  rms(prec ) = 0.12809E+01
  weight for this iteration     100.00

 eigenvalues of (default mixing * dielectric matrix)
  average eigenvalue GAMMA=   0.6695
  2.1643  0.7774  0.7774  0.6477  0.3020  0.3020  0.1472  0.2382

 Free energy of the ion-electron system (eV)
  ---------------------------------------------------
  alpha Z        PSCENC =      2015.86452450
  Ewald energy   TEWEN  =    123297.90434641
  -Hartree energ DENC   =   -173731.27419242
  -exchange      EXHF   =         0.00000000
  -V(xc)+E(xc)   XCENC  =       224.20331475
  PAW double counting   =     60530.64831207   -58935.56732917
  entropy T*S    EENTRO =        -0.00276004
  eigenvalues    EBANDS =      -416.86181741
  atomic energy  EATOM  =     46663.39518770
  Solvation  Ediel_sol  =         0.00000000
  ---------------------------------------------------
  free energy    TOTEN  =      -351.69041362 eV

  energy without entropy =     -351.68765358  energy(sigma->0) =     -351.68949361


--------------------------------------------------------------------------------------------------------




--------------------------------------- Iteration      1(  14)  ---------------------------------------


    POTLOK:  cpu time    0.3790: real time    0.3799
    SETDIJ:  cpu time    0.0320: real time    0.0321
    EDDIAG:  cpu time    7.4878: real time    7.5059
  RMM-DIIS:  cpu time   27.2372: real time   27.3016
    ORTHCH:  cpu time    0.7289: real time    0.7306
       DOS:  cpu time    0.0017: real time    0.0017
    CHARGE:  cpu time    3.1138: real time    3.1212
    MIXING:  cpu time    0.0124: real time    0.0125
    --------------------------------------------
      LOOP:  cpu time   38.9929: real time   39.0854

 eigenvalue-minimisations  :  6764
 total energy-change (2. order) :-0.2431460E+01  (-0.1061858E+00)
 number of electron     640.0000080 magnetization      27.7979713
 augmentation part      197.3579100 magnetization      18.4785266

 Broyden mixing:
  rms(total) = 0.10280E+01    rms(broyden)= 0.10280E+01
  rms(prec ) = 0.11788E+01
  weight for this iteration     100.00

 eigenvalues of (default mixing * dielectric matrix)
  average eigenvalue GAMMA=   0.7404
  2.2663  1.1147  1.1147  0.6723  0.5151  0.1472  0.3023  0.3023  0.2289

 Free energy of the ion-electron system (eV)
  ---------------------------------------------------
  alpha Z        PSCENC =      2015.86452450
  Ewald energy   TEWEN  =    123297.90434641
  -Hartree energ DENC   =   -173723.82748167
  -exchange      EXHF   =         0.00000000
  -V(xc)+E(xc)   XCENC  =       222.95737967
  PAW double counting   =     60605.32931471   -59011.22771263
  entropy T*S    EENTRO =        -0.00182746
  eigenvalues    EBANDS =      -424.51560512
  atomic energy  EATOM  =     46663.39518770
  Solvation  Ediel_sol  =         0.00000000
  ---------------------------------------------------
  free energy    TOTEN  =      -354.12187390 eV

  energy without entropy =     -354.12004644  energy(sigma->0) =     -354.12126475


--------------------------------------------------------------------------------------------------------




--------------------------------------- Iteration      1(  15)  ---------------------------------------


    POTLOK:  cpu time    0.3752: real time    0.3761
    SETDIJ:  cpu time    0.0317: real time    0.0318
    EDDIAG:  cpu time    7.4813: real time    7.4994
  RMM-DIIS:  cpu time   27.3001: real time   27.3646
    ORTHCH:  cpu time    0.6445: real time    0.6460
       DOS:  cpu time    0.0017: real time    0.0017
    CHARGE:  cpu time    3.0503: real time    3.0576
    MIXING:  cpu time    0.0123: real time    0.0123
    --------------------------------------------
      LOOP:  cpu time   38.8972: real time   38.9895

 eigenvalue-minimisations  :  6754
 total energy-change (2. order) :-0.4056992E+01  (-0.1943209E+00)
 number of electron     640.0000081 magnetization      24.7255229
 augmentation part      197.1996345 magnetization      17.0516777

 Broyden mixing:
  rms(total) = 0.82168E+00    rms(broyden)= 0.82168E+00
  rms(prec ) = 0.89778E+00
  weight for this iteration     100.00

 eigenvalues of (default mixing * dielectric matrix)
  average eigenvalue GAMMA=   0.7516
  2.3743  1.4964  0.8906  0.8906  0.4678  0.4678  0.1472  0.2779  0.2779  0.2258

 Free energy of the ion-electron system (eV)
  ---------------------------------------------------
  alpha Z        PSCENC =      2015.86452450
  Ewald energy   TEWEN  =    123297.90434641
  -Hartree energ DENC   =   -173732.58663924
  -exchange      EXHF   =         0.00000000
  -V(xc)+E(xc)   XCENC  =       220.62484654
  PAW double counting   =     60647.25678278   -59053.21123633
  entropy T*S    EENTRO =        -0.00479702
  eigenvalues    EBANDS =      -417.42188127
  atomic energy  EATOM  =     46663.39518770
  Solvation  Ediel_sol  =         0.00000000
  ---------------------------------------------------
  free energy    TOTEN  =      -358.17886593 eV

  energy without entropy =     -358.17406891  energy(sigma->0) =     -358.17726692


--------------------------------------------------------------------------------------------------------




--------------------------------------- Iteration      1(  16)  ---------------------------------------


    POTLOK:  cpu time    0.3800: real time    0.3809
    SETDIJ:  cpu time    0.0330: real time    0.0331
    EDDIAG:  cpu time    7.4839: real time    7.5019
  RMM-DIIS:  cpu time   27.3014: real time   27.3846
    ORTHCH:  cpu time    0.6411: real time    0.6430
       DOS:  cpu time    0.0016: real time    0.0016
    CHARGE:  cpu time    3.0275: real time    3.0363
    MIXING:  cpu time    0.0120: real time    0.0120
    --------------------------------------------
      LOOP:  cpu time   38.8804: real time   38.9933

 eigenvalue-minimisations  :  6754
 total energy-change (2. order) :-0.2034235E+01  (-0.8963521E-01)
 number of electron     640.0000080 magnetization      22.8980156
 augmentation part      197.0940152 magnetization      15.0278527

 Broyden mixing:
  rms(total) = 0.55679E+00    rms(broyden)= 0.55679E+00
  rms(prec ) = 0.62847E+00
  weight for this iteration     100.00

 eigenvalues of (default mixing * dielectric matrix)
  average eigenvalue GAMMA=   0.7594
  2.4321  1.8298  0.8417  0.8417  0.5682  0.5682  0.1472  0.3272  0.2856  0.2856
  0.2264

 Free energy of the ion-electron system (eV)
  ---------------------------------------------------
  alpha Z        PSCENC =      2015.86452450
  Ewald energy   TEWEN  =    123297.90434641
  -Hartree energ DENC   =   -173744.21025059
  -exchange      EXHF   =         0.00000000
  -V(xc)+E(xc)   XCENC  =       219.28899702
  PAW double counting   =     60595.06911882   -59000.37835287
  entropy T*S    EENTRO =        -0.01595173
  eigenvalues    EBANDS =      -407.13072041
  atomic energy  EATOM  =     46663.39518770
  Solvation  Ediel_sol  =         0.00000000
  ---------------------------------------------------
  free energy    TOTEN  =      -360.21310117 eV

  energy without entropy =     -360.19714944  energy(sigma->0) =     -360.20778392


--------------------------------------------------------------------------------------------------------




--------------------------------------- Iteration      1(  17)  ---------------------------------------


    POTLOK:  cpu time    0.3832: real time    0.3841
    SETDIJ:  cpu time    0.0329: real time    0.0329
    EDDIAG:  cpu time    7.4745: real time    7.4966
  RMM-DIIS:  cpu time   27.2280: real time   27.3071
    ORTHCH:  cpu time    0.6432: real time    0.6451
       DOS:  cpu time    0.0016: real time    0.0016
    CHARGE:  cpu time    3.0613: real time    3.0701
    MIXING:  cpu time    0.0137: real time    0.0137
    --------------------------------------------
      LOOP:  cpu time   38.8384: real time   38.9514

 eigenvalue-minimisations  :  6750
 total energy-change (2. order) :-0.1422719E+01  (-0.5024617E-01)
 number of electron     640.0000081 magnetization      20.8707139
 augmentation part      197.0181852 magnetization      13.8972642

 Broyden mixing:
  rms(total) = 0.50574E+00    rms(broyden)= 0.50574E+00
  rms(prec ) = 0.54646E+00
  weight for this iteration     100.00

 eigenvalues of (default mixing * dielectric matrix)
  average eigenvalue GAMMA=   0.7828
  2.3504  2.3504  0.8690  0.8690  0.6808  0.6808  0.4117  0.1472  0.2900  0.2900
  0.2270  0.2270

 Free energy of the ion-electron system (eV)
  ---------------------------------------------------
  alpha Z        PSCENC =      2015.86452450
  Ewald energy   TEWEN  =    123297.90434641
  -Hartree energ DENC   =   -173745.44777162
  -exchange      EXHF   =         0.00000000
  -V(xc)+E(xc)   XCENC  =       218.29350470
  PAW double counting   =     60537.67427998   -58942.27556774
  entropy T*S    EENTRO =        -0.00549748
  eigenvalues    EBANDS =      -407.03882662
  atomic energy  EATOM  =     46663.39518770
  Solvation  Ediel_sol  =         0.00000000
  ---------------------------------------------------
  free energy    TOTEN  =      -361.63582018 eV

  energy without entropy =     -361.63032270  energy(sigma->0) =     -361.63398769


--------------------------------------------------------------------------------------------------------




--------------------------------------- Iteration      1(  18)  ---------------------------------------


    POTLOK:  cpu time    0.3987: real time    0.3997
    SETDIJ:  cpu time    0.0371: real time    0.0371
    EDDIAG:  cpu time    7.4797: real time    7.5019
  RMM-DIIS:  cpu time   27.2673: real time   27.3465
    ORTHCH:  cpu time    0.6421: real time    0.6441
       DOS:  cpu time    0.0016: real time    0.0016
    CHARGE:  cpu time    3.0358: real time    3.0445
    MIXING:  cpu time    0.0139: real time    0.0139
    --------------------------------------------
      LOOP:  cpu time   38.8761: real time   38.9893

 eigenvalue-minimisations  :  6741
 total energy-change (2. order) :-0.1250531E+01  (-0.4017668E-01)
 number of electron     640.0000081 magnetization      17.7878362
 augmentation part      196.9817428 magnetization      11.0755367

 Broyden mixing:
  rms(total) = 0.45863E+00    rms(broyden)= 0.45863E+00
  rms(prec ) = 0.48260E+00
  weight for this iteration     100.00

 eigenvalues of (default mixing * dielectric matrix)
  average eigenvalue GAMMA=   0.8325
  2.7026  2.7026  1.0264  1.0264  0.6637  0.6637  0.5074  0.3637  0.1472  0.2810
  0.2810  0.2228  0.2339

 Free energy of the ion-electron system (eV)
  ---------------------------------------------------
  alpha Z        PSCENC =      2015.86452450
  Ewald energy   TEWEN  =    123297.90434641
  -Hartree energ DENC   =   -173750.03587704
  -exchange      EXHF   =         0.00000000
  -V(xc)+E(xc)   XCENC  =       217.35560833
  PAW double counting   =     60471.91797508   -58875.76854438
  entropy T*S    EENTRO =        -0.02337881
  eigenvalues    EBANDS =      -403.49619291
  atomic energy  EATOM  =     46663.39518770
  Solvation  Ediel_sol  =         0.00000000
  ---------------------------------------------------
  free energy    TOTEN  =      -362.88635111 eV

  energy without entropy =     -362.86297230  energy(sigma->0) =     -362.87855818


--------------------------------------------------------------------------------------------------------




--------------------------------------- Iteration      1(  19)  ---------------------------------------


    POTLOK:  cpu time    0.3758: real time    0.3767
    SETDIJ:  cpu time    0.0325: real time    0.0326
    EDDIAG:  cpu time    7.4641: real time    7.4860
  RMM-DIIS:  cpu time   27.3164: real time   27.4045
    ORTHCH:  cpu time    0.6433: real time    0.6453
       DOS:  cpu time    0.0016: real time    0.0017
    CHARGE:  cpu time    3.0304: real time    3.0381
    MIXING:  cpu time    0.0122: real time    0.0122
    --------------------------------------------
      LOOP:  cpu time   38.8763: real time   38.9970

 eigenvalue-minimisations  :  6740
 total energy-change (2. order) :-0.1468547E+01  (-0.6318878E-01)
 number of electron     640.0000081 magnetization      13.5417082
 augmentation part      196.9724666 magnetization       7.6812452

 Broyden mixing:
  rms(total) = 0.39150E+00    rms(broyden)= 0.39150E+00
  rms(prec ) = 0.41490E+00
  weight for this iteration     100.00

 eigenvalues of (default mixing * dielectric matrix)
  average eigenvalue GAMMA=   0.9310
  4.2460  2.4730  1.1965  1.1965  0.6943  0.6943  0.6332  0.4598  0.1472  0.2842
  0.2842  0.2906  0.2266  0.2081

 Free energy of the ion-electron system (eV)
  ---------------------------------------------------
  alpha Z        PSCENC =      2015.86452450
  Ewald energy   TEWEN  =    123297.90434641
  -Hartree energ DENC   =   -173740.24112141
  -exchange      EXHF   =         0.00000000
  -V(xc)+E(xc)   XCENC  =       216.19755547
  PAW double counting   =     60378.57825563   -58781.45229009
  entropy T*S    EENTRO =        -0.01377728
  eigenvalues    EBANDS =      -414.58757918
  atomic energy  EATOM  =     46663.39518770
  Solvation  Ediel_sol  =         0.00000000
  ---------------------------------------------------
  free energy    TOTEN  =      -364.35489825 eV

  energy without entropy =     -364.34112097  energy(sigma->0) =     -364.35030583


--------------------------------------------------------------------------------------------------------




--------------------------------------- Iteration      1(  20)  ---------------------------------------


    POTLOK:  cpu time    0.3786: real time    0.3795
    SETDIJ:  cpu time    0.0321: real time    0.0322
    EDDIAG:  cpu time    7.4686: real time    7.4865
  RMM-DIIS:  cpu time   27.2101: real time   27.2825
    ORTHCH:  cpu time    0.6417: real time    0.6432
       DOS:  cpu time    0.0016: real time    0.0016
    CHARGE:  cpu time    3.0326: real time    3.0398
    MIXING:  cpu time    0.0131: real time    0.0131
    --------------------------------------------
      LOOP:  cpu time   38.7783: real time   38.8784

 eigenvalue-minimisations  :  6744
 total energy-change (2. order) :-0.1030164E+01  (-0.5707109E-01)
 number of electron     640.0000081 magnetization      10.1627926
 augmentation part      197.0467660 magnetization       5.5665982

 Broyden mixing:
  rms(total) = 0.35534E+00    rms(broyden)= 0.35534E+00
  rms(prec ) = 0.37948E+00
  weight for this iteration     100.00

 eigenvalues of (default mixing * dielectric matrix)
  average eigenvalue GAMMA=   0.9956
  5.5475  2.3405  1.3338  1.3338  0.7523  0.7523  0.5429  0.5429  0.1472  0.3612
  0.2878  0.2878  0.2658  0.2270  0.2115

 Free energy of the ion-electron system (eV)
  ---------------------------------------------------
  alpha Z        PSCENC =      2015.86452450
  Ewald energy   TEWEN  =    123297.90434641
  -Hartree energ DENC   =   -173726.38386358
  -exchange      EXHF   =         0.00000000
  -V(xc)+E(xc)   XCENC  =       215.24974019
  PAW double counting   =     60329.00622971   -58731.39983202
  entropy T*S    EENTRO =        -0.01576487
  eigenvalues    EBANDS =      -429.00563001
  atomic energy  EATOM  =     46663.39518770
  Solvation  Ediel_sol  =         0.00000000
  ---------------------------------------------------
  free energy    TOTEN  =      -365.38506197 eV

  energy without entropy =     -365.36929711  energy(sigma->0) =     -365.37980702


--------------------------------------------------------------------------------------------------------




--------------------------------------- Iteration      1(  21)  ---------------------------------------


    POTLOK:  cpu time    0.3777: real time    0.3786
    SETDIJ:  cpu time    0.0323: real time    0.0324
    EDDIAG:  cpu time    7.5582: real time    7.5823
  RMM-DIIS:  cpu time   27.3497: real time   27.4142
    ORTHCH:  cpu time    0.6441: real time    0.6456
       DOS:  cpu time    0.0019: real time    0.0019
    CHARGE:  cpu time    3.0395: real time    3.0467
    MIXING:  cpu time    0.0138: real time    0.0138
    --------------------------------------------
      LOOP:  cpu time   39.0170: real time   39.1154

 eigenvalue-minimisations  :  6764
 total energy-change (2. order) :-0.2027533E+00  (-0.1977607E-01)
 number of electron     640.0000081 magnetization       7.9890521
 augmentation part      197.0781948 magnetization       4.3798612

 Broyden mixing:
  rms(total) = 0.29324E+00    rms(broyden)= 0.29324E+00
  rms(prec ) = 0.31509E+00
  weight for this iteration     100.00

 eigenvalues of (default mixing * dielectric matrix)
  average eigenvalue GAMMA=   1.0510
  6.6928  2.1805  1.4712  1.4712  0.8314  0.8314  0.5592  0.5592  0.4762  0.1472
  0.2979  0.2979  0.2827  0.2827  0.2275  0.2072

 Free energy of the ion-electron system (eV)
  ---------------------------------------------------
  alpha Z        PSCENC =      2015.86452450
  Ewald energy   TEWEN  =    123297.90434641
  -Hartree energ DENC   =   -173715.11838051
  -exchange      EXHF   =         0.00000000
  -V(xc)+E(xc)   XCENC  =       214.94698400
  PAW double counting   =     60342.63350477   -58745.07282861
  entropy T*S    EENTRO =        -0.01425024
  eigenvalues    EBANDS =      -440.12690329
  atomic energy  EATOM  =     46663.39518770
  Solvation  Ediel_sol  =         0.00000000
  ---------------------------------------------------
  free energy    TOTEN  =      -365.58781528 eV

  energy without entropy =     -365.57356503  energy(sigma->0) =     -365.58306519


--------------------------------------------------------------------------------------------------------




--------------------------------------- Iteration      1(  22)  ---------------------------------------


    POTLOK:  cpu time    0.3763: real time    0.3772
    SETDIJ:  cpu time    0.0325: real time    0.0325
    EDDIAG:  cpu time    7.4988: real time    7.5165
  RMM-DIIS:  cpu time   27.2225: real time   27.2868
    ORTHCH:  cpu time    0.6429: real time    0.6444
       DOS:  cpu time    0.0016: real time    0.0016
    CHARGE:  cpu time    3.0394: real time    3.0466
    MIXING:  cpu time    0.0132: real time    0.0132
    --------------------------------------------
      LOOP:  cpu time   38.8273: real time   38.9189

 eigenvalue-minimisations  :  6760
 total energy-change (2. order) :-0.1265617E+00  (-0.6610205E-02)
 number of electron     640.0000081 magnetization       6.7911363
 augmentation part      197.0744979 magnetization       3.8344860

 Broyden mixing:
  rms(total) = 0.22822E+00    rms(broyden)= 0.22822E+00
  rms(prec ) = 0.28180E+00
  weight for this iteration     100.00

 eigenvalues of (default mixing * dielectric matrix)
  average eigenvalue GAMMA=   1.0754
  7.3891  1.8978  1.6729  1.6729  0.9068  0.9068  0.5899  0.5899  0.5508  0.3914
  0.1472  0.3161  0.2845  0.2845  0.2453  0.2274  0.2083

 Free energy of the ion-electron system (eV)
  ---------------------------------------------------
  alpha Z        PSCENC =      2015.86452450
  Ewald energy   TEWEN  =    123297.90434641
  -Hartree energ DENC   =   -173709.44164641
  -exchange      EXHF   =         0.00000000
  -V(xc)+E(xc)   XCENC  =       214.73506225
  PAW double counting   =     60387.13658851   -58789.80566113
  entropy T*S    EENTRO =        -0.01827400
  eigenvalues    EBANDS =      -445.48450481
  atomic energy  EATOM  =     46663.39518770
  Solvation  Ediel_sol  =         0.00000000
  ---------------------------------------------------
  free energy    TOTEN  =      -365.71437699 eV

  energy without entropy =     -365.69610299  energy(sigma->0) =     -365.70828566


--------------------------------------------------------------------------------------------------------




--------------------------------------- Iteration      1(  23)  ---------------------------------------


    POTLOK:  cpu time    0.3733: real time    0.3742
    SETDIJ:  cpu time    0.0322: real time    0.0323
    EDDIAG:  cpu time    7.5070: real time    7.5247
  RMM-DIIS:  cpu time   27.1890: real time   27.2532
    ORTHCH:  cpu time    0.6468: real time    0.6483
       DOS:  cpu time    0.0017: real time    0.0017
    CHARGE:  cpu time    3.0369: real time    3.0440
    MIXING:  cpu time    0.0150: real time    0.0151
    --------------------------------------------
      LOOP:  cpu time   38.8020: real time   38.8936

 eigenvalue-minimisations  :  6763
 total energy-change (2. order) :-0.7035920E-01  (-0.1670450E-02)
 number of electron     640.0000081 magnetization       5.0042398
 augmentation part      197.0582300 magnetization       2.4328417

 Broyden mixing:
  rms(total) = 0.16463E+00    rms(broyden)= 0.16463E+00
  rms(prec ) = 0.18293E+00
  weight for this iteration     100.00

 eigenvalues of (default mixing * dielectric matrix)
  average eigenvalue GAMMA=   1.1646
  8.9158  1.8672  1.8495  1.8495  1.0014  1.0014  0.7151  0.6372  0.6372  0.4018
  0.4018  0.1472  0.2878  0.2878  0.2739  0.2528  0.2276  0.2076

 Free energy of the ion-electron system (eV)
  ---------------------------------------------------
  alpha Z        PSCENC =      2015.86452450
  Ewald energy   TEWEN  =    123297.90434641
  -Hartree energ DENC   =   -173705.83724453
  -exchange      EXHF   =         0.00000000
  -V(xc)+E(xc)   XCENC  =       214.58825895
  PAW double counting   =     60426.81097272   -58829.76792453
  entropy T*S    EENTRO =        -0.01983684
  eigenvalues    EBANDS =      -448.72302056
  atomic energy  EATOM  =     46663.39518770
  Solvation  Ediel_sol  =         0.00000000
  ---------------------------------------------------
  free energy    TOTEN  =      -365.78473619 eV

[...]
 -0.000  -0.000  -0.000  -0.000  -0.000   0.000   0.000   0.000   0.000  -0.000  -0.000   0.000   0.000   0.000  -0.000  -0.000
  0.000  -0.000  -0.000   0.000   0.000  -0.000   0.000   0.000  -0.000  -0.000  -0.000   0.000  -0.000   0.000  -0.000  -0.000


------------------------ aborting loop because EDIFF is reached ----------------------------------------


    CHARGE:  cpu time    3.0330: real time    3.0402
    FORLOC:  cpu time    0.0639: real time    0.0640
    FORNL :  cpu time   12.3148: real time   12.3440
    STRESS:  cpu time   36.5247: real time   36.6109
    FORCOR:  cpu time    0.4014: real time    0.4023
    FORHAR:  cpu time    0.0984: real time    0.0987
    MIXING:  cpu time    0.0114: real time    0.0114
    OFIELD:  cpu time    0.0001: real time    0.0001

 ---------------------------------------------------------------------------------------------

         DFTD3 V3.0 Rev 1        
 Edisp (eV)  -38.41165

 E6    (eV) :   -14.1677
 E8    (eV) :   -24.2440
 % E8        : 63.12
    FORVDW:  cpu time    0.2956: real time    0.2971

  FORCE on cell =-STRESS in cart. coord.  units (eV):
  Direction    XX          YY          ZZ          XY          YZ          ZX
  --------------------------------------------------------------------------------------
  Alpha Z  2015.86452  2015.86452  2015.86452
  Ewald  160319.05576160320.27004************     0.17626     0.36200    -0.10669
  Hartree171302.92271171303.39949************     0.06691     0.09242    -0.02356
  E(xc)   -2854.23634 -2854.22795 -2879.92474     0.00131     0.00343    -0.00105
  Local  ************************353550.89133    -0.20605    -0.33760     0.09407
  n-local   566.12079   566.19364   307.76557     0.00739    -0.00404     0.00195
  augment  3255.22682  3255.11806  3529.99557    -0.01705    -0.03916     0.01191
  Kinetic  9151.51071  9151.27647  9732.42683    -0.03641    -0.09009     0.02763
  Fock        0.00000     0.00000     0.00000     0.00000     0.00000     0.00000
  vdW       -52.73049   -52.74214   -27.89936    -0.00177     0.00116    -0.00042
  -------------------------------------------------------------------------------------
  Total      72.23017    72.19569    -3.55943    -0.00939    -0.01187     0.00384
  in kB      59.91571    59.88711    -2.95259    -0.00779    -0.00985     0.00319
  external pressure =       38.95 kB  Pullay stress =        0.00 kB


 VOLUME and BASIS-vectors are now :
 -----------------------------------------------------------------------------
  energy-cutoff  :      550.00
  volume of cell :     1931.47
      direct lattice vectors                 reciprocal lattice vectors
    10.560000420  0.000000000  0.000000000     0.094696966  0.054673319  0.000000000
    -5.280000210  9.145228627  0.000000000     0.000000000  0.109346638  0.000000000
     0.000000000  0.000000000 20.000000000     0.000000000  0.000000000  0.050000000

  length of vectors
    10.560000420 10.560000420 20.000000000     0.109346638  0.109346638  0.050000000


 FORCES acting on ions
    electron-ion (+dipol)            ewald-force                    non-local-force                 convergence-correction
 -----------------------------------------------------------------------------------------------
   0.110E+02 -.301E+02 0.755E+03   -.111E+02 0.303E+02 -.754E+03   0.178E+00 -.324E+00 -.675E+00   0.726E-02 0.488E-01 -.731E-02
   0.702E+01 0.404E+01 -.936E+03   -.716E+01 -.412E+01 0.936E+03   0.629E-01 0.347E-01 0.206E+00   0.132E-01 0.792E-02 -.105E+00
   0.915E+00 0.395E+02 -.225E+04   -.896E+00 -.391E+02 0.225E+04   -.249E-01 -.391E+00 0.495E-02   -.832E-03 0.526E-02 -.375E-01
   -.487E-02 -.470E-02 0.582E+03   0.491E-02 0.516E-02 -.581E+03   0.631E-03 -.907E-03 -.128E+01   -.137E-03 -.293E-03 -.169E-01
   0.235E-02 -.200E+01 -.773E+03   -.280E-02 0.211E+01 0.773E+03   -.392E-03 -.145E+00 0.121E+00   0.223E-03 0.352E-01 -.636E-01
   0.468E+02 0.269E+02 -.234E+04   -.461E+02 -.265E+02 0.234E+04   -.768E+00 -.442E+00 0.481E+00   0.345E-02 0.373E-02 -.412E-01
   -.315E+02 0.553E+01 0.755E+03   0.318E+02 -.553E+01 -.754E+03   -.371E+00 0.892E-02 -.676E+00   0.362E-01 -.291E-01 -.779E-02
   -.266E+00 -.183E+01 -.747E+03   0.262E+00 0.203E+01 0.746E+03   0.102E-01 -.218E+00 0.397E+00   0.126E-01 0.257E-01 -.679E-01
   0.311E-02 0.483E+02 -.240E+04   -.314E-02 -.480E+02 0.240E+04   -.415E-03 -.350E+00 0.459E+00   0.831E-05 0.103E-01 -.335E-01
   -.109E+02 -.301E+02 0.755E+03   0.111E+02 0.303E+02 -.754E+03   -.178E+00 -.324E+00 -.675E+00   -.717E-02 0.491E-01 -.762E-02
   -.704E+01 0.405E+01 -.936E+03   0.717E+01 -.413E+01 0.936E+03   -.615E-01 0.346E-01 0.206E+00   -.132E-01 0.707E-02 -.105E+00
   -.972E+00 0.395E+02 -.225E+04   0.953E+00 -.391E+02 0.225E+04   0.244E-01 -.390E+00 0.548E-02   0.124E-02 0.495E-02 -.377E-01
   -.958E+01 -.552E+01 0.798E+03   0.978E+01 0.563E+01 -.798E+03   -.210E+00 -.119E+00 -.369E+00   0.232E-02 0.419E-02 -.116E-01
   0.141E+01 0.113E+01 -.746E+03   -.159E+01 -.123E+01 0.746E+03   0.196E+00 0.987E-01 0.397E+00   -.137E-01 -.231E-01 -.678E-01
   -.897E+00 -.676E+00 -.225E+04   0.865E+00 0.655E+00 0.225E+04   0.416E-01 0.260E-01 -.268E-01   0.689E-02 0.466E-02 -.379E-01
   -.228E-01 0.704E+01 0.805E+03   0.222E-01 -.695E+01 -.805E+03   0.481E-03 -.614E-01 -.252E+00   0.847E-03 -.394E-01 -.718E-02
   0.204E-01 -.997E-01 -.717E+03   -.193E-01 0.958E-01 0.716E+03   -.101E-02 0.371E-02 0.403E+00   -.564E-03 0.254E-02 -.844E-01
   -.469E+02 0.270E+02 -.234E+04   0.461E+02 -.266E+02 0.234E+04   0.772E+00 -.445E+00 0.480E+00   -.321E-02 0.244E-02 -.418E-01
   0.315E+02 0.554E+01 0.755E+03   -.319E+02 -.553E+01 -.754E+03   0.370E+00 0.844E-02 -.675E+00   -.370E-01 -.299E-01 -.765E-02
   0.245E+00 -.181E+01 -.747E+03   -.241E+00 0.201E+01 0.747E+03   -.102E-01 -.218E+00 0.397E+00   -.126E-01 0.257E-01 -.679E-01
   0.389E-01 0.100E+01 -.225E+04   -.389E-01 -.968E+00 0.225E+04   -.180E-03 -.477E-01 -.287E-01   0.450E-03 -.684E-02 -.387E-01
   0.955E+01 -.550E+01 0.798E+03   -.975E+01 0.562E+01 -.798E+03   0.210E+00 -.119E+00 -.368E+00   -.241E-02 0.324E-02 -.112E-01
   -.139E+01 0.109E+01 -.746E+03   0.157E+01 -.119E+01 0.746E+03   -.197E+00 0.996E-01 0.397E+00   0.135E-01 -.217E-01 -.678E-01
   0.961E+00 -.643E+00 -.225E+04   -.927E+00 0.621E+00 0.225E+04   -.423E-01 0.262E-01 -.272E-01   -.729E-02 0.528E-02 -.379E-01
   -.205E+02 0.245E+02 0.755E+03   0.207E+02 -.248E+02 -.754E+03   -.194E+00 0.316E+00 -.677E+00   0.432E-01 -.182E-01 -.799E-02
   0.269E+00 0.251E+00 -.686E+03   -.138E+00 -.174E+00 0.686E+03   -.152E+00 -.910E-01 0.451E+00   0.196E-01 0.902E-02 -.529E-01
   0.348E+02 -.189E+02 -.225E+04   -.345E+02 0.187E+02 0.225E+04   -.354E+00 0.175E+00 0.371E-02   0.321E-02 -.328E-02 -.391E-01
   -.612E+01 -.347E+01 0.805E+03   0.603E+01 0.343E+01 -.805E+03   0.524E-01 0.287E-01 -.252E+00   0.347E-01 0.187E-01 -.743E-02
   -.168E+01 0.939E+00 -.773E+03   0.178E+01 -.996E+00 0.773E+03   -.128E+00 0.743E-01 0.118E+00   0.278E-01 -.167E-01 -.644E-01
   -.110E-01 0.123E+00 -.220E+04   0.105E-01 -.121E+00 0.220E+04   -.809E-04 -.289E-02 0.269E+00   0.624E-03 -.220E-02 -.132E+00
   0.113E-01 -.147E+02 0.816E+03   -.123E-01 0.150E+02 -.816E+03   0.224E-03 -.346E+00 -.109E+00   0.456E-03 0.411E-01 -.314E-01
   0.794E-02 -.816E+01 -.936E+03   -.726E-02 0.831E+01 0.936E+03   0.294E-04 -.697E-01 0.206E+00   -.535E-03 -.161E-01 -.105E+00
   0.339E+02 -.206E+02 -.225E+04   -.335E+02 0.204E+02 0.225E+04   -.330E+00 0.218E+00 0.323E-02   0.379E-02 -.230E-02 -.381E-01
   -.128E+02 0.737E+01 0.816E+03   0.130E+02 -.750E+01 -.816E+03   -.299E+00 0.172E+00 -.110E+00   0.366E-01 -.228E-01 -.309E-01
   -.164E+01 0.764E+00 -.747E+03   0.181E+01 -.869E+00 0.747E+03   -.186E+00 0.118E+00 0.397E+00   0.262E-01 -.252E-02 -.686E-01
   0.419E+02 -.241E+02 -.240E+04   -.416E+02 0.239E+02 0.240E+04   -.304E+00 0.175E+00 0.460E+00   0.736E-02 -.481E-02 -.341E-01
   0.128E+02 0.734E+01 0.816E+03   -.130E+02 -.748E+01 -.816E+03   0.300E+00 0.172E+00 -.110E+00   -.354E-01 -.226E-01 -.313E-01
   0.165E+01 0.754E+00 -.747E+03   -.182E+01 -.859E+00 0.747E+03   0.185E+00 0.118E+00 0.397E+00   -.271E-01 -.218E-02 -.683E-01
   -.419E+02 -.241E+02 -.240E+04   0.416E+02 0.240E+02 0.240E+04   0.303E+00 0.176E+00 0.460E+00   -.809E-02 -.451E-02 -.336E-01
   0.609E+01 -.348E+01 0.805E+03   -.601E+01 0.344E+01 -.805E+03   -.510E-01 0.283E-01 -.252E+00   -.345E-01 0.194E-01 -.792E-02
   0.170E+01 0.954E+00 -.773E+03   -.180E+01 -.101E+01 0.773E+03   0.127E+00 0.738E-01 0.119E+00   -.285E-01 -.174E-01 -.641E-01
   0.490E-03 -.539E+02 -.234E+04   0.290E-03 0.531E+02 0.234E+04   0.187E-03 0.886E+00 0.483E+00   -.259E-03 -.623E-02 -.405E-01
   0.304E-02 0.111E+02 0.798E+03   -.214E-02 -.113E+02 -.798E+03   -.757E-03 0.240E+00 -.370E+00   -.891E-03 -.368E-02 -.121E-01
   -.199E-01 -.322E+00 -.686E+03   0.193E-01 0.171E+00 0.686E+03   0.647E-03 0.176E+00 0.450E+00   0.994E-03 -.228E-01 -.530E-01
   -.338E+02 -.205E+02 -.225E+04   0.335E+02 0.203E+02 0.225E+04   0.328E+00 0.218E+00 0.365E-02   -.421E-02 -.234E-02 -.376E-01
   0.206E+02 0.245E+02 0.755E+03   -.207E+02 -.248E+02 -.754E+03   0.194E+00 0.316E+00 -.676E+00   -.445E-01 -.186E-01 -.820E-02
   -.290E+00 0.232E+00 -.686E+03   0.157E+00 -.155E+00 0.686E+03   0.153E+00 -.904E-01 0.451E+00   -.184E-01 0.961E-02 -.523E-01
   -.348E+02 -.189E+02 -.225E+04   0.344E+02 0.187E+02 0.225E+04   0.353E+00 0.176E+00 0.354E-02   -.263E-02 -.341E-02 -.388E-01
   -.758E+00 -.214E+02 0.230E+04   0.892E+00 0.214E+02 -.230E+04   -.826E-01 0.892E-01 -.246E+00   -.249E-02 0.131E-01 -.132E-03
   -.221E+02 -.127E+02 0.229E+04   0.224E+02 0.129E+02 -.229E+04   -.498E-01 -.290E-01 -.946E-01   0.751E-02 0.587E-02 0.188E-01
   0.127E-01 -.313E+02 0.226E+04   -.126E-01 0.314E+02 -.226E+04   0.991E-04 -.849E-02 0.119E+00   -.195E-03 0.150E-01 0.216E-01
   0.777E+00 -.214E+02 0.230E+04   -.912E+00 0.214E+02 -.230E+04   0.827E-01 0.893E-01 -.246E+00   0.265E-02 0.127E-01 0.405E-04
   0.687E+00 0.436E+00 0.231E+04   -.799E+00 -.500E+00 -.231E+04   0.165E-01 0.895E-02 -.319E+00   0.287E-02 0.154E-02 0.164E-01
   0.221E+02 -.127E+02 0.229E+04   -.224E+02 0.129E+02 -.229E+04   0.501E-01 -.292E-01 -.948E-01   -.757E-02 0.541E-02 0.188E-01
   -.147E-01 -.774E+00 0.231E+04   0.143E-01 0.903E+00 -.231E+04   0.113E-03 -.191E-01 -.319E+00   0.260E-03 -.202E-02 0.171E-01
   -.706E+00 0.430E+00 0.231E+04   0.819E+00 -.494E+00 -.231E+04   -.163E-01 0.901E-02 -.319E+00   -.303E-02 0.191E-02 0.161E-01
   -.189E+02 0.100E+02 0.230E+04   0.190E+02 -.992E+01 -.230E+04   0.364E-01 -.116E+00 -.248E+00   0.101E-01 -.863E-02 0.120E-02
   0.294E-02 -.214E-01 0.232E+04   -.358E-02 0.234E-01 -.232E+04   0.176E-03 -.358E-03 -.372E+00   0.422E-03 -.138E-02 -.178E-01
   -.182E+02 0.114E+02 0.230E+04   0.181E+02 -.115E+02 -.230E+04   0.119E+00 0.266E-01 -.247E+00   0.124E-01 -.565E-02 0.640E-03
   -.271E+02 0.156E+02 0.226E+04   0.273E+02 -.157E+02 -.226E+04   -.697E-02 0.395E-02 0.117E+00   0.115E-01 -.686E-02 0.219E-01
   0.271E+02 0.156E+02 0.226E+04   -.273E+02 -.157E+02 -.226E+04   0.715E-02 0.394E-02 0.118E+00   -.122E-01 -.700E-02 0.217E-01
   -.481E-02 0.255E+02 0.229E+04   0.519E-02 -.258E+02 -.229E+04   0.538E-04 0.572E-01 -.947E-01   -.408E-03 -.992E-02 0.185E-01
   0.182E+02 0.113E+02 0.230E+04   -.181E+02 -.115E+02 -.230E+04   -.119E+00 0.267E-01 -.246E+00   -.124E-01 -.536E-02 0.104E-03
   0.189E+02 0.100E+02 0.230E+04   -.190E+02 -.991E+01 -.230E+04   -.362E-01 -.116E+00 -.248E+00   -.942E-02 -.873E-02 0.852E-03
 -----------------------------------------------------------------------------------------------
   0.132E-02 -.596E-02 0.400E+01   -.256E-12 0.263E-12 -.409E-11   -.400E-03 -.103E-02 -.212E+01   -.187E-03 0.804E-03 -.192E+01
 
 
 POSITION                                       TOTAL-FORCE (eV/Angst)
 -----------------------------------------------------------------------------------
      2.62776      1.54870      3.61935         0.000461      0.007578     -0.000053
      0.00451      3.05023      6.29136        -0.014117     -0.010040     -0.002541
     -0.00164      0.00574      8.33411         0.001669      0.000738     -0.016443
      1.32005      3.81045      3.95308         0.000541     -0.000716      0.010064
      1.32019      0.78960      5.99947        -0.000631     -0.015361      0.000419
     -1.31367      2.28840      8.55750        -0.001702     -0.000509     -0.005469
     -1.29244      3.80878      3.61909         0.004497     -0.003970     -0.000189
      3.95714      0.77978      5.94214        -0.005353      0.005546     -0.020710
      1.32040      2.27287      8.75142        -0.000424      0.004271     -0.018577
      0.01234      1.54871      3.61948        -0.000610      0.007133      0.000092
      2.63596      3.05020      6.29122         0.015537     -0.010180     -0.002742
      2.64242      0.00572      8.33386        -0.002002      0.001983     -0.015996
      7.93079      1.53029      3.52417         0.002603      0.003651      0.016667
      5.26280      3.04134      5.94158        -0.005399      0.000229     -0.021095
      5.28317      0.00031      8.32425         0.006374      0.003884     -0.019418
      6.60004      3.80498      3.50687         0.000687      0.011429     -0.004367
      6.60030      0.76117      5.88507        -0.000545      0.002487      0.002212
      3.95430      2.28854      8.55743         0.004502     -0.003071     -0.006322
      3.93259      3.80880      3.61900        -0.005758     -0.003931      0.000498
      9.24326      0.77981      5.94241         0.005643      0.004738     -0.020969
      6.60038      2.28177      8.32358         0.000284     -0.007922     -0.020648
      5.26930      1.53029      3.52408        -0.002902      0.003019      0.017307
      7.93775      3.04139      5.94167         0.004574      0.001359     -0.020389
      7.91763      0.00028      8.32468        -0.006287      0.003852     -0.020150
      0.01528      6.07377      3.61932         0.005162     -0.001282      0.000153
     -2.62552      7.62879      5.82605        -0.015487     -0.013072     -0.008308
     -2.63440      4.56601      8.33371         0.001026      0.001325     -0.017841
     -1.31517      8.38588      3.50717        -0.010294     -0.007467     -0.004457
     -1.29529      5.31997      5.99937        -0.015548      0.010240     -0.000971
      6.60039      6.85774      8.16786         0.000056     -0.002979      0.024685
     -3.96000      8.40403      3.48362        -0.000337     -0.026033      0.025803
      1.32026      5.32893      6.29175         0.000220      0.018956     -0.002473
     -1.31239      6.85576      8.33426        -0.001661     -0.002663     -0.017958
     -2.62182      6.08638      3.48359        -0.021579      0.013005      0.026221
      0.01457      7.60844      5.94233         0.000082     -0.008251     -0.020975
     -0.01009      4.57736      8.75187         0.002156     -0.002105     -0.019762
      5.26188      6.08638      3.48358         0.021845      0.013761      0.026058
      2.62582      7.60843      5.94253        -0.000090     -0.008175     -0.020256
      2.65090      4.57728      8.75173        -0.004136     -0.000909     -0.019172
      3.95516      8.38592      3.50731         0.011583     -0.007524     -0.004417
      3.93579      5.31997      5.99929         0.014838      0.009679     -0.000996
      1.32038      6.85097      8.55814         0.000705      0.001293     -0.005459
      1.32005      8.37065      3.52435        -0.000737     -0.003978      0.016462
      6.60023      5.31781      5.82580         0.000964      0.019482     -0.008873
      3.95326      6.85575      8.33438         0.000422     -0.002747     -0.017690
      2.62485      6.07381      3.61936        -0.005515     -0.001777      0.000256
      5.26582      7.62878      5.82612         0.016722     -0.012187     -0.008551
      5.27522      4.56594      8.33337        -0.001042      0.002579     -0.017634
      0.00000      0.00000      1.11580         0.055912      0.142966     -0.108486
      9.24000      2.28631      1.11580         0.217875      0.125655      0.130897
      1.32000      2.28631      1.11580        -0.000059      0.186596      0.297983
      2.64000      0.00000      1.11580        -0.056251      0.143013     -0.108809
      5.28000      0.00000      1.11580        -0.100353     -0.057505     -0.037730
      3.96000      2.28631      1.11580        -0.218140      0.125802      0.130428
      6.60000      2.28631      1.11580        -0.000034      0.115724     -0.038609
      7.92000      0.00000      1.11580         0.100356     -0.057580     -0.037493
      7.92000      4.57261      1.11580         0.151778     -0.022408     -0.109307
      6.60000      6.85892      1.11580        -0.000067      0.000337     -0.273834
     -1.32000      6.85892      1.11580         0.095696     -0.119501     -0.108764
     -0.00000      4.57261      1.11580         0.161570     -0.093148      0.297635
      2.64000      4.57261      1.11580        -0.161716     -0.093117      0.297625
      1.32000      6.85892      1.11580         0.000017     -0.250646      0.131461
      3.96000      6.85892      1.11580        -0.095785     -0.119247     -0.108571
      5.28000      4.57261      1.11580        -0.151797     -0.022305     -0.109452
 -----------------------------------------------------------------------------------
    total drift:                                0.000729     -0.006188     -0.038628


--------------------------------------------------------------------------------------------------------



  FREE ENERGIE OF THE ION-ELECTRON SYSTEM (eV)
  ---------------------------------------------------
  free  energy   TOTEN  =      -405.05975049 eV

  energy  without entropy=     -405.02363133  energy(sigma->0) =     -405.04771077
 
 d Force = 0.2888368E-02[ 0.160E-02, 0.418E-02]  d Energy = 0.2991538E-02-0.103E-03
 d Force =-0.6465726E+02[-0.646E+02,-0.647E+02]  d Ewald  =-0.6465727E+02 0.830E-05


--------------------------------------------------------------------------------------------------------


    POTLOK:  cpu time    0.4041: real time    0.4050


--------------------------------------------------------------------------------------------------------


 Conjugate gradient step on ions:
 trial-energy change:   -0.002992  1 .order   -0.002888   -0.004176   -0.001600
  (g-gl).g = 0.294E-02      g.g   = 0.259E-02  gl.gl    = 0.764E-02
 g(Force)  = 0.259E-02   g(Stress)= 0.000E+00 ortho     = 0.514E-03
 gamma     =   0.38536
 trial     =   1.50018
 opt step  =   2.19017  (harmonic =   2.43225) maximal distance =0.02470546
 next E    =  -405.060129   (d E  =  -0.00337)


--------------------------------------------------------------------------------------------------------


  
 reached required accuracy - stopping structural energy minimisation
     LOOP+:  cpu time  425.0702: real time  426.1949
    4ORBIT:  cpu time    0.0000: real time    0.0000

 total amount of memory used by VASP MPI-rank0   198159. kBytes
=======================================================================

   base      :      30000. kBytes
   nonlr-proj:      30750. kBytes
   fftplans  :      17093. kBytes
   grid      :      42083. kBytes
   one-center:        497. kBytes
   wavefun   :      77736. kBytes
 
  
  
 General timing and accounting informations for this job:
 ========================================================
  
                  Total CPU time used (sec):     8141.593
                            User time (sec):     8130.253
                          System time (sec):       11.340
                         Elapsed time (sec):     8164.403
  
                   Maximum memory used (kb):      712440.
                   Average memory used (kb):           0.
  
                          Minor page faults:      2786102
                          Major page faults:            0
                 Voluntary context switches:         4876
