 vasp.5.4.4.18Apr17-6-g9f103f2a35 (build Nov 30 2020 22:55:02) complex          
  
 executed on             LinuxIFC date 2023.09.08  18:26:48
 running on   40 total cores
 distrk:  each k-point on   40 cores,    1 groups
 distr:  one band on NCORES_PER_BAND=   4 cores,   10 groups


--------------------------------------------------------------------------------------------------------


 INCAR:
 POTCAR:    PAW_PBE Pt 04Feb2005                  
 POTCAR:    PAW_PBE Pt 04Feb2005                  
   VRHFIN =Pt: s1d9                                                             
   LEXCH  = PE                                                                  
   EATOM  =   729.1176 eV,   53.5886 Ry                                         
                                                                                
   TITEL  = PAW_PBE Pt 04Feb2005                                                
   LULTRA =        F    use ultrasoft PP ?                                      
   IUNSCR =        1    unscreen: 0-lin 1-nonlin 2-no                           
   RPACOR =    2.330    partial core radius                                     
   POMASS =  195.080; ZVAL   =   10.000    mass and valenz                      
   RCORE  =    2.600    outmost cutoff radius                                   
   RWIGS  =    2.750; RWIGS  =    1.455    wigner-seitz radius (au A)           
   ENMAX  =  230.283; ENMIN  =  172.712 eV                                      
   ICORE  =        3    local potential                                         
   LCOR   =        T    correct aug charges                                     
   LPAW   =        T    paw PP                                                  
   EAUG   =  358.966                                                            
   DEXC   =    0.000                                                            
   RMAX   =    2.658    core radius for proj-oper                               
   RAUG   =    1.300    factor for augmentation sphere                          
   RDEP   =    2.761    radius for radial grids                                 
   RDEPT  =    2.203    core radius for aug-charge                              
                                                                                
   Atomic configuration                                                         
   16 entries                                                                   
     n  l   j            E        occ.                                          
     1  0  0.50    -78401.1885   2.0000                                         
     2  0  0.50    -13770.7750   2.0000                                         
     2  1  1.50    -11931.0468   6.0000                                         
     3  0  0.50     -3234.7234   2.0000                                         
     3  1  1.50     -2699.2216   6.0000                                         
     3  2  2.50     -2119.5714  10.0000                                         
     4  0  0.50      -695.1528   2.0000                                         
     4  1  1.50      -519.6034   6.0000                                         
     4  2  2.50      -306.6786  10.0000                                         
     4  3  3.50       -70.1041  14.0000                                         
     5  0  0.50      -101.7747   2.0000                                         
     5  1  1.50       -55.9873   6.0000                                         
     5  2  2.50        -6.1423   9.0000                                         
     6  0  0.50        -5.6573   1.0000                                         
     6  1  1.50        -6.8029   0.0000                                         
     5  3  2.50        -1.3606   0.0000                                         
   Description                                                                  
     l       E           TYP  RCUT    TYP  RCUT                                 
     2     -6.1423404     23  2.500                                             
     2     -7.5029230     23  2.500                                             
     0     -5.6573207     23  2.500                                             
     0      0.7416693     23  2.500                                             
     1     -2.7211652     23  2.600                                             
     1     20.4087390     23  2.600                                             
     3     -1.3605826     23  2.500                                             
  local pseudopotential read in
  partial core-charges read in
  partial kinetic energy density read in
  atomic valenz-charges read in
  non local Contribution for L=           2  read in
    real space projection operators read in
  non local Contribution for L=           2  read in
    real space projection operators read in
  non local Contribution for L=           0  read in
    real space projection operators read in
  non local Contribution for L=           0  read in
    real space projection operators read in
  non local Contribution for L=           1  read in
    real space projection operators read in
  non local Contribution for L=           1  read in
    real space projection operators read in
    PAW grid and wavefunctions read in
 
   number of l-projection  operators is LMAX  =           6
   number of lm-projection operators is LMMAX =          18
 
 Optimization of the real space projectors (new method)

 maximal supplied QI-value         = 14.36
 optimisation between [QCUT,QGAM] = [ 11.92, 23.98] = [ 39.79,161.09] Ry 
 Optimized for a Real-space Cutoff    1.49 Angstroem

   l    n(q)    QCUT    max X(q) W(low)/X(q) W(high)/X(q)  e(spline) 
   2     10    11.920    66.195    0.79E-04    0.18E-03    0.24E-06
   2     10    11.920    64.643    0.81E-04    0.19E-03    0.24E-06
   0     11    11.920    95.520    0.28E-04    0.54E-04    0.18E-06
   0     11    11.920    63.403    0.27E-04    0.52E-04    0.17E-06
   1     10    11.920    19.961    0.18E-04    0.11E-03    0.23E-06
   1     10    11.920    13.289    0.25E-04    0.87E-04    0.19E-06
  PAW_PBE Pt 04Feb2005                  :
 energy of atom  1       EATOM= -729.1176
 kinetic energy error for atom=    0.0021 (will be added to EATOM!!)
 
 
 POSCAR: Pt111                                   
  positions in direct lattice
  velocities in cartesian coordinates
 exchange correlation table for  LEXCH =        8
   RHO(1)=    0.500       N(1)  =     2000
   RHO(2)=  100.500       N(2)  =     4000
 


--------------------------------------------------------------------------------------------------------


 ion  position               nearest neighbor table
   1  0.785  0.869  0.331-   3 2.71   2 2.71  73 2.72  72 2.72  56 2.72  43 2.72  71 2.78  20 2.78
                            55 2.78  27 2.82  35 2.82  34 2.83
   2  0.035  0.869  0.331-  57 2.71   3 2.71  23 2.71   1 2.71  47 2.72  72 2.72  55 2.78  65 2.78
                            68 2.78  29 2.82  27 2.82  39 2.83
   3  0.034  0.619  0.331-   2 2.71   1 2.71  56 2.72   9 2.72  15 2.72  57 2.72  12 2.78  55 2.78
                            76 2.79  39 2.82  35 2.83  28 2.83
   4  0.787  0.867  0.015-  58 2.71   5 2.71  75 2.71   6 2.71  74 2.72  44 2.72  21 2.82  78 2.82
                            19 2.83
   5  0.037  0.868  0.015-  48 2.71  74 2.71   4 2.71  24 2.72   6 2.72  59 2.72  70 2.82  49 2.82
                            78 2.83
   6  0.037  0.618  0.015-  18 2.71  59 2.71   4 2.71  58 2.72   5 2.72  10 2.72  46 2.82  70 2.82
                            21 2.83
   7  0.619  0.202  0.122-  78 2.71  19 2.71  11 2.71  61 2.71  53 2.72  22 2.72  71 2.78  79 2.78
                            80 2.79  42 2.82  44 2.82  74 2.83
   8  0.369  0.952  0.122-  54 2.71  49 2.71  60 2.72  25 2.72  19 2.72  53 2.72  66 2.78  69 2.78
                            26 2.79  16 2.82  24 2.82  75 2.83
   9  0.034  0.369  0.331-  47 2.71  13 2.71  15 2.71   3 2.72  56 2.72  63 2.72  12 2.78  77 2.78
                            62 2.78  33 2.82  30 2.82  28 2.83
  10  0.037  0.367  0.016-  64 2.71  48 2.71  16 2.72  18 2.72  58 2.72   6 2.72  54 2.82  46 2.83
                            45 2.83
  11  0.869  0.202  0.122-  22 2.71   7 2.71  54 2.72  78 2.72  49 2.72  45 2.72  65 2.78  77 2.78
                            79 2.79  64 2.82  74 2.83  48 2.83
  12  0.952  0.536  0.227-  62 2.71  76 2.71  55 2.71  20 2.72  67 2.72  77 2.72  45 2.78  21 2.78
                             9 2.78   3 2.78  46 2.78  56 2.78
  13  0.284  0.119  0.331-  15 2.71   9 2.71  47 2.71  23 2.72  43 2.72  73 2.72  62 2.78  26 2.78
                            69 2.79  36 2.82  31 2.82  33 2.83
  14  0.534  0.620  0.331-  56 2.71  23 2.71  63 2.71  73 2.71  57 2.72  41 2.72  66 2.78  51 2.78
                            67 2.79  52 2.82  38 2.82  37 2.83
  15  0.284  0.369  0.331-  41 2.71  13 2.71  43 2.71   9 2.71   3 2.72  57 2.72  62 2.78  76 2.78
                            80 2.79  36 2.82  50 2.82  28 2.83
  16  0.287  0.118  0.016-  44 2.71  75 2.71  10 2.72  18 2.72  48 2.72  24 2.72   8 2.82  53 2.82
                            54 2.83
  17  0.537  0.618  0.015-  24 2.71  59 2.71  64 2.72  42 2.72  58 2.72  75 2.72  22 2.82  25 2.82
                            60 2.83
  18  0.287  0.368  0.016-   6 2.71  59 2.71  44 2.72  10 2.72  16 2.72  42 2.72  53 2.82  61 2.82
                            46 2.83
  19  0.619  0.952  0.122-  78 2.71  25 2.71  21 2.71   7 2.71   8 2.72  53 2.72  20 2.78  71 2.78
                            69 2.79  44 2.82  75 2.82   4 2.83
  20  0.702  0.786  0.227-  71 2.71  66 2.71  69 2.72  55 2.72  67 2.72  12 2.72  19 2.78  25 2.78
                            56 2.78   1 2.78  21 2.78  73 2.79
  21  0.869  0.702  0.122-  25 2.71  78 2.71  19 2.71  45 2.71  46 2.72  70 2.72  12 2.78  55 2.78
                            20 2.78   4 2.82  58 2.82   6 2.83
  22  0.620  0.452  0.122-  11 2.71  45 2.71  61 2.71  25 2.72  60 2.72   7 2.72  79 2.78  67 2.78
                            51 2.79  17 2.82  42 2.82  64 2.83
  23  0.285  0.869  0.331-  14 2.71  57 2.71  73 2.71   2 2.71  13 2.72  47 2.72  68 2.78  26 2.78
                            66 2.79  31 2.82  37 2.82  29 2.83
  24  0.287  0.867  0.015-  17 2.71  59 2.71  48 2.72   5 2.72  16 2.72  75 2.72  60 2.82   8 2.82
                            49 2.83
  25  0.619  0.702  0.122-  19 2.71  45 2.71  21 2.71   8 2.72  22 2.72  60 2.72  20 2.78  67 2.78
                            66 2.79  17 2.82  75 2.82  58 2.83
  26  0.202  0.036  0.227-  77 2.71  68 2.71  65 2.71  62 2.71  69 2.72  66 2.72  54 2.78  49 2.78
                            23 2.78  13 2.78  47 2.79   8 2.79
  27  0.868  0.953  0.438-  29 2.71  32 2.72  39 2.72  34 2.72  35 2.72  40 2.72   1 2.82  72 2.82
                             2 2.82
  28  0.117  0.453  0.438-  39 2.71  50 2.71  30 2.71  33 2.72  35 2.72  36 2.72   3 2.83   9 2.83
                            15 2.83
  29  0.117  0.953  0.438-  27 2.71  31 2.71  39 2.71  37 2.72  32 2.72  33 2.72   2 2.82  47 2.82
                            23 2.83
  30  0.868  0.453  0.438-  32 2.71  33 2.71  35 2.71  28 2.71  52 2.72  38 2.72   9 2.82  63 2.83
                            56 2.83
  31  0.367  0.953  0.438-  36 2.71  37 2.71  33 2.71  29 2.71  52 2.72  34 2.72  23 2.82  13 2.82
                            73 2.83
  32  0.867  0.203  0.438-  30 2.71  38 2.71  27 2.72  40 2.72  33 2.72  29 2.72  63 2.82  72 2.83
                            47 2.83
  33  0.117  0.203  0.438-  30 2.71  31 2.71  36 2.71  28 2.72  32 2.72  29 2.72   9 2.82  47 2.82
                            13 2.83
  34  0.618  0.953  0.438-  35 2.71  36 2.71  40 2.71  27 2.72  52 2.72  31 2.72  73 2.82  43 2.82
                             1 2.83
  35  0.867  0.703  0.438-  52 2.71  34 2.71  30 2.71  28 2.72  27 2.72  39 2.72  56 2.82   1 2.82
                             3 2.83
  36  0.367  0.203  0.438-  31 2.71  34 2.71  33 2.71  40 2.71  50 2.72  28 2.72  13 2.82  15 2.82
                            43 2.83
  37  0.368  0.703  0.438-  52 2.71  38 2.71  31 2.71  29 2.72  50 2.72  39 2.72  57 2.82  23 2.82
                            14 2.83
  38  0.617  0.453  0.438-  40 2.71  37 2.71  32 2.71  50 2.72  52 2.72  30 2.72  41 2.82  14 2.82
                            63 2.83
  39  0.117  0.703  0.438-  50 2.71  28 2.71  29 2.71  27 2.72  35 2.72  37 2.72   3 2.82  57 2.83
                             2 2.83
  40  0.617  0.203  0.438-  38 2.71  34 2.71  36 2.71  50 2.72  32 2.72  27 2.72  41 2.82  43 2.82
                            72 2.83
  41  0.534  0.370  0.331-  57 2.71  15 2.71  43 2.71  63 2.72  72 2.72  14 2.72  80 2.78  51 2.78
                            79 2.79  40 2.82  38 2.82  50 2.83
  42  0.538  0.367  0.015-  74 2.71  44 2.71  64 2.71  17 2.72  59 2.72  18 2.72   7 2.82  22 2.82
                            61 2.83
  43  0.534  0.120  0.331-  41 2.71  15 2.71  72 2.71  13 2.72  73 2.72   1 2.72  80 2.78  69 2.78
                            71 2.79  40 2.82  34 2.82  36 2.83
  44  0.537  0.118  0.015-  16 2.71  42 2.71  75 2.71  74 2.71  18 2.72   4 2.72  19 2.82   7 2.82
                            53 2.83
  45  0.869  0.452  0.122-  22 2.71  25 2.71  21 2.71  46 2.72  11 2.72  54 2.72  77 2.78  12 2.78
                            67 2.78  58 2.82  64 2.82  10 2.83
  46  0.119  0.452  0.122-  53 2.71  45 2.72  21 2.72  54 2.72  61 2.72  70 2.72  62 2.78  76 2.78
                            12 2.78   6 2.82  10 2.83  18 2.83
  47  0.034  0.119  0.331-   9 2.71  13 2.71  72 2.72  63 2.72  23 2.72   2 2.72  77 2.78  65 2.78
                            26 2.79  29 2.82  33 2.82  32 2.83
  48  0.037  0.118  0.015-   5 2.71  10 2.71  24 2.72  74 2.72  64 2.72  16 2.72  49 2.82  54 2.83
                            11 2.83
  49  0.119  0.952  0.122-  70 2.71  54 2.71   8 2.71  60 2.71  11 2.72  78 2.72  68 2.78  26 2.78
                            65 2.79  48 2.82   5 2.82  24 2.83
  50  0.367  0.453  0.438-  39 2.71  28 2.71  38 2.72  40 2.72  37 2.72  36 2.72  15 2.82  57 2.83
                            41 2.83
  51  0.452  0.536  0.227-  79 2.71  80 2.71  76 2.71  67 2.72  68 2.72  66 2.72  41 2.78  60 2.78
                            61 2.78  14 2.78  22 2.79  57 2.79
  52  0.617  0.703  0.438-  35 2.71  37 2.71  38 2.72  30 2.72  34 2.72  31 2.72  14 2.82  73 2.82
                            56 2.83
  53  0.369  0.202  0.122-  46 2.71  54 2.71   7 2.72   8 2.72  61 2.72  19 2.72  69 2.78  80 2.78
                            62 2.79  18 2.82  16 2.82  44 2.83
  54  0.119  0.202  0.122-  49 2.71   8 2.71  53 2.71  11 2.72  46 2.72  45 2.72  26 2.78  62 2.78
                            77 2.79  10 2.82  48 2.83  16 2.83
  55  0.952  0.786  0.227-  76 2.71  12 2.71  65 2.71  68 2.71  20 2.72  71 2.72   2 2.78  78 2.78
                             3 2.78  21 2.78   1 2.78  70 2.79
  56  0.784  0.619  0.331-  14 2.71  73 2.71   3 2.72  63 2.72   9 2.72   1 2.72  67 2.78  20 2.78
                            12 2.78  35 2.82  30 2.83  52 2.83
  57  0.284  0.619  0.331-   2 2.71  41 2.71  23 2.71  14 2.72   3 2.72  15 2.72  68 2.78  76 2.78
                            51 2.79  37 2.82  50 2.83  39 2.83
  58  0.787  0.618  0.015-   4 2.71  75 2.71  64 2.71   6 2.72  17 2.72  10 2.72  21 2.82  45 2.82
                            25 2.83
  59  0.287  0.618  0.015-  17 2.71  24 2.71  18 2.71   6 2.71  42 2.72   5 2.72  61 2.82  60 2.82
                            70 2.83
  60  0.369  0.702  0.122-  70 2.71  61 2.71  49 2.71   8 2.72  22 2.72  25 2.72  51 2.78  66 2.78
                            68 2.79  24 2.82  59 2.82  17 2.83
  61  0.370  0.452  0.122-  60 2.71  22 2.71   7 2.71  70 2.72  53 2.72  46 2.72  51 2.78  80 2.78
                            76 2.79  59 2.82  18 2.82  42 2.83
  62  0.202  0.286  0.227-  12 2.71  77 2.71  26 2.71  76 2.72  80 2.72  69 2.72  46 2.78  13 2.78
                            54 2.78  15 2.78   9 2.78  53 2.79
  63  0.784  0.369  0.331-  72 2.71  14 2.71  56 2.72  41 2.72  47 2.72   9 2.72  67 2.78  79 2.78
                            77 2.79  32 2.82  30 2.83  38 2.83
  64  0.787  0.368  0.015-  10 2.71  58 2.71  42 2.71  17 2.72  48 2.72  74 2.72  11 2.82  45 2.82
                            22 2.83
  65  0.952  0.036  0.227-  26 2.71  77 2.71  55 2.71  68 2.72  79 2.72  71 2.72   2 2.78  11 2.78
                            47 2.78  78 2.78  72 2.78  49 2.79
  66  0.452  0.786  0.227-  69 2.71  20 2.71  67 2.72  68 2.72  26 2.72  51 2.72   8 2.78  14 2.78
                            60 2.78  73 2.78  23 2.79  25 2.79
  67  0.702  0.536  0.227-  77 2.71  51 2.72  20 2.72  66 2.72  12 2.72  79 2.72  63 2.78  22 2.78
                            56 2.78  25 2.78  45 2.78  14 2.79
  68  0.202  0.786  0.227-  26 2.71  55 2.71  65 2.72  76 2.72  51 2.72  66 2.72  49 2.78  23 2.78
                            70 2.78  57 2.78   2 2.78  60 2.79
  69  0.452  0.036  0.227-  66 2.71  71 2.71  26 2.72  20 2.72  80 2.72  62 2.72  53 2.78  73 2.78
                            43 2.78   8 2.78  13 2.79  19 2.79
  70  0.120  0.702  0.122-  60 2.71  49 2.71  61 2.72  21 2.72  46 2.72  78 2.72  68 2.78  76 2.78
                            55 2.79   6 2.82   5 2.82  59 2.83
  71  0.702  0.036  0.227-  20 2.71  69 2.71  79 2.71  80 2.72  65 2.72  55 2.72   7 2.78   1 2.78
                            19 2.78  72 2.78  78 2.79  43 2.79
  72  0.784  0.120  0.331-  63 2.71  43 2.71  47 2.72   1 2.72  41 2.72   2 2.72  79 2.78  71 2.78
                            65 2.78  27 2.82  32 2.83  40 2.83
  73  0.535  0.869  0.331-  56 2.71  14 2.71  23 2.71  43 2.72   1 2.72  13 2.72  69 2.78  66 2.78
                            20 2.79  34 2.82  52 2.82  31 2.83
  74  0.787  0.118  0.015-  42 2.71   5 2.71  44 2.71   4 2.72  48 2.72  64 2.72  78 2.82  11 2.83
                             7 2.83
  75  0.537  0.868  0.015-  16 2.71  44 2.71  58 2.71   4 2.71  17 2.72  24 2.72  19 2.82  25 2.82
                             8 2.83
  76  0.202  0.536  0.227-  80 2.71  12 2.71  55 2.71  51 2.71  62 2.72  68 2.72  46 2.78  70 2.78
                            57 2.78  15 2.78   3 2.79  61 2.79
  77  0.952  0.286  0.227-  62 2.71  26 2.71  67 2.71  65 2.71  79 2.72  12 2.72  45 2.78  47 2.78
                             9 2.78  11 2.78  63 2.79  54 2.79
  78  0.869  0.952  0.122-   7 2.71  19 2.71  21 2.71  11 2.72  49 2.72  70 2.72  55 2.78  65 2.78
                            71 2.79  74 2.82   4 2.82   5 2.83
  79  0.702  0.286  0.227-  51 2.71  80 2.71  71 2.71  65 2.72  77 2.72  67 2.72  22 2.78  72 2.78
                             7 2.78  63 2.78  41 2.79  11 2.79
  80  0.452  0.286  0.227-  76 2.71  79 2.71  51 2.71  71 2.72  69 2.72  62 2.72  43 2.78  41 2.78
                            61 2.78  53 2.78  15 2.79   7 2.79
 
  LATTYP: Found a hexagonal cell.
 ALAT       =    10.8599870232
 C/A-ratio  =     2.0257851094
  
  Lattice vectors:
  
 A1 = (  -5.4299998282,  -9.4050210000,   0.0000000000)
 A2 = (  -5.4299998278,   9.4050210000,   0.0000000000)
 A3 = (   0.0000000000,   0.0000000000, -22.0000000000)


Analysis of symmetry for initial positions (statically):
=====================================================================
 Subroutine PRICEL returns:
 Original cell was already a primitive cell.
 

 Routine SETGRP: Setting up the symmetry group for a 
 hexagonal supercell.


 Subroutine GETGRP returns: Found  1 space group operations
 (whereof  1 operations were pure point group operations)
 out of a pool of 24 trial point group operations.


The static configuration has the point symmetry C_1 .


Analysis of symmetry for dynamics (positions and initial velocities):
=====================================================================
 Subroutine PRICEL returns:
 Original cell was already a primitive cell.
 

 Routine SETGRP: Setting up the symmetry group for a 
 hexagonal supercell.


 Subroutine GETGRP returns: Found  1 space group operations
 (whereof  1 operations were pure point group operations)
 out of a pool of 24 trial point group operations.


The dynamic configuration has the point symmetry C_1 .


Analysis of structural, dynamic, and magnetic symmetry:
=====================================================================
 Subroutine PRICEL returns:
 Original cell was already a primitive cell.
 

 Routine SETGRP: Setting up the symmetry group for a 
 hexagonal supercell.


 Subroutine GETGRP returns: Found  1 space group operations
 (whereof  1 operations were pure point group operations)
 out of a pool of 24 trial point group operations.


The magnetic configuration has the point symmetry C_1 .


 Subroutine INISYM returns: Found  1 space group operations
 (whereof  1 operations are pure point group operations),
 and found     1 'primitive' translations

 
 
 KPOINTS: mesh auto                               

Automatic generation of k-mesh.
Space group operators:
 irot       det(A)        alpha          n_x          n_y          n_z        tau_x        tau_y        tau_z
    1     1.000000     0.000001     1.000000     0.000000     0.000000     0.000000     0.000000     0.000000
 
 Subroutine IBZKPT returns following result:
 ===========================================
 
 Found      4 irreducible k-points:
 
 Following reciprocal coordinates:
            Coordinates               Weight
  0.000000  0.000000  0.000000      1.000000
  0.500000  0.000000  0.000000      1.000000
  0.000000  0.500000  0.000000      1.000000
  0.500000  0.500000  0.000000      1.000000
 
 Following cartesian coordinates:
            Coordinates               Weight
  0.000000  0.000000  0.000000      1.000000
  0.046041 -0.026582  0.000000      1.000000
  0.000000  0.053163  0.000000      1.000000
  0.046041  0.026582  0.000000      1.000000
 


--------------------------------------------------------------------------------------------------------




 Dimension of arrays:
   k-points           NKPTS =      4   k-points in BZ     NKDIM =      4   number of bands    NBANDS=    520
   number of dos      NEDOS =    301   number of ions     NIONS =     80
   non local maximal  LDIM  =      6   non local SUM 2l+1 LMDIM =     18
   total plane-waves  NPLWV = ******
   max r-space proj   IRMAX =   7380   max aug-charges    IRDMAX=  32148
   dimension x,y,z NGX =    84 NGY =   84 NGZ =  168
   dimension x,y,z NGXF=   168 NGYF=  168 NGZF=  336
   support grid    NGXF=   168 NGYF=  168 NGZF=  336
   ions per type =              80
   NGX,Y,Z   is equivalent  to a cutoff of  12.86, 12.86, 12.70 a.u.
   NGXF,Y,Z  is equivalent  to a cutoff of  25.72, 25.72, 25.39 a.u.

 SYSTEM =  Pt111                                   
 POSCAR =  Pt111                                   

 Startparameter for this run:
   NWRITE =      2    write-flag & timer
   PREC   = accura    normal or accurate (medium, high low for compatibility)
   ISTART =      0    job   : 0-new  1-cont  2-samecut
   ICHARG =      2    charge: 1-file 2-atom 10-const
   ISPIN  =      2    spin polarized calculation?
   LNONCOLLINEAR =      F non collinear calculations
   LSORBIT =      F    spin-orbit coupling
   INIWAV =      1    electr: 0-lowe 1-rand  2-diag
   LASPH  =      F    aspherical Exc in radial PAW
   METAGGA=      F    non-selfconsistent MetaGGA calc.

 Electronic Relaxation 1
   ENCUT  =  550.0 eV  40.42 Ry    6.36 a.u.  20.77 20.77 42.07*2*pi/ulx,y,z
   ENINI  =  550.0     initial cutoff
   ENAUG  =  359.0 eV  augmentation charge cutoff
   NELM   =    200;   NELMIN=  2; NELMDL= -5     # of ELM steps 
   EDIFF  = 0.1E-04   stopping-criterion for ELM
   LREAL  =      T    real-space projection
   NLSPLINE    = F    spline interpolate recip. space projectors
   LCOMPAT=      F    compatible to vasp.4.4
   GGA_COMPAT  = T    GGA compatible to vasp.4.4-vasp.4.6
   LMAXPAW     = -100 max onsite density
   LMAXMIX     =    2 max onsite mixed and CHGCAR
   VOSKOWN=      0    Vosko Wilk Nusair interpolation
   ROPT   =   -0.00025
 Ionic relaxation
   EDIFFG = -.5E-01   stopping-criterion for IOM
   NSW    =    300    number of steps for IOM
   NBLOCK =      1;   KBLOCK =    300    inner block; outer block 
   IBRION =      2    ionic relax: 0-MD 1-quasi-New 2-CG
   NFREE  =      1    steps in history (QN), initial steepest desc. (CG)
   ISIF   =      2    stress and relaxation
   IWAVPR =     11    prediction:  0-non 1-charg 2-wave 3-comb
   ISYM   =      2    0-nonsym 1-usesym 2-fastsym
   LCORR  =      T    Harris-Foulkes like correction to forces

   POTIM  = 0.5000    time-step for ionic-motion
   TEIN   =    0.0    initial temperature
   TEBEG  =    0.0;   TEEND  =   0.0 temperature during run
   SMASS  =  -3.00    Nose mass-parameter (am)
   estimated Nose-frequenzy (Omega)   =  0.10E-29 period in steps =****** mass=  -0.270E-26a.u.
   SCALEE = 1.0000    scale energy and forces
   NPACO  =    256;   APACO  = 16.0  distance and # of slots for P.C.
   PSTRESS=    0.0 pullay stress

  Mass of Ions in am
   POMASS = 195.08
  Ionic Valenz
   ZVAL   =  10.00
  Atomic Wigner-Seitz radii
   RWIGS  =  -1.00
  virtual crystal weights 
   VCA    =   1.00
   NELECT =     800.0000    total number of electrons
   NUPDOWN=      -1.0000    fix difference up-down

 DOS related values:
   EMIN   =  10.00;   EMAX   =-10.00  energy-range for DOS
   EFERMI =   0.00
   ISMEAR =     1;   SIGMA  =   0.10  broadening in eV -4-tet -1-fermi 0-gaus

 Electronic relaxation 2 (details)
   IALGO  =     68    algorithm
   LDIAG  =      T    sub-space diagonalisation (order eigenvalues)
   LSUBROT=      F    optimize rotation matrix (better conditioning)
   TURBO    =      0    0=normal 1=particle mesh
   IRESTART =      0    0=no restart 2=restart with 2 vectors
   NREBOOT  =      0    no. of reboots
   NMIN     =      0    reboot dimension
   EREF     =   0.00    reference energy to select bands
   IMIX   =      4    mixing-type and parameters
     AMIX     =   0.40;   BMIX     =  1.00
     AMIX_MAG =   1.60;   BMIX_MAG =  1.00
     AMIN     =   0.10
     WC   =   100.;   INIMIX=   1;  MIXPRE=   1;  MAXMIX= -45

 Intra band minimization:
   WEIMIN = 0.0010     energy-eigenvalue tresh-hold
   EBREAK =  0.48E-08  absolut break condition
   DEPER  =   0.30     relativ break condition  

   TIME   =   0.40     timestep for ELM

  volume/ion in A,a.u.               =      28.09       189.55
  Fermi-wavevector in a.u.,A,eV,Ry     =   1.160292  2.192634 18.317227  1.346278
  Thomas-Fermi vector in A             =   2.296876
 
 Write flags
   LWAVE        =      F    write WAVECAR
   LDOWNSAMPLE  =      F    k-point downsampling of WAVECAR
   LCHARG       =      F    write CHGCAR
   LVTOT        =      F    write LOCPOT, total local potential
   LVHAR        =      F    write LOCPOT, Hartree potential only
   LELF         =      F    write electronic localiz. function (ELF)
   LORBIT       =      0    0 simple, 1 ext, 2 COOP (PROOUT), +10 PAW based schemes


 Dipole corrections
   LMONO  =      F    monopole corrections only (constant potential shift)
   LDIPOL =      F    correct potential (dipole corrections)
   IDIPOL =      0    1-x, 2-y, 3-z, 4-all directions 
   EPSILON=  1.0000000 bulk dielectric constant

 Exchange correlation treatment:
   GGA     =    --    GGA type
   LEXCH   =     8    internal setting for exchange type
   VOSKOWN=      0    Vosko Wilk Nusair interpolation
   LHFCALC =     F    Hartree Fock is set to
   LHFONE  =     F    Hartree Fock one center treatment
   AEXX    =    0.0000 exact exchange contribution

 Linear response parameters
   LEPSILON=     F    determine dielectric tensor
   LRPA    =     F    only Hartree local field effects (RPA)
   LNABLA  =     F    use nabla operator in PAW spheres
   LVEL    =     F    velocity operator in full k-point grid
   LINTERFAST=   F  fast interpolation
   KINTER  =     0    interpolate to denser k-point grid
   CSHIFT  =0.1000    complex shift for real part using Kramers Kronig
   OMEGAMAX=  -1.0    maximum frequency
   DEG_THRESHOLD= 0.2000000E-02 threshold for treating states as degnerate
   RTIME   =   -0.100 relaxation time in fs
  (WPLASMAI=    0.000 imaginary part of plasma frequency in eV, 0.658/RTIME)
   DFIELD  = 0.0000000 0.0000000 0.0000000 field for delta impulse in time
 
 Orbital magnetization related:
   ORBITALMAG=     F  switch on orbital magnetization
   LCHIMAG   =     F  perturbation theory with respect to B field
   DQ        =  0.001000  dq finite difference perturbation B field
   LLRAUG    =     F  two centre corrections for induced B field



--------------------------------------------------------------------------------------------------------


 conjugate gradient relaxation of ions
 charge density and potential will be updated during run
 spin polarized calculation
 RMM-DIIS sequential band-by-band and
  variant of blocked Davidson during initial phase
 perform sub-space diagonalisation
    before iterative eigenvector-optimisation
 modified Broyden-mixing scheme, WC =      100.0
 initial mixing is a Kerker type mixing with AMIX =  0.4000 and BMIX =      1.0000
 Hartree-type preconditioning will be used
 using additional bands          120
 real space projection scheme for non local part
 use partial core corrections
 calculate Harris-corrections to forces 
   (improved forces if not selfconsistent)
 use gradient corrections 
 use of overlap-Matrix (Vanderbilt PP)
 Methfessel and Paxton  Order N= 1 SIGMA  =   0.10


--------------------------------------------------------------------------------------------------------


  energy-cutoff  :      550.00
  volume of cell :     2247.05
      direct lattice vectors                 reciprocal lattice vectors
    10.859999656  0.000000000  0.000000000     0.092081034 -0.053163092  0.000000000
     5.429999828  9.405021000  0.000000000     0.000000000  0.106326185  0.000000000
     0.000000000  0.000000000 22.000000000     0.000000000  0.000000000  0.045454545

  length of vectors
    10.859999656 10.859987023 22.000000000     0.106326061  0.106326185  0.045454545


 
 k-points in units of 2pi/SCALE and weight: mesh auto                               
   0.00000000  0.00000000  0.00000000       0.250
   0.04604052 -0.02658155  0.00000000       0.250
   0.00000000  0.05316309  0.00000000       0.250
   0.04604052  0.02658155  0.00000000       0.250
 
 k-points in reciprocal lattice and weights: mesh auto                               
   0.00000000  0.00000000  0.00000000       0.250
   0.50000000  0.00000000  0.00000000       0.250
   0.00000000  0.50000000  0.00000000       0.250
   0.50000000  0.50000000  0.00000000       0.250
 
 position of ions in fractional coordinates (direct lattice) 
   0.78460202  0.86942437  0.33104184
   0.03471948  0.86917484  0.33108799
   0.03439059  0.61948091  0.33121490
   0.78733492  0.86749523  0.01523082
   0.03673208  0.86815209  0.01535276
   0.03739891  0.61764094  0.01549949
   0.61941900  0.20169904  0.12217373
   0.36938093  0.95174631  0.12221038
   0.03444223  0.36941535  0.33118907
   0.03702010  0.36745839  0.01555774
   0.86934911  0.20181162  0.12209130
   0.95194317  0.53567909  0.22670486
   0.28443060  0.11948387  0.33117809
   0.53449229  0.61952214  0.33111408
   0.28443401  0.36937314  0.33130768
   0.28737660  0.11753303  0.01550924
   0.53702832  0.61771822  0.01545760
   0.28693064  0.36792243  0.01556465
   0.61943497  0.95173808  0.12211587
   0.70189911  0.78570574  0.22657695
   0.86940703  0.70182631  0.12219375
   0.61953607  0.45176385  0.12219931
   0.28459524  0.86939772  0.33114715
   0.28717383  0.86744177  0.01548949
   0.61948838  0.70181040  0.12212616
   0.20178829  0.03574092  0.22667984
   0.86767668  0.95299131  0.43777763
   0.11736206  0.45313614  0.43827748
   0.11723202  0.95275797  0.43791956
   0.86757311  0.45276928  0.43795304
   0.36693159  0.95312888  0.43801396
   0.86718872  0.20324097  0.43796057
   0.11735535  0.20308942  0.43802247
   0.61754911  0.95307824  0.43784474
   0.86687908  0.70304668  0.43793629
   0.36744480  0.20259011  0.43807574
   0.36768544  0.70299363  0.43803073
   0.61712526  0.45292902  0.43793947
   0.11743416  0.70267144  0.43804613
   0.61715128  0.20317097  0.43781026
   0.53421501  0.36954015  0.33109870
   0.53764747  0.36735834  0.01540351
   0.53441732  0.11957078  0.33106874
   0.53692745  0.11791937  0.01532902
   0.86937812  0.45188028  0.12227324
   0.11945845  0.45174610  0.12236839
   0.03446423  0.11946648  0.33115538
   0.03719573  0.11752701  0.01532315
   0.11937961  0.95178010  0.12226301
   0.36700341  0.45310033  0.43822921
   0.45191114  0.53564090  0.22669547
   0.61739361  0.70295653  0.43792788
   0.36931205  0.20184145  0.12230993
   0.11943486  0.20165645  0.12227422
   0.95194788  0.78565151  0.22667928
   0.78438758  0.61946645  0.33107937
   0.28448596  0.61947638  0.33125801
   0.78708788  0.61795672  0.01535737
   0.28732088  0.61755253  0.01548736
   0.36933846  0.70176128  0.12228077
   0.36953671  0.45180494  0.12225763
   0.20168847  0.28577337  0.22678364
   0.78430361  0.36947623  0.33108987
   0.78727762  0.36795144  0.01528027
   0.95185159  0.03567865  0.22665351
   0.45193983  0.78576622  0.22664798
   0.70190929  0.53567046  0.22663250
   0.20190143  0.78572194  0.22671908
   0.45183620  0.03565355  0.22671015
   0.11950185  0.70185892  0.12225235
   0.70180079  0.03566071  0.22659523
   0.78440120  0.11958257  0.33101055
   0.53454362  0.86947422  0.33114800
   0.78695369  0.11773815  0.01518417
   0.53723470  0.86788574  0.01524724
   0.20188755  0.53568865  0.22674779
   0.95183615  0.28565814  0.22669890
   0.86917361  0.95187802  0.12216451
   0.70178288  0.28565615  0.22659797
   0.45178423  0.28574503  0.22674386
 
 position of ions in cartesian coordinates  (Angst):
  13.24175181  8.17695443  7.28292057
   5.09667279  8.17460764  7.28393585
   3.73726306  5.82623093  7.28672790
  13.26095590  8.15881083  0.33507807
   5.11297611  8.16498862  0.33776072
   3.75994234  5.80892606  0.34098870
   7.82211584  1.89698371  2.68782199
   9.17945909  8.95119401  2.68862835
   2.37996793  3.47435910  7.28615957
   2.39733730  3.45595385  0.34227027
  10.53696807  1.89804252  2.68600860
  13.24683992  5.03807311  4.98750688
   3.73771357  1.12374833  7.28591805
   9.16859121  5.82661874  7.28450976
   5.09464929  3.47396214  7.28876892
   3.75911407  1.10540064  0.34120328
   9.18633719  5.80965284  0.34006724
   5.11388541  3.46031814  0.34242222
  11.89500118  8.95111664  2.68654907
  11.88900611  7.38957897  4.98469300
  13.25267678  6.60069121  2.68826241
   9.18123914  4.24884848  2.68838491
   7.81153375  8.17670385  7.28523724
   7.82891632  8.15830809  0.34076870
  10.53847399  6.60054159  2.68677561
   2.38549393  0.33614409  4.98695642
  14.59771113  8.96290325  9.63110792
   3.73508114  4.26175492  9.64210463
   6.44661533  8.96070876  9.63423030
  11.88038077  4.25830458  9.63496697
   9.16036653  8.96419710  9.63630720
  10.52126767  1.91148560  9.63513246
   2.37725453  1.91006022  9.63649440
  11.88179786  8.96372088  9.63258428
  13.23184987  6.61216875  9.63459831
   5.09051466  1.90536427  9.63766629
   7.81031902  6.61166988  9.63667613
   9.16138455  4.25980690  9.63466838
   5.09084072  6.60863965  9.63701483
   7.80548095  1.91082719  9.63182582
   7.80817780  3.47553292  7.28417139
   7.83360705  3.45501291  0.33887725
   6.45304117  1.12456566  7.28351236
   6.47133404  1.10903416  0.33723846
  11.89515588  4.24994352  2.69001121
   3.75030003  4.24868158  2.69210459
   1.02298444  1.12358471  7.28541834
   1.04211725  1.10534403  0.33710926
   6.46462835  8.95151184  2.68978619
   6.44599168  4.26141814  9.64104264
   7.81628483  5.03771389  4.98730032
  10.52194820  6.61132088  9.63441329
   5.10672776  1.89832305  2.69081852
   2.39205696  1.89658310  2.69003282
  14.60424121  7.38906892  4.98694409
  11.88215154  5.82609499  7.28374611
   6.45327406  5.82618837  7.28767631
  11.90327900  5.81189588  0.33786219
   6.47361485  5.80809453  0.34072184
   7.82157922  6.60007959  2.69017696
   6.46646926  4.24923491  2.68966790
   3.74208601  2.68770452  4.98924002
  10.52379285  3.47493174  7.28397716
  10.54781091  3.46059099  0.33616588
  10.53084302  0.33555845  4.98637729
   9.17477681  7.39014776  4.98625546
  10.53142512  5.03799195  4.98591494
   6.45911949  7.38973130  4.98781975
   5.10053980  0.33532240  4.98762324
   5.10888391  6.60099788  2.68955175
   7.81519403  0.33538974  4.98509504
   9.16793009  1.12467659  7.28223219
  10.52638836  8.17742329  7.28525606
   9.18563496  1.10732978  0.33405177
  10.54698811  8.16248359  0.33543937
   5.10128798  5.03816298  4.98845147
  11.88806395  2.68662085  4.98737589
  14.60792265  8.95243280  2.68761932
   9.17247466  2.68660211  4.98515524
   6.45797200  2.68743802  4.98836492
 


--------------------------------------------------------------------------------------------------------


 k-point  1 :   0.0000 0.0000 0.0000  plane waves:   65767
 k-point  2 :   0.5000 0.0000 0.0000  plane waves:   65808
 k-point  3 :   0.0000 0.5000 0.0000  plane waves:   65808
 k-point  4 :   0.5000 0.5000 0.0000  plane waves:   65808

 maximum and minimum number of plane-waves per node :     16481    16415

 maximum number of plane-waves:     65808
 maximum index in each direction: 
   IXMAX=   20   IYMAX=   20   IZMAX=   42
   IXMIN=  -21   IYMIN=  -21   IZMIN=  -42


 real space projection operators:
  total allocation   :      79822.83 KBytes
  max/ min on nodes  :      19957.78      19953.42


 parallel 3D FFT for wavefunctions:
    minimum data exchange during FFTs selected (reduces bandwidth)
 parallel 3D FFT for charge:
    minimum data exchange during FFTs selected (reduces bandwidth)


 total amount of memory used by VASP MPI-rank0   239305. kBytes
=======================================================================

   base      :      30000. kBytes
   nonlr-proj:      34577. kBytes
   fftplans  :      17974. kBytes
   grid      :      44179. kBytes
   one-center:        622. kBytes
   wavefun   :     111953. kBytes
 
     INWAV:  cpu time    0.0001: real time    0.0001
 Broyden mixing: mesh for mixing (old mesh)
   NGX = 41   NGY = 41   NGZ = 85
  (NGX  =168   NGY  =168   NGZ  =336)
  gives a total of 142885 points

 initial charge density was supplied:
 charge density of overlapping atoms calculated
 number of electron     800.0000000 magnetization      80.0000000
 keeping initial charge density in first step


--------------------------------------------------------------------------------------------------------


 Maximum index for non-local projection operator         1794
 Maximum index for augmentation-charges         2011 (set IRDMAX)


--------------------------------------------------------------------------------------------------------


 First call to EWALD:  gamma=   0.135
 Maximum number of real-space cells 4x 4x 2
 Maximum number of reciprocal cells 2x 2x 4

    FEWALD:  cpu time    0.0047: real time    0.0047


--------------------------------------- Iteration      1(   1)  ---------------------------------------


    POTLOK:  cpu time    0.4147: real time    0.4364
    SETDIJ:  cpu time    0.0333: real time    0.0337
     EDDAV:  cpu time   59.9924: real time   60.1641
       DOS:  cpu time    0.0023: real time    0.0024
    --------------------------------------------
      LOOP:  cpu time   60.4427: real time   60.6367

 eigenvalue-minimisations  :  8320
 total energy-change (2. order) : 0.5602255E+04  (-0.3934721E+05)
 number of electron     800.0000000 magnetization      80.0000000
 augmentation part      800.0000000 magnetization      80.0000000

 Free energy of the ion-electron system (eV)
  ---------------------------------------------------
  alpha Z        PSCENC =      2707.43229196
  Ewald energy   TEWEN  =    175175.60590310
  -Hartree energ DENC   =   -239754.42914352
  -exchange      EXHF   =         0.00000000
  -V(xc)+E(xc)   XCENC  =       297.79116984
  PAW double counting   =     55683.70208444   -53421.37691584
  entropy T*S    EENTRO =        -0.00617549
  eigenvalues    EBANDS =      6584.29154768
  atomic energy  EATOM  =     58329.24398462
  Solvation  Ediel_sol  =         0.00000000
  ---------------------------------------------------
  free energy    TOTEN  =      5602.25474679 eV

  energy without entropy =     5602.26092228  energy(sigma->0) =     5602.25680529


--------------------------------------------------------------------------------------------------------




--------------------------------------- Iteration      1(   2)  ---------------------------------------


     EDDAV:  cpu time   65.0357: real time   65.2579
       DOS:  cpu time    0.0019: real time    0.0019
    --------------------------------------------
      LOOP:  cpu time   65.0376: real time   65.2598

 eigenvalue-minimisations  :  9270
 total energy-change (2. order) :-0.5785980E+04  (-0.5321454E+04)
 number of electron     800.0000000 magnetization      80.0000000
 augmentation part      800.0000000 magnetization      80.0000000

 Free energy of the ion-electron system (eV)
  ---------------------------------------------------
  alpha Z        PSCENC =      2707.43229196
  Ewald energy   TEWEN  =    175175.60590310
  -Hartree energ DENC   =   -239754.42914352
  -exchange      EXHF   =         0.00000000
  -V(xc)+E(xc)   XCENC  =       297.79116984
  PAW double counting   =     55683.70208444   -53421.37691584
  entropy T*S    EENTRO =         0.00003388
  eigenvalues    EBANDS =       798.30487044
  atomic energy  EATOM  =     58329.24398462
  Solvation  Ediel_sol  =         0.00000000
  ---------------------------------------------------
  free energy    TOTEN  =      -183.72572108 eV

  energy without entropy =     -183.72575496  energy(sigma->0) =     -183.72573237


--------------------------------------------------------------------------------------------------------




--------------------------------------- Iteration      1(   3)  ---------------------------------------


     EDDAV:  cpu time   65.7600: real time   65.9354
       DOS:  cpu time    0.0021: real time    0.0021
    --------------------------------------------
      LOOP:  cpu time   65.7621: real time   65.9375

 eigenvalue-minimisations  :  9380
 total energy-change (2. order) :-0.3001445E+03  (-0.2760028E+03)
 number of electron     800.0000000 magnetization      80.0000000
 augmentation part      800.0000000 magnetization      80.0000000

 Free energy of the ion-electron system (eV)
  ---------------------------------------------------
  alpha Z        PSCENC =      2707.43229196
  Ewald energy   TEWEN  =    175175.60590310
  -Hartree energ DENC   =   -239754.42914352
  -exchange      EXHF   =         0.00000000
  -V(xc)+E(xc)   XCENC  =       297.79116984
  PAW double counting   =     55683.70208444   -53421.37691584
  entropy T*S    EENTRO =        -0.03776262
  eigenvalues    EBANDS =       498.19815085
  atomic energy  EATOM  =     58329.24398462
  Solvation  Ediel_sol  =         0.00000000
  ---------------------------------------------------
  free energy    TOTEN  =      -483.87023718 eV

  energy without entropy =     -483.83247455  energy(sigma->0) =     -483.85764964


--------------------------------------------------------------------------------------------------------




--------------------------------------- Iteration      1(   4)  ---------------------------------------


     EDDAV:  cpu time   68.3438: real time   68.5385
       DOS:  cpu time    0.0021: real time    0.0021
    --------------------------------------------
      LOOP:  cpu time   68.3459: real time   68.5406

 eigenvalue-minimisations  :  9870
 total energy-change (2. order) :-0.8462004E+01  (-0.8371374E+01)
 number of electron     800.0000000 magnetization      80.0000000
 augmentation part      800.0000000 magnetization      80.0000000

 Free energy of the ion-electron system (eV)
  ---------------------------------------------------
  alpha Z        PSCENC =      2707.43229196
  Ewald energy   TEWEN  =    175175.60590310
  -Hartree energ DENC   =   -239754.42914352
  -exchange      EXHF   =         0.00000000
  -V(xc)+E(xc)   XCENC  =       297.79116984
  PAW double counting   =     55683.70208444   -53421.37691584
  entropy T*S    EENTRO =        -0.04499523
  eigenvalues    EBANDS =       489.74337903
  atomic energy  EATOM  =     58329.24398462
  Solvation  Ediel_sol  =         0.00000000
  ---------------------------------------------------
  free energy    TOTEN  =      -492.33224160 eV

  energy without entropy =     -492.28724637  energy(sigma->0) =     -492.31724319


--------------------------------------------------------------------------------------------------------




--------------------------------------- Iteration      1(   5)  ---------------------------------------


     EDDAV:  cpu time   67.6467: real time   67.8765
       DOS:  cpu time    0.0021: real time    0.0020
    CHARGE:  cpu time    4.2857: real time    4.2995
    MIXING:  cpu time    0.0100: real time    0.0110
    --------------------------------------------
      LOOP:  cpu time   71.9445: real time   72.1890

 eigenvalue-minimisations  :  9740
 total energy-change (2. order) :-0.2928611E+00  (-0.2921762E+00)
 number of electron     800.0000033 magnetization      75.1395267
 augmentation part      232.5407080 magnetization      53.1739111

 Broyden mixing:
  rms(total) = 0.11264E+02    rms(broyden)= 0.11264E+02
  rms(prec ) = 0.11387E+02
  weight for this iteration     100.00

 Free energy of the ion-electron system (eV)
  ---------------------------------------------------
  alpha Z        PSCENC =      2707.43229196
  Ewald energy   TEWEN  =    175175.60590310
  -Hartree energ DENC   =   -239754.42914352
  -exchange      EXHF   =         0.00000000
  -V(xc)+E(xc)   XCENC  =       297.79116984
  PAW double counting   =     55683.70208444   -53421.37691584
  entropy T*S    EENTRO =        -0.04520891
  eigenvalues    EBANDS =       489.45073166
  atomic energy  EATOM  =     58329.24398462
  Solvation  Ediel_sol  =         0.00000000
  ---------------------------------------------------
  free energy    TOTEN  =      -492.62510266 eV

  energy without entropy =     -492.57989374  energy(sigma->0) =     -492.61003302


--------------------------------------------------------------------------------------------------------




--------------------------------------- Iteration      1(   6)  ---------------------------------------


    POTLOK:  cpu time    0.3980: real time    0.3992
    SETDIJ:  cpu time    0.0324: real time    0.0325
    EDDIAG:  cpu time   10.4466: real time   10.4767
  RMM-DIIS:  cpu time   36.3005: real time   36.3866
    ORTHCH:  cpu time    1.0913: real time    1.0939
       DOS:  cpu time    0.0021: real time    0.0021
    CHARGE:  cpu time    4.2200: real time    4.2300
    MIXING:  cpu time    0.0107: real time    0.0110
    --------------------------------------------
      LOOP:  cpu time   52.5015: real time   52.6319

 eigenvalue-minimisations  :  8344
 total energy-change (2. order) : 0.1160739E+02  (-0.7394538E+01)
 number of electron     800.0000034 magnetization      70.9890365
 augmentation part      244.7687275 magnetization      52.8871866

 Broyden mixing:
  rms(total) = 0.87630E+01    rms(broyden)= 0.87629E+01
  rms(prec ) = 0.96078E+01
  weight for this iteration     100.00

 eigenvalues of (default mixing * dielectric matrix)
  average eigenvalue GAMMA=   0.8034
  0.8034

 Free energy of the ion-electron system (eV)
  ---------------------------------------------------
  alpha Z        PSCENC =      2707.43229196
  Ewald energy   TEWEN  =    175175.60590310
  -Hartree energ DENC   =   -238752.12516929
  -exchange      EXHF   =         0.00000000
  -V(xc)+E(xc)   XCENC  =       279.43155728
  PAW double counting   =     62954.39152220   -60820.61472804
  entropy T*S    EENTRO =        -0.03722188
  eigenvalues    EBANDS =      -354.34585582
  atomic energy  EATOM  =     58329.24398462
  Solvation  Ediel_sol  =         0.00000000
  ---------------------------------------------------
  free energy    TOTEN  =      -481.01771588 eV

  energy without entropy =     -480.98049399  energy(sigma->0) =     -481.00530858


--------------------------------------------------------------------------------------------------------




--------------------------------------- Iteration      1(   7)  ---------------------------------------


    POTLOK:  cpu time    0.3946: real time    0.3956
    SETDIJ:  cpu time    0.0322: real time    0.0323
    EDDIAG:  cpu time   10.3879: real time   10.4126
  RMM-DIIS:  cpu time   35.9847: real time   36.0867
    ORTHCH:  cpu time    1.0857: real time    1.0894
       DOS:  cpu time    0.0019: real time    0.0019
    CHARGE:  cpu time    4.3053: real time    4.3172
    MIXING:  cpu time    0.0091: real time    0.0091
    --------------------------------------------
      LOOP:  cpu time   52.2015: real time   52.3449

 eigenvalue-minimisations  :  8341
 total energy-change (2. order) :-0.1257537E+03  (-0.1495567E+02)
 number of electron     800.0000032 magnetization      63.0986656
 augmentation part      238.7275105 magnetization      50.6773952

 Broyden mixing:
  rms(total) = 0.10722E+02    rms(broyden)= 0.10722E+02
  rms(prec ) = 0.13680E+02
  weight for this iteration     100.00

 eigenvalues of (default mixing * dielectric matrix)
  average eigenvalue GAMMA=   0.8189
  1.3451  0.2927

 Free energy of the ion-electron system (eV)
  ---------------------------------------------------
  alpha Z        PSCENC =      2707.43229196
  Ewald energy   TEWEN  =    175175.60590310
  -Hartree energ DENC   =   -239804.56317128
  -exchange      EXHF   =         0.00000000
  -V(xc)+E(xc)   XCENC  =       273.56555251
  PAW double counting   =     66738.54750983   -64646.33737995
  entropy T*S    EENTRO =         0.01270569
  eigenvalues    EBANDS =       619.72114428
  atomic energy  EATOM  =     58329.24398462
  Solvation  Ediel_sol  =         0.00000000
  ---------------------------------------------------
  free energy    TOTEN  =      -606.77145924 eV

  energy without entropy =     -606.78416493  energy(sigma->0) =     -606.77569447


--------------------------------------------------------------------------------------------------------




--------------------------------------- Iteration      1(   8)  ---------------------------------------


    POTLOK:  cpu time    0.3968: real time    0.3977
    SETDIJ:  cpu time    0.0324: real time    0.0325
    EDDIAG:  cpu time   10.4240: real time   10.4489
  RMM-DIIS:  cpu time   36.1828: real time   36.2684
    ORTHCH:  cpu time    1.0902: real time    1.0928
       DOS:  cpu time    0.0020: real time    0.0020
    CHARGE:  cpu time    4.2679: real time    4.2781
    MIXING:  cpu time    0.0112: real time    0.0113
    --------------------------------------------
      LOOP:  cpu time   52.4073: real time   52.5317

 eigenvalue-minimisations  :  8366
 total energy-change (2. order) : 0.1392079E+03  (-0.7222702E+01)
 number of electron     800.0000036 magnetization      58.9469889
 augmentation part      249.0625984 magnetization      47.2146562

 Broyden mixing:
  rms(total) = 0.46036E+01    rms(broyden)= 0.46036E+01
  rms(prec ) = 0.51304E+01
  weight for this iteration     100.00

 eigenvalues of (default mixing * dielectric matrix)
  average eigenvalue GAMMA=   0.9449
  2.0014  0.5823  0.2512

 Free energy of the ion-electron system (eV)
  ---------------------------------------------------
  alpha Z        PSCENC =      2707.43229196
  Ewald energy   TEWEN  =    175175.60590310
  -Hartree energ DENC   =   -238864.88013439
  -exchange      EXHF   =         0.00000000
  -V(xc)+E(xc)   XCENC  =       273.91490415
  PAW double counting   =     72483.77009834   -70467.07041315
  entropy T*S    EENTRO =        -0.01550163
  eigenvalues    EBANDS =      -105.56469444
  atomic energy  EATOM  =     58329.24398462
  Solvation  Ediel_sol  =         0.00000000
  ---------------------------------------------------
  free energy    TOTEN  =      -467.56356143 eV

  energy without entropy =     -467.54805980  energy(sigma->0) =     -467.55839422


--------------------------------------------------------------------------------------------------------




--------------------------------------- Iteration      1(   9)  ---------------------------------------


    POTLOK:  cpu time    0.3937: real time    0.3946
    SETDIJ:  cpu time    0.0323: real time    0.0324
    EDDIAG:  cpu time   10.3698: real time   10.3946
  RMM-DIIS:  cpu time   36.0110: real time   36.0989
    ORTHCH:  cpu time    1.0897: real time    1.0923
       DOS:  cpu time    0.0020: real time    0.0020
    CHARGE:  cpu time    4.2185: real time    4.2285
    MIXING:  cpu time    0.0113: real time    0.0113
    --------------------------------------------
      LOOP:  cpu time   52.1283: real time   52.2546

 eigenvalue-minimisations  :  8350
 total energy-change (2. order) : 0.1160523E+02  (-0.6086445E+01)
 number of electron     800.0000036 magnetization      55.6681548
 augmentation part      248.9242465 magnetization      39.8308853

 Broyden mixing:
  rms(total) = 0.44065E+01    rms(broyden)= 0.44065E+01
  rms(prec ) = 0.47218E+01
  weight for this iteration     100.00

 eigenvalues of (default mixing * dielectric matrix)
  average eigenvalue GAMMA=   0.8454
  2.2479  0.4923  0.2407  0.4007

 Free energy of the ion-electron system (eV)
  ---------------------------------------------------
  alpha Z        PSCENC =      2707.43229196
  Ewald energy   TEWEN  =    175175.60590310
  -Hartree energ DENC   =   -238803.96169496
  -exchange      EXHF   =         0.00000000
  -V(xc)+E(xc)   XCENC  =       276.31386438
  PAW double counting   =     73702.33071399   -71692.81130647
  entropy T*S    EENTRO =         0.04692866
  eigenvalues    EBANDS =      -150.15902167
  atomic energy  EATOM  =     58329.24398462
  Solvation  Ediel_sol  =         0.00000000
  ---------------------------------------------------
  free energy    TOTEN  =      -455.95833639 eV

  energy without entropy =     -456.00526505  energy(sigma->0) =     -455.97397928


--------------------------------------------------------------------------------------------------------




--------------------------------------- Iteration      1(  10)  ---------------------------------------


    POTLOK:  cpu time    0.3966: real time    0.3976
    SETDIJ:  cpu time    0.0326: real time    0.0327
    EDDIAG:  cpu time   10.3709: real time   10.3957
  RMM-DIIS:  cpu time   36.3414: real time   36.4274
    ORTHCH:  cpu time    1.0882: real time    1.0907
       DOS:  cpu time    0.0019: real time    0.0019
    CHARGE:  cpu time    4.2237: real time    4.2338
    MIXING:  cpu time    0.0115: real time    0.0116
    --------------------------------------------
      LOOP:  cpu time   52.4669: real time   52.5914

 eigenvalue-minimisations  :  8377
 total energy-change (2. order) : 0.6133497E+01  (-0.9862579E+00)
 number of electron     800.0000036 magnetization      55.0329393
 augmentation part      248.3457068 magnetization      37.3158176

 Broyden mixing:
  rms(total) = 0.23568E+01    rms(broyden)= 0.23568E+01
  rms(prec ) = 0.35727E+01
  weight for this iteration     100.00

 eigenvalues of (default mixing * dielectric matrix)
  average eigenvalue GAMMA=   0.7549
  2.2149  0.5163  0.5163  0.2634  0.2634

 Free energy of the ion-electron system (eV)
  ---------------------------------------------------
  alpha Z        PSCENC =      2707.43229196
  Ewald energy   TEWEN  =    175175.60590310
  -Hartree energ DENC   =   -238873.17185625
  -exchange      EXHF   =         0.00000000
  -V(xc)+E(xc)   XCENC  =       275.51051692
  PAW double counting   =     74542.05249854   -72537.16463504
  entropy T*S    EENTRO =        -0.08315686
  eigenvalues    EBANDS =       -69.25038636
  atomic energy  EATOM  =     58329.24398462
  Solvation  Ediel_sol  =         0.00000000
  ---------------------------------------------------
  free energy    TOTEN  =      -449.82483936 eV

  energy without entropy =     -449.74168251  energy(sigma->0) =     -449.79712041


--------------------------------------------------------------------------------------------------------




--------------------------------------- Iteration      1(  11)  ---------------------------------------


    POTLOK:  cpu time    0.4241: real time    0.4251
    SETDIJ:  cpu time    0.0422: real time    0.0423
    EDDIAG:  cpu time   10.4426: real time   10.4684
  RMM-DIIS:  cpu time   36.3213: real time   36.4073
    ORTHCH:  cpu time    1.0928: real time    1.0954
       DOS:  cpu time    0.0020: real time    0.0020
    CHARGE:  cpu time    4.2533: real time    4.2634
    MIXING:  cpu time    0.0119: real time    0.0119
    --------------------------------------------
      LOOP:  cpu time   52.5903: real time   52.7159

 eigenvalue-minimisations  :  8388
 total energy-change (2. order) :-0.1228862E+02  (-0.2798572E+00)
 number of electron     800.0000034 magnetization      51.3734142
 augmentation part      247.9749027 magnetization      36.9179374

 Broyden mixing:
  rms(total) = 0.41769E+01    rms(broyden)= 0.41769E+01
  rms(prec ) = 0.68706E+01
  weight for this iteration     100.00

 eigenvalues of (default mixing * dielectric matrix)
  average eigenvalue GAMMA=   0.7220
  2.1368  0.7695  0.7695  0.3373  0.2451  0.0737

 Free energy of the ion-electron system (eV)
  ---------------------------------------------------
  alpha Z        PSCENC =      2707.43229196
  Ewald energy   TEWEN  =    175175.60590310
  -Hartree energ DENC   =   -238894.33332952
  -exchange      EXHF   =         0.00000000
  -V(xc)+E(xc)   XCENC  =       274.99611741
  PAW double counting   =     74499.26929070   -72493.43614430
  entropy T*S    EENTRO =         0.09596861
  eigenvalues    EBANDS =       -60.98753964
  atomic energy  EATOM  =     58329.24398462
  Solvation  Ediel_sol  =         0.00000000
  ---------------------------------------------------
  free energy    TOTEN  =      -462.11345706 eV

  energy without entropy =     -462.20942567  energy(sigma->0) =     -462.14544660


--------------------------------------------------------------------------------------------------------




--------------------------------------- Iteration      1(  12)  ---------------------------------------


    POTLOK:  cpu time    0.3944: real time    0.3954
    SETDIJ:  cpu time    0.0327: real time    0.0328
    EDDIAG:  cpu time   10.4845: real time   10.5095
  RMM-DIIS:  cpu time   36.4795: real time   36.5659
    ORTHCH:  cpu time    1.0899: real time    1.0925
       DOS:  cpu time    0.0021: real time    0.0021
    CHARGE:  cpu time    4.2412: real time    4.2513
    MIXING:  cpu time    0.0120: real time    0.0121
    --------------------------------------------
      LOOP:  cpu time   52.7364: real time   52.8616

 eigenvalue-minimisations  :  8383
 total energy-change (2. order) : 0.7750346E+01  (-0.3578911E+00)
 number of electron     800.0000036 magnetization      49.8392118
 augmentation part      247.2033150 magnetization      31.2028699

 Broyden mixing:
  rms(total) = 0.16453E+01    rms(broyden)= 0.16453E+01
  rms(prec ) = 0.19281E+01
  weight for this iteration     100.00

 eigenvalues of (default mixing * dielectric matrix)
  average eigenvalue GAMMA=   0.7221
  1.9189  1.0226  1.0226  0.4461  0.3374  0.2381  0.0695

 Free energy of the ion-electron system (eV)
  ---------------------------------------------------
  alpha Z        PSCENC =      2707.43229196
  Ewald energy   TEWEN  =    175175.60590310
  -Hartree energ DENC   =   -239000.41920529
  -exchange      EXHF   =         0.00000000
  -V(xc)+E(xc)   XCENC  =       273.54226646
  PAW double counting   =     74310.34094379   -72300.34286618
  entropy T*S    EENTRO =         0.07663193
  eigenvalues    EBANDS =        50.15693855
  atomic energy  EATOM  =     58329.24398462
  Solvation  Ediel_sol  =         0.00000000
  ---------------------------------------------------
  free energy    TOTEN  =      -454.36311105 eV

  energy without entropy =     -454.43974298  energy(sigma->0) =     -454.38865503


--------------------------------------------------------------------------------------------------------




--------------------------------------- Iteration      1(  13)  ---------------------------------------


    POTLOK:  cpu time    0.3948: real time    0.3958
    SETDIJ:  cpu time    0.0331: real time    0.0332
    EDDIAG:  cpu time   10.4144: real time   10.4391
  RMM-DIIS:  cpu time   36.6078: real time   36.6945
    ORTHCH:  cpu time    1.0906: real time    1.0931
       DOS:  cpu time    0.0019: real time    0.0019
    CHARGE:  cpu time    4.2503: real time    4.2604
    MIXING:  cpu time    0.0125: real time    0.0126
    --------------------------------------------
      LOOP:  cpu time   52.8054: real time   52.9306

 eigenvalue-minimisations  :  8378
 total energy-change (2. order) :-0.2585067E+01  (-0.1928184E+00)
 number of electron     800.0000035 magnetization      47.1893758
 augmentation part      247.0089615 magnetization      29.1390955

 Broyden mixing:
  rms(total) = 0.11999E+01    rms(broyden)= 0.11999E+01
  rms(prec ) = 0.13672E+01
  weight for this iteration     100.00

 eigenvalues of (default mixing * dielectric matrix)
  average eigenvalue GAMMA=   0.7285
  1.6997  1.6997  0.9896  0.5340  0.2991  0.2991  0.2371  0.0699

 Free energy of the ion-electron system (eV)
  ---------------------------------------------------
  alpha Z        PSCENC =      2707.43229196
  Ewald energy   TEWEN  =    175175.60590310
  -Hartree energ DENC   =   -238993.77944724
  -exchange      EXHF   =         0.00000000
  -V(xc)+E(xc)   XCENC  =       272.04623286
  PAW double counting   =     74125.11686114   -72112.76931716
  entropy T*S    EENTRO =         0.11975630
  eigenvalues    EBANDS =        40.03555682
  atomic energy  EATOM  =     58329.24398462
  Solvation  Ediel_sol  =         0.00000000
  ---------------------------------------------------
  free energy    TOTEN  =      -456.94817759 eV

  energy without entropy =     -457.06793389  energy(sigma->0) =     -456.98809636


--------------------------------------------------------------------------------------------------------




--------------------------------------- Iteration      1(  14)  ---------------------------------------


    POTLOK:  cpu time    0.3976: real time    0.3985
    SETDIJ:  cpu time    0.0330: real time    0.0331
    EDDIAG:  cpu time   10.4014: real time   10.4261
  RMM-DIIS:  cpu time   36.5863: real time   36.6845
    ORTHCH:  cpu time    1.0876: real time    1.0911
       DOS:  cpu time    0.0019: real time    0.0019
    CHARGE:  cpu time    4.3026: real time    4.3165
    MIXING:  cpu time    0.0135: real time    0.0136
    --------------------------------------------
      LOOP:  cpu time   52.8239: real time   52.9653

 eigenvalue-minimisations  :  8378
 total energy-change (2. order) :-0.2424036E+01  (-0.1580041E+00)
 number of electron     800.0000035 magnetization      45.5659106
 augmentation part      247.0280228 magnetization      28.8232867

 Broyden mixing:
  rms(total) = 0.91601E+00    rms(broyden)= 0.91601E+00
  rms(prec ) = 0.10218E+01
  weight for this iteration     100.00

 eigenvalues of (default mixing * dielectric matrix)
  average eigenvalue GAMMA=   0.7218
  1.8126  1.8126  0.8065  0.7355  0.3980  0.3980  0.2413  0.2214  0.0699

 Free energy of the ion-electron system (eV)
  ---------------------------------------------------
  alpha Z        PSCENC =      2707.43229196
  Ewald energy   TEWEN  =    175175.60590310
  -Hartree energ DENC   =   -238981.24651023
  -exchange      EXHF   =         0.00000000
  -V(xc)+E(xc)   XCENC  =       270.61624038
  PAW double counting   =     73995.31753274   -71981.80519061
  entropy T*S    EENTRO =         0.13790590
  eigenvalues    EBANDS =        25.32562874
  atomic energy  EATOM  =     58329.24398462
  Solvation  Ediel_sol  =         0.00000000
  ---------------------------------------------------
  free energy    TOTEN  =      -459.37221340 eV

  energy without entropy =     -459.51011930  energy(sigma->0) =     -459.41818203


--------------------------------------------------------------------------------------------------------




--------------------------------------- Iteration      1(  15)  ---------------------------------------


    POTLOK:  cpu time    0.3979: real time    0.3994
    SETDIJ:  cpu time    0.0329: real time    0.0330
    EDDIAG:  cpu time   10.3527: real time   10.3875
  RMM-DIIS:  cpu time   36.5273: real time   36.6486
    ORTHCH:  cpu time    1.0891: real time    1.0926
       DOS:  cpu time    0.0020: real time    0.0020
    CHARGE:  cpu time    4.2723: real time    4.2864
    MIXING:  cpu time    0.0127: real time    0.0128
    --------------------------------------------
      LOOP:  cpu time   52.6869: real time   52.8622

 eigenvalue-minimisations  :  8384
 total energy-change (2. order) :-0.5653930E+00  (-0.1879937E-01)
 number of electron     800.0000035 magnetization      40.5658854
 augmentation part      247.0930795 magnetization      23.5791728

 Broyden mixing:
  rms(total) = 0.62042E+00    rms(broyden)= 0.62042E+00
  rms(prec ) = 0.66530E+00
  weight for this iteration     100.00

 eigenvalues of (default mixing * dielectric matrix)
  average eigenvalue GAMMA=   0.7625
  1.9604  1.9604  0.8616  0.8616  0.5485  0.5485  0.3424  0.2458  0.2262  0.0699

 Free energy of the ion-electron system (eV)
  ---------------------------------------------------
  alpha Z        PSCENC =      2707.43229196
  Ewald energy   TEWEN  =    175175.60590310
  -Hartree energ DENC   =   -238981.35290237
  -exchange      EXHF   =         0.00000000
  -V(xc)+E(xc)   XCENC  =       269.90290294
  PAW double counting   =     74074.56756606   -72062.30376103
  entropy T*S    EENTRO =         0.11717183
  eigenvalues    EBANDS =        26.84923646
  atomic energy  EATOM  =     58329.24398462
  Solvation  Ediel_sol  =         0.00000000
  ---------------------------------------------------
  free energy    TOTEN  =      -459.93760643 eV

  energy without entropy =     -460.05477826  energy(sigma->0) =     -459.97666370


--------------------------------------------------------------------------------------------------------




--------------------------------------- Iteration      1(  16)  ---------------------------------------


    POTLOK:  cpu time    0.4016: real time    0.4031
    SETDIJ:  cpu time    0.0329: real time    0.0330
    EDDIAG:  cpu time   10.4280: real time   10.4629
  RMM-DIIS:  cpu time   36.3996: real time   36.5291
    ORTHCH:  cpu time    1.0922: real time    1.0955
       DOS:  cpu time    0.0021: real time    0.0022
    CHARGE:  cpu time    4.2748: real time    4.2890
    MIXING:  cpu time    0.0133: real time    0.0134
    --------------------------------------------
      LOOP:  cpu time   52.6446: real time   52.8284

 eigenvalue-minimisations  :  8351
 total energy-change (2. order) :-0.3048084E+01  (-0.1410457E+00)
 number of electron     800.0000035 magnetization      37.2177612
 augmentation part      247.2456455 magnetization      21.0583355

 Broyden mixing:
  rms(total) = 0.43583E+00    rms(broyden)= 0.43582E+00
  rms(prec ) = 0.46638E+00
  weight for this iteration     100.00

 eigenvalues of (default mixing * dielectric matrix)
  average eigenvalue GAMMA=   0.8908
  2.8291  2.1817  1.0457  1.0457  0.6770  0.6770  0.4460  0.3578  0.2438  0.2253
  0.0699

 Free energy of the ion-electron system (eV)
  ---------------------------------------------------
  alpha Z        PSCENC =      2707.43229196
  Ewald energy   TEWEN  =    175175.60590310
  -Hartree energ DENC   =   -238978.49007320
  -exchange      EXHF   =         0.00000000
  -V(xc)+E(xc)   XCENC  =       267.68332721
  PAW double counting   =     74216.89326261   -72206.55225979
  entropy T*S    EENTRO =         0.07161104
  eigenvalues    EBANDS =        25.12626227
  atomic energy  EATOM  =     58329.24398462
  Solvation  Ediel_sol  =         0.00000000
  ---------------------------------------------------
  free energy    TOTEN  =      -462.98569018 eV

  energy without entropy =     -463.05730122  energy(sigma->0) =     -463.00956052


--------------------------------------------------------------------------------------------------------




--------------------------------------- Iteration      1(  17)  ---------------------------------------


    POTLOK:  cpu time    0.4008: real time    0.4020
    SETDIJ:  cpu time    0.0330: real time    0.0331
    EDDIAG:  cpu time   10.4096: real time   10.4456
  RMM-DIIS:  cpu time   36.3973: real time   36.5287
    ORTHCH:  cpu time    1.0917: real time    1.0957
       DOS:  cpu time    0.0020: real time    0.0020
    CHARGE:  cpu time    4.2673: real time    4.2814
    MIXING:  cpu time    0.0136: real time    0.0136
    --------------------------------------------
      LOOP:  cpu time   52.6154: real time   52.8020

 eigenvalue-minimisations  :  8355
 total energy-change (2. order) :-0.1678295E+01  (-0.8893150E-01)
 number of electron     800.0000035 magnetization      34.9462121
 augmentation part      247.2771785 magnetization      19.7594249

 Broyden mixing:
  rms(total) = 0.59346E+00    rms(broyden)= 0.59346E+00
  rms(prec ) = 0.67790E+00
  weight for this iteration     100.00

 eigenvalues of (default mixing * dielectric matrix)
  average eigenvalue GAMMA=   0.9298
  3.8579  2.0454  1.1679  1.1679  0.6711  0.6711  0.4406  0.3593  0.0699  0.2250
  0.2408  0.2408

 Free energy of the ion-electron system (eV)
  ---------------------------------------------------
  alpha Z        PSCENC =      2707.43229196
  Ewald energy   TEWEN  =    175175.60590310
  -Hartree energ DENC   =   -238977.25096004
  -exchange      EXHF   =         0.00000000
  -V(xc)+E(xc)   XCENC  =       266.70829474
  PAW double counting   =     74249.42581892   -72238.91211069
  entropy T*S    EENTRO =         0.05725932
  eigenvalues    EBANDS =        23.02553337
  atomic energy  EATOM  =     58329.24398462
  Solvation  Ediel_sol  =         0.00000000
  ---------------------------------------------------
  free energy    TOTEN  =      -464.66398470 eV

  energy without entropy =     -464.72124402  energy(sigma->0) =     -464.68307114


--------------------------------------------------------------------------------------------------------




--------------------------------------- Iteration      1(  18)  ---------------------------------------


    POTLOK:  cpu time    0.4001: real time    0.4011
    SETDIJ:  cpu time    0.0330: real time    0.0331
    EDDIAG:  cpu time   10.4062: real time   10.4408
  RMM-DIIS:  cpu time   36.4579: real time   36.5501
    ORTHCH:  cpu time    1.0868: real time    1.0894
       DOS:  cpu time    0.0021: real time    0.0021
    CHARGE:  cpu time    4.2731: real time    4.2834
    MIXING:  cpu time    0.0142: real time    0.0142
    --------------------------------------------
      LOOP:  cpu time   52.6734: real time   52.8142

 eigenvalue-minimisations  :  8367
 total energy-change (2. order) :-0.5025154E+00  (-0.3228599E-01)
 number of electron     800.0000035 magnetization      33.6680048
 augmentation part      247.2753791 magnetization      19.0003179

 Broyden mixing:
  rms(total) = 0.40896E+00    rms(broyden)= 0.40896E+00
  rms(prec ) = 0.45769E+00
  weight for this iteration     100.00

 eigenvalues of (default mixing * dielectric matrix)
  average eigenvalue GAMMA=   0.9341
  4.1792  2.0240  1.2718  1.2718  0.6724  0.6724  0.4708  0.4708  0.3529  0.0699
  0.2442  0.2253  0.2179

 Free energy of the ion-electron system (eV)
  ---------------------------------------------------
  alpha Z        PSCENC =      2707.43229196
  Ewald energy   TEWEN  =    175175.60590310
  -Hartree energ DENC   =   -238977.69564570
  -exchange      EXHF   =         0.00000000
  -V(xc)+E(xc)   XCENC  =       266.26546976
  PAW double counting   =     74273.25478675   -72262.45726192
  entropy T*S    EENTRO =         0.04725386
  eigenvalues    EBANDS =        23.13671747
  atomic energy  EATOM  =     58329.24398462
  Solvation  Ediel_sol  =         0.00000000
  ---------------------------------------------------
  free energy    TOTEN  =      -465.16650009 eV

  energy without entropy =     -465.21375395  energy(sigma->0) =     -465.18225138


--------------------------------------------------------------------------------------------------------




--------------------------------------- Iteration      1(  19)  ---------------------------------------


    POTLOK:  cpu time    0.3991: real time    0.4000
    SETDIJ:  cpu time    0.0330: real time    0.0331
    EDDIAG:  cpu time   10.3902: real time   10.4151
  RMM-DIIS:  cpu time   36.3275: real time   36.4136
    ORTHCH:  cpu time    1.0952: real time    1.0977
       DOS:  cpu time    0.0020: real time    0.0020
    CHARGE:  cpu time    4.2745: real time    4.2846
    MIXING:  cpu time    0.0146: real time    0.0146
    --------------------------------------------
      LOOP:  cpu time   52.5361: real time   52.6607

 eigenvalue-minimisations  :  8357
 total energy-change (2. order) :-0.2336590E+00  (-0.9089603E-02)
 number of electron     800.0000035 magnetization      31.4500060
 augmentation part      247.2570593 magnetization      17.0474440

 Broyden mixing:
  rms(total) = 0.33861E+00    rms(broyden)= 0.33861E+00
  rms(prec ) = 0.37258E+00
  weight for this iteration     100.00

 eigenvalues of (default mixing * dielectric matrix)
  average eigenvalue GAMMA=   0.9577
  4.6472  2.0394  1.3783  1.3783  0.7285  0.7285  0.5087  0.5087  0.3865  0.3510
  0.0699  0.2441  0.2257  0.2126

 Free energy of the ion-electron system (eV)
  ---------------------------------------------------
  alpha Z        PSCENC =      2707.43229196
  Ewald energy   TEWEN  =    175175.60590310
  -Hartree energ DENC   =   -238977.98601535
  -exchange      EXHF   =         0.00000000
  -V(xc)+E(xc)   XCENC  =       265.96810327
  PAW double counting   =     74287.81795905   -72276.75618434
  entropy T*S    EENTRO =         0.03036468
  eigenvalues    EBANDS =        23.24343388
  atomic energy  EATOM  =     58329.24398462
  Solvation  Ediel_sol  =         0.00000000
  ---------------------------------------------------
  free energy    TOTEN  =      -465.40015912 eV

  energy without entropy =     -465.43052380  energy(sigma->0) =     -465.41028068


--------------------------------------------------------------------------------------------------------




--------------------------------------- Iteration      1(  20)  ---------------------------------------


    POTLOK:  cpu time    0.4018: real time    0.4027
    SETDIJ:  cpu time    0.0330: real time    0.0330
    EDDIAG:  cpu time   10.5321: real time   10.5576
  RMM-DIIS:  cpu time   36.5178: real time   36.6044
    ORTHCH:  cpu time    1.0913: real time    1.0939
       DOS:  cpu time    0.0020: real time    0.0020
    CHARGE:  cpu time    4.2773: real time    4.2875
    MIXING:  cpu time    0.0147: real time    0.0147
    --------------------------------------------
      LOOP:  cpu time   52.8701: real time   52.9959

 eigenvalue-minimisations  :  8365
 total energy-change (2. order) :-0.1709173E+00  (-0.1011478E-01)
 number of electron     800.0000035 magnetization      28.4842857
 augmentation part      247.2645155 magnetization      14.6140158

 Broyden mixing:
  rms(total) = 0.26105E+00    rms(broyden)= 0.26105E+00
  rms(prec ) = 0.27894E+00
  weight for this iteration     100.00

 eigenvalues of (default mixing * dielectric matrix)
  average eigenvalue GAMMA=   1.1076
  6.5381  2.1863  1.5224  1.5224  0.8650  0.7832  0.7832  0.5831  0.4715  0.3540
  0.0699  0.2441  0.2564  0.2255  0.2091

 Free energy of the ion-electron system (eV)
  ---------------------------------------------------
  alpha Z        PSCENC =      2707.43229196
  Ewald energy   TEWEN  =    175175.60590310
  -Hartree energ DENC   =   -238973.57721561
  -exchange      EXHF   =         0.00000000
  -V(xc)+E(xc)   XCENC  =       265.61924663
  PAW double counting   =     74291.75129791   -72280.05843983
  entropy T*S    EENTRO =         0.00079710
  eigenvalues    EBANDS =        18.41105768
  atomic energy  EATOM  =     58329.24398462
  Solvation  Ediel_sol  =         0.00000000
  ---------------------------------------------------
  free energy    TOTEN  =      -465.57107644 eV

  energy without entropy =     -465.57187353  energy(sigma->0) =     -465.57134213


--------------------------------------------------------------------------------------------------------




--------------------------------------- Iteration      1(  21)  ---------------------------------------


    POTLOK:  cpu time    0.3999: real time    0.4008
    SETDIJ:  cpu time    0.0329: real time    0.0330
    EDDIAG:  cpu time   10.4281: real time   10.4530
  RMM-DIIS:  cpu time   36.4127: real time   36.4990
    ORTHCH:  cpu time    1.0928: real time    1.0954
       DOS:  cpu time    0.0021: real time    0.0021
    CHARGE:  cpu time    4.2844: real time    4.2946
    MIXING:  cpu time    0.0162: real time    0.0162
    --------------------------------------------
      LOOP:  cpu time   52.6691: real time   52.7942

 eigenvalue-minimisations  :  8371
 total energy-change (2. order) :-0.7834452E-01  (-0.8519699E-02)
 number of electron     800.0000035 magnetization      27.0630586
 augmentation part      247.3316009 magnetization      14.1087658

 Broyden mixing:
  rms(total) = 0.22253E+00    rms(broyden)= 0.22253E+00
  rms(prec ) = 0.24080E+00
  weight for this iteration     100.00

 eigenvalues of (default mixing * dielectric matrix)
  average eigenvalue GAMMA=   1.1554
  7.7322  2.2293  1.5759  1.5759  0.9119  0.8217  0.8217  0.6301  0.0699  0.4544
  0.3559  0.3842  0.2256  0.2445  0.2457  0.2079

 Free energy of the ion-electron system (eV)
  ---------------------------------------------------
  alpha Z        PSCENC =      2707.43229196
  Ewald energy   TEWEN  =    175175.60590310
  -Hartree energ DENC   =   -238956.19266494
  -exchange      EXHF   =         0.00000000
  -V(xc)+E(xc)   XCENC  =       265.30199270
  PAW double counting   =     74242.12348970   -72229.19055144
  entropy T*S    EENTRO =        -0.02419023
  eigenvalues    EBANDS =         0.05032359
  atomic energy  EATOM  =     58329.24398462
  Solvation  Ediel_sol  =         0.00000000
  ---------------------------------------------------
  free energy    TOTEN  =      -465.64942096 eV

  energy without entropy =     -465.62523073  energy(sigma->0) =     -465.64135755


--------------------------------------------------------------------------------------------------------




--------------------------------------- Iteration      1(  22)  ---------------------------------------


    POTLOK:  cpu time    0.3998: real time    0.4007
    SETDIJ:  cpu time    0.0327: real time    0.0328
    EDDIAG:  cpu time   10.3929: real time   10.4178
  RMM-DIIS:  cpu time   36.2259: real time   36.3117
    ORTHCH:  cpu time    1.1190: real time    1.1216
       DOS:  cpu time    0.0020: real time    0.0020
    CHARGE:  cpu time    4.2599: real time    4.2713
    MIXING:  cpu time    0.0160: real time    0.0160
    --------------------------------------------
      LOOP:  cpu time   52.4482: real time   52.5740

 eigenvalue-minimisations  :  8380
 total energy-change (2. order) :-0.7884693E-01  (-0.2766957E-02)
 number of electron     800.0000035 magnetization      26.0820841
 augmentation part      247.3684308 magnetization      13.4955728

 Broyden mixing:
  rms(total) = 0.17122E+00    rms(broyden)= 0.17122E+00
  rms(prec ) = 0.18845E+00
  weight for this iteration     100.00

 eigenvalues of (default mixing * dielectric matrix)
[...]

  length of vectors
    10.859999656 10.859987023 22.000000000     0.106326061  0.106326185  0.045454545


 FORCES acting on ions
    electron-ion (+dipol)            ewald-force                    non-local-force                 convergence-correction
 -----------------------------------------------------------------------------------------------
   0.124E+00 -.296E+00 -.135E+04   -.127E+00 0.304E+00 0.135E+04   -.644E-02 0.377E-02 0.527E+00   -.179E-02 -.964E-03 0.286E-01
   0.138E+00 -.791E+00 -.135E+04   -.128E+00 0.786E+00 0.135E+04   -.557E-02 0.313E-01 0.529E+00   -.964E-02 0.124E-02 0.133E-01
   0.638E-01 0.653E+00 -.135E+04   -.669E-01 -.655E+00 0.135E+04   0.829E-02 -.193E-01 0.533E+00   -.544E-02 -.149E-02 0.132E-01
   0.116E+00 -.328E+00 0.267E+04   -.970E-01 0.272E+00 -.267E+04   -.311E-01 0.619E-01 -.717E+00   0.429E-02 0.129E-01 0.813E-02
   -.894E+00 0.175E+01 0.267E+04   0.887E+00 -.171E+01 -.267E+04   0.201E-01 -.664E-01 -.720E+00   -.387E-02 0.601E-02 0.956E-02
   0.211E+00 0.597E+00 0.267E+04   -.182E+00 -.614E+00 -.267E+04   -.485E-01 0.210E-01 -.730E+00   0.921E-02 0.632E-03 0.110E-01
   0.281E+00 -.264E+00 0.135E+04   -.285E+00 0.252E+00 -.135E+04   -.979E-02 0.157E-01 -.523E+00   0.669E-02 0.493E-02 0.425E-02
   -.344E+00 0.126E+00 0.135E+04   0.359E+00 -.125E+00 -.135E+04   0.350E-02 -.737E-03 -.525E+00   -.283E-02 -.778E-02 0.153E-01
   -.693E-01 -.462E+00 -.135E+04   0.740E-01 0.465E+00 0.135E+04   0.260E-02 0.656E-02 0.537E+00   -.297E-02 0.692E-02 0.111E-01
   -.143E+01 -.590E+00 0.267E+04   0.141E+01 0.554E+00 -.267E+04   0.422E-01 0.529E-01 -.727E+00   0.199E-02 -.243E-02 0.111E-01
   -.194E+00 0.116E+00 0.135E+04   0.203E+00 -.123E+00 -.135E+04   0.591E-03 -.243E-02 -.521E+00   -.381E-02 0.359E-02 0.124E-01
   0.157E+00 -.195E+00 -.654E+00   -.152E+00 0.200E+00 0.635E+00   -.107E-01 0.511E-02 0.327E-02   -.207E-02 -.130E-02 0.224E-01
   -.756E-01 0.360E+00 -.135E+04   0.663E-01 -.361E+00 0.135E+04   0.721E-02 -.138E-01 0.528E+00   0.129E-02 0.431E-02 0.108E-01
   0.896E-01 0.274E+00 -.135E+04   -.103E+00 -.261E+00 0.135E+04   -.471E-02 -.151E-01 0.527E+00   0.102E-01 -.827E-02 0.221E-01
   0.211E+00 -.534E+00 -.136E+04   -.216E+00 0.541E+00 0.136E+04   0.218E-02 0.998E-02 0.530E+00   -.270E-02 0.387E-02 0.169E-01
   0.936E+00 -.878E+00 0.267E+04   -.904E+00 0.849E+00 -.267E+04   -.538E-01 0.406E-01 -.732E+00   0.467E-02 0.145E-02 0.806E-02
   -.866E-01 -.237E+00 0.267E+04   0.874E-01 0.230E+00 -.267E+04   0.148E-01 0.151E-01 -.728E+00   -.647E-02 -.506E-02 0.163E-01
   0.279E+00 0.253E+00 0.267E+04   -.293E+00 -.238E+00 -.267E+04   0.695E-02 -.270E-01 -.735E+00   0.106E-01 0.224E-02 0.914E-02
   0.503E+00 -.408E+00 0.135E+04   -.504E+00 0.412E+00 -.135E+04   -.147E-01 0.131E-01 -.528E+00   0.979E-03 -.678E-02 0.105E-01
   0.106E+00 0.845E-01 0.906E+00   -.107E+00 -.715E-01 -.938E+00   -.476E-02 -.475E-02 0.158E-01   0.294E-02 -.118E-01 0.221E-01
   -.589E+00 0.288E+00 0.135E+04   0.605E+00 -.290E+00 -.135E+04   0.451E-02 -.617E-02 -.525E+00   -.336E-02 -.833E-03 0.227E-01
   0.132E+00 -.415E-01 0.135E+04   -.123E+00 0.284E-01 -.135E+04   -.181E-01 0.668E-02 -.528E+00   0.190E-02 0.704E-02 0.110E-01
   -.526E-01 -.211E+00 -.135E+04   0.525E-01 0.215E+00 0.135E+04   -.765E-03 0.276E-02 0.525E+00   -.123E-02 0.169E-02 0.761E-02
   -.845E-01 -.536E+00 0.267E+04   0.882E-01 0.517E+00 -.267E+04   -.360E-03 0.477E-01 -.725E+00   -.867E-03 -.955E-02 0.120E-01
   0.591E+00 -.137E+00 0.135E+04   -.583E+00 0.148E+00 -.135E+04   -.204E-01 0.755E-03 -.519E+00   -.541E-02 -.760E-02 0.166E-01
   -.177E+00 0.185E+00 -.350E+00   0.178E+00 -.179E+00 0.330E+00   0.978E-02 -.132E-01 0.942E-02   -.535E-02 0.362E-02 0.199E-01
   0.113E+01 -.348E+00 -.267E+04   -.107E+01 0.341E+00 0.267E+04   -.531E-01 -.284E-02 0.730E+00   -.192E-01 0.925E-02 -.963E-02
   0.957E+00 0.324E+00 -.267E+04   -.938E+00 -.301E+00 0.267E+04   -.308E-01 -.368E-01 0.712E+00   -.947E-03 0.402E-02 -.107E-01
   -.129E+00 -.659E+00 -.267E+04   0.105E+00 0.643E+00 0.267E+04   0.504E-01 0.270E-01 0.728E+00   -.139E-01 0.418E-02 -.104E-01
   0.964E+00 -.671E+00 -.267E+04   -.935E+00 0.638E+00 0.267E+04   -.309E-01 0.395E-01 0.720E+00   -.855E-02 0.614E-02 -.118E-01
   -.127E+01 0.775E+00 -.267E+04   0.120E+01 -.744E+00 0.267E+04   0.792E-01 -.397E-01 0.725E+00   0.189E-01 -.398E-02 -.984E-02
   0.327E+00 0.887E+00 -.267E+04   -.313E+00 -.864E+00 0.267E+04   0.878E-02 -.452E-01 0.732E+00   -.196E-01 0.766E-02 -.111E-01
   0.855E+00 0.627E+00 -.267E+04   -.846E+00 -.613E+00 0.267E+04   -.152E-01 -.294E-01 0.724E+00   -.259E-02 0.125E-01 -.111E-01
   0.845E-01 0.169E+00 -.267E+04   -.811E-01 -.155E+00 0.267E+04   -.340E-01 -.153E-01 0.737E+00   0.141E-01 -.707E-03 -.783E-02
   -.945E+00 -.639E+00 -.267E+04   0.893E+00 0.638E+00 0.267E+04   0.918E-01 -.962E-02 0.726E+00   -.740E-02 0.861E-02 -.115E-01
   -.775E+00 -.479E-01 -.267E+04   0.743E+00 0.190E-01 0.267E+04   0.250E-01 0.500E-01 0.718E+00   0.158E-01 0.555E-03 -.946E-02
   0.599E+00 -.813E-01 -.267E+04   -.568E+00 0.104E+00 0.267E+04   -.631E-01 -.109E-01 0.722E+00   0.826E-02 -.141E-01 -.787E-02
   -.907E+00 0.137E-01 -.267E+04   0.866E+00 -.102E-01 0.267E+04   0.499E-01 0.118E-01 0.720E+00   0.416E-02 -.100E-01 -.762E-02
   0.279E+00 -.156E+01 -.267E+04   -.282E+00 0.153E+01 0.267E+04   0.135E-01 0.503E-01 0.724E+00   -.123E-01 -.360E-02 -.103E-01
   -.667E+00 0.108E+01 -.267E+04   0.638E+00 -.105E+01 0.267E+04   0.274E-01 -.331E-01 0.730E+00   0.644E-02 -.667E-02 -.686E-02
   -.358E+00 -.352E+00 -.135E+04   0.334E+00 0.375E+00 0.135E+04   0.287E-01 -.303E-02 0.543E+00   0.580E-02 -.557E-02 0.280E-01
   0.134E+01 -.145E+01 0.267E+04   -.129E+01 0.139E+01 -.267E+04   -.715E-01 0.817E-01 -.726E+00   0.218E-02 0.493E-03 0.977E-02
   -.515E-02 0.628E+00 -.135E+04   -.626E-02 -.623E+00 0.135E+04   0.169E-03 -.230E-01 0.534E+00   0.642E-02 -.344E-02 0.316E-01
   0.512E+00 -.331E+00 0.267E+04   -.514E+00 0.331E+00 -.267E+04   -.196E-02 -.956E-02 -.717E+00   0.105E-01 0.420E-02 0.553E-02
   -.212E+00 0.348E+00 0.135E+04   0.219E+00 -.354E+00 -.135E+04   0.351E-02 -.820E-02 -.536E+00   -.789E-02 0.337E-02 0.261E-01
   0.237E-01 -.155E+00 0.135E+04   -.251E-01 0.153E+00 -.135E+04   -.676E-02 0.975E-02 -.541E+00   0.486E-02 0.120E-02 0.237E-01
   0.313E+00 0.300E+00 -.135E+04   -.315E+00 -.301E+00 0.135E+04   -.117E-02 -.149E-01 0.533E+00   -.670E-02 0.761E-02 0.882E-02
   -.798E+00 -.359E+00 0.267E+04   0.820E+00 0.334E+00 -.267E+04   -.684E-02 0.352E-01 -.724E+00   -.125E-01 -.123E-02 0.853E-02
   0.379E+00 -.163E+00 0.135E+04   -.383E+00 0.172E+00 -.135E+04   -.611E-02 0.585E-04 -.536E+00   -.214E-04 -.430E-02 0.189E-01
   -.125E+01 0.752E+00 -.267E+04   0.121E+01 -.720E+00 0.267E+04   0.609E-01 -.333E-01 0.717E+00   0.532E-02 -.104E-01 -.896E-02
   -.957E-01 -.398E+00 -.403E+00   0.901E-01 0.401E+00 0.393E+00   0.507E-02 0.112E-01 0.754E-03   -.716E-03 0.142E-03 0.117E-01
   -.912E-01 -.248E+00 -.267E+04   0.756E-01 0.251E+00 0.267E+04   -.417E-03 0.353E-02 0.731E+00   0.115E-01 -.352E-02 -.824E-02
   -.229E+00 0.100E+00 0.135E+04   0.236E+00 -.107E+00 -.135E+04   0.681E-02 -.829E-02 -.528E+00   -.857E-03 0.740E-02 0.116E-01
   0.104E+00 -.287E+00 0.135E+04   -.105E+00 0.277E+00 -.135E+04   -.342E-02 0.189E-01 -.526E+00   -.206E-02 0.153E-02 0.238E-01
   0.304E-02 -.129E-01 0.269E+00   -.447E-02 0.230E-01 -.292E+00   -.212E-02 -.180E-02 -.118E-01   0.555E-03 -.752E-02 0.230E-01
   -.197E+00 0.253E+00 -.135E+04   0.187E+00 -.250E+00 0.135E+04   0.149E-01 -.865E-02 0.530E+00   0.194E-02 -.782E-03 0.173E-01
   -.118E+00 0.455E+00 -.135E+04   0.120E+00 -.453E+00 0.135E+04   0.503E-02 -.136E-01 0.526E+00   -.672E-02 -.445E-02 0.123E-01
   -.243E+00 0.921E+00 0.267E+04   0.264E+00 -.913E+00 -.267E+04   -.130E-01 -.224E-01 -.722E+00   -.973E-02 0.293E-02 0.140E-01
   0.612E+00 -.190E+00 0.267E+04   -.602E+00 0.175E+00 -.267E+04   -.295E-01 0.341E-01 -.734E+00   0.704E-02 -.654E-02 0.126E-01
   -.557E+00 0.117E-01 0.135E+04   0.555E+00 -.998E-02 -.135E+04   0.225E-01 0.231E-02 -.523E+00   0.201E-02 -.628E-02 0.975E-02
   0.232E+00 0.377E+00 0.135E+04   -.224E+00 -.391E+00 -.135E+04   -.153E-01 -.732E-02 -.524E+00   0.110E-02 0.700E-02 0.882E-02
   -.498E+00 0.267E+00 -.136E+01   0.500E+00 -.269E+00 0.135E+01   0.212E-01 -.182E-01 -.754E-02   -.600E-02 0.783E-02 0.220E-01
   -.149E+00 -.449E-01 -.135E+04   0.139E+00 0.470E-01 0.135E+04   0.156E-01 0.164E-02 0.533E+00   -.105E-03 0.225E-03 0.195E-01
   0.227E+00 0.681E-01 0.267E+04   -.176E+00 -.581E-01 -.267E+04   -.505E-01 -.167E-01 -.723E+00   -.148E-01 -.417E-02 0.115E-01
   0.125E+00 -.127E+00 0.362E+00   -.132E+00 0.134E+00 -.387E+00   -.266E-02 -.159E-02 -.457E-02   0.470E-02 0.136E-02 0.215E-01
   0.117E+00 0.310E+00 0.291E+00   -.117E+00 -.300E+00 -.307E+00   -.564E-02 -.160E-01 0.384E-02   0.634E-03 -.303E-02 0.124E-01
   0.174E+00 -.999E-01 0.389E+00   -.181E+00 0.103E+00 -.407E+00   -.567E-02 0.487E-02 0.216E-02   0.876E-02 -.466E-02 0.166E-01
   -.194E+00 0.281E+00 -.666E+00   0.194E+00 -.277E+00 0.654E+00   0.818E-02 -.140E-01 -.146E-02   -.413E-02 -.619E-03 0.156E-01
   0.868E-02 -.149E+00 -.149E+00   -.876E-02 0.154E+00 0.130E+00   0.410E-02 0.237E-02 -.128E-01   -.444E-02 -.317E-03 0.219E-01
   0.574E+00 -.449E-01 0.135E+04   -.579E+00 0.540E-01 -.135E+04   -.224E-01 -.387E-02 -.528E+00   0.674E-02 -.393E-02 0.198E-01
   -.624E-01 0.446E-01 0.888E+00   0.570E-01 -.389E-01 -.924E+00   0.353E-02 -.510E-03 0.911E-02   0.509E-02 -.448E-02 0.251E-01
   -.300E+00 0.514E+00 -.135E+04   0.303E+00 -.507E+00 0.135E+04   0.487E-02 -.268E-01 0.540E+00   -.984E-03 0.207E-02 0.295E-01
   -.698E-01 -.185E+00 -.135E+04   0.532E-01 0.196E+00 0.135E+04   -.283E-03 0.115E-04 0.530E+00   0.127E-01 -.299E-02 0.247E-01
   -.450E+00 -.325E+00 0.267E+04   0.447E+00 0.307E+00 -.267E+04   0.147E-01 0.175E-01 -.714E+00   -.264E-02 0.161E-02 0.564E-02
   0.124E+01 0.272E+00 0.267E+04   -.120E+01 -.263E+00 -.267E+04   -.520E-01 -.140E-01 -.727E+00   0.434E-03 -.344E-02 0.121E-01
   -.227E+00 0.862E-02 -.126E+01   0.231E+00 -.867E-02 0.125E+01   0.972E-02 -.633E-03 0.619E-02   -.599E-02 0.156E-02 0.190E-01
   0.374E+00 0.134E-01 -.169E+00   -.381E+00 -.224E-01 0.146E+00   -.606E-02 0.140E-02 -.702E-02   -.671E-03 0.601E-02 0.227E-01
   -.679E+00 0.243E+00 0.135E+04   0.676E+00 -.244E+00 -.135E+04   0.239E-01 -.119E-01 -.531E+00   0.188E-02 0.148E-02 0.767E-02
   -.356E+00 0.135E-01 0.106E+01   0.352E+00 -.219E-01 -.109E+01   0.773E-02 0.287E-02 0.509E-02   0.105E-01 0.510E-02 0.223E-01
   0.352E+00 0.746E-01 -.375E+00   -.357E+00 -.783E-01 0.356E+00   -.353E-02 -.772E-02 -.167E-01   -.384E-02 0.803E-02 0.211E-01
 -----------------------------------------------------------------------------------------------
   0.803E-02 -.232E-01 -.857E+00   0.465E-13 0.120E-11 -.798E-11   -.338E-01 0.633E-01 0.515E-01   -.240E-05 -.352E-04 0.869E+00
 
 
 POSITION                                       TOTAL-FORCE (eV/Angst)
 -----------------------------------------------------------------------------------
     13.24175      8.17695      7.28292        -0.009946      0.010213      0.000196
      5.09667      8.17461      7.28394        -0.005231      0.026017      0.004702
      3.73726      5.82623      7.28673         0.000225     -0.022617      0.006420
     13.26096      8.15881      0.33508        -0.007079      0.017633     -0.015018
      5.11298      8.16499      0.33776         0.008807     -0.019775     -0.013391
      3.75994      5.80893      0.34099        -0.010082      0.004026     -0.018775
      7.82212      1.89698      2.68782        -0.005507      0.008209      0.000941
      9.17946      8.95119      2.68863         0.015317     -0.007677      0.002118
      2.37997      3.47436      7.28616         0.005107      0.015542      0.011782
      2.39734      3.45595      0.34227         0.014532      0.014058     -0.018844
     10.53697      1.89804      2.68601         0.006423     -0.006903      0.004489
     13.24684      5.03807      4.98751        -0.007251      0.007158      0.005099
      3.73771      1.12375      7.28592        -0.000505     -0.010431      0.000642
      9.16859      5.82662      7.28451        -0.007228     -0.011620     -0.003584
      5.09465      3.47396      7.28877        -0.005317      0.020044      0.006490
      3.75911      1.10540      0.34120        -0.016225      0.013279     -0.024255
      9.18634      5.80965      0.34007         0.008811      0.002919     -0.022243
      5.11389      3.46032      0.34242         0.003035     -0.009351     -0.023614
     11.89500      8.95112      2.68655        -0.013442      0.009629     -0.000607
     11.88901      7.38958      4.98469        -0.002018     -0.003880      0.005902
     13.25268      6.60069      2.68826         0.016789     -0.008669      0.000700
      9.18124      4.24885      2.68838        -0.006732     -0.000279      0.000737
      7.81153      8.17670      7.28524        -0.002076      0.008526     -0.002332
      7.82892      8.15831      0.34077         0.002335      0.017589     -0.022303
     10.53847      6.60054      2.68678        -0.017660      0.004352      0.005787
      2.38549      0.33614      4.98696         0.005814     -0.003963      0.008699
     14.59771      8.96290      9.63111        -0.016960     -0.000767      0.019770
      3.73508      4.26175      9.64210        -0.011382     -0.009685     -0.001181
      6.44662      8.96071      9.63423         0.012238      0.013798      0.019087
     11.88038      4.25830      9.63497        -0.009061      0.011943      0.015216
      9.16037      8.96420      9.63631         0.026093     -0.012317      0.016247
     10.52127      1.91149      9.63513         0.003283     -0.014453      0.015430
      2.37725      1.91006      9.63649        -0.008334     -0.002900      0.018728
     11.88180      8.96372      9.63258        -0.015138     -0.001900      0.021396
     13.23185      6.61217      9.63460         0.031865     -0.002875      0.018844
      5.09051      1.90536      9.63767         0.008751      0.020347      0.014059
      7.81032      6.61167      9.63668        -0.022182     -0.002725      0.017748
      9.16138      4.25981      9.63467         0.013179      0.004280      0.014605
      5.09084      6.60864      9.63701        -0.001333      0.018002      0.019175
      7.80548      1.91083      9.63183         0.005349     -0.008633      0.024009
      7.80818      3.47553      7.28417         0.010613      0.012621      0.013299
      7.83361      3.45501      0.33888        -0.017504      0.021990     -0.020070
      6.45304      1.12457      7.28351        -0.004465     -0.021142      0.006885
      6.47133      1.10903      0.33724         0.005781     -0.005644     -0.013386
     11.89516      4.24994      2.69001         0.002781     -0.011384     -0.006654
      3.75030      4.24868      2.69210        -0.003463      0.007485     -0.011964
      1.02298      1.12358      7.28542        -0.009019     -0.008885      0.004391
      1.04212      1.10534      0.33711         0.002855      0.008813     -0.013691
      6.46463      8.95151      2.68979        -0.010431      0.004648     -0.008693
      6.44599      4.26142      9.64104         0.018213     -0.011281      0.006164
      7.81628      5.03771      4.98730        -0.001226      0.013237      0.002059
     10.52195      6.61132      9.63441        -0.003617      0.002042      0.021728
      5.10673      1.89832      2.69082         0.012723     -0.007669      0.005669
      2.39206      1.89658      2.69003        -0.005565      0.010514     -0.002477
     14.60424      7.38907      4.98694        -0.002659      0.000263     -0.011537
     11.88215      5.82609      7.28375         0.007641     -0.008337     -0.001272
      6.45327      5.82619      7.28768         0.000358     -0.015991     -0.003217
     11.90328      5.81190      0.33786        -0.001283     -0.010733     -0.018636
      6.47361      5.80809      0.34072        -0.012346      0.011304     -0.025438
      7.82158      6.60008      2.69018         0.022421     -0.002427      0.006210
      6.46647      4.24923      2.68967        -0.005741     -0.014344      0.006059
      3.74209      2.68770      4.98924         0.018017     -0.012440      0.000652
     10.52379      3.47493      7.28398         0.006695      0.003106      0.004481
     10.54781      3.46059      0.33617        -0.013674     -0.010849     -0.013394
     10.53084      0.33556      4.98638        -0.004285      0.006322     -0.007993
      9.17478      7.39015      4.98626        -0.004615     -0.009290     -0.001122
     10.53143      5.03799      4.98591        -0.003220      0.002332      0.000707
      6.45912      7.38973      4.98782         0.003552     -0.010839      0.000533
      5.10054      0.33532      4.98762         0.000129      0.007249     -0.010431
      5.10888      6.60100      2.68955        -0.020767      0.001061      0.000692
      7.81519      0.33539      4.98510         0.004144      0.000136     -0.002547
      9.16793      1.12468      7.28223         0.007097     -0.018299      0.006422
     10.52639      8.17742      7.28526        -0.003993      0.006809     -0.000467
      9.18563      1.10733      0.33405         0.008723      0.001252     -0.011439
     10.54699      8.16248      0.33544        -0.012568     -0.008462     -0.013825
      5.10129      5.03816      4.98845         0.007153      0.000108      0.011393
     11.88806      2.68662      4.98738        -0.012589     -0.002287     -0.007343
     14.60792      8.95243      2.68762         0.022844     -0.012020     -0.003560
      9.17247      2.68660      4.98516         0.014855     -0.001114     -0.005049
      6.45797      2.68744      4.98836        -0.010830     -0.004002     -0.016006
 -----------------------------------------------------------------------------------
    total drift:                               -0.025785      0.040051      0.063269


--------------------------------------------------------------------------------------------------------



  FREE ENERGIE OF THE ION-ELECTRON SYSTEM (eV)
  ---------------------------------------------------
  free  energy   TOTEN  =      -515.71200726 eV

  energy  without entropy=     -515.65116577  energy(sigma->0) =     -515.69172677
 


--------------------------------------------------------------------------------------------------------


    POTLOK:  cpu time    0.4813: real time    0.4824


--------------------------------------------------------------------------------------------------------




--------------------------------------------------------------------------------------------------------


  
 reached required accuracy - stopping structural energy minimisation
     LOOP+:  cpu time 1852.6173: real time 1857.7968
    4ORBIT:  cpu time    0.0000: real time    0.0000

 total amount of memory used by VASP MPI-rank0   239305. kBytes
=======================================================================

   base      :      30000. kBytes
   nonlr-proj:      34577. kBytes
   fftplans  :      17974. kBytes
   grid      :      44179. kBytes
   one-center:        622. kBytes
   wavefun   :     111953. kBytes
 
  
  
 General timing and accounting informations for this job:
 ========================================================
  
                  Total CPU time used (sec):     1874.526
                            User time (sec):     1860.019
                          System time (sec):       14.507
                         Elapsed time (sec):     1880.917
  
                   Maximum memory used (kb):      627124.
                   Average memory used (kb):           0.
  
                          Minor page faults:       612538
                          Major page faults:            0
                 Voluntary context switches:         4662
