 vasp.5.4.4.18Apr17-6-g9f103f2a35 (build Nov 30 2020 22:55:02) complex          
  
 executed on             LinuxIFC date 2023.09.07  16:13:45
 running on   40 total cores
 distrk:  each k-point on   40 cores,    1 groups
 distr:  one band on NCORES_PER_BAND=   4 cores,   10 groups


--------------------------------------------------------------------------------------------------------


 INCAR:
 POTCAR:    PAW_PBE Pt 04Feb2005                  
 POTCAR:    PAW_PBE Pt 04Feb2005                  
   VRHFIN =Pt: s1d9                                                             
   LEXCH  = PE                                                                  
   EATOM  =   729.1176 eV,   53.5886 Ry                                         
                                                                                
   TITEL  = PAW_PBE Pt 04Feb2005                                                
   LULTRA =        F    use ultrasoft PP ?                                      
   IUNSCR =        1    unscreen: 0-lin 1-nonlin 2-no                           
   RPACOR =    2.330    partial core radius                                     
   POMASS =  195.080; ZVAL   =   10.000    mass and valenz                      
   RCORE  =    2.600    outmost cutoff radius                                   
   RWIGS  =    2.750; RWIGS  =    1.455    wigner-seitz radius (au A)           
   ENMAX  =  230.283; ENMIN  =  172.712 eV                                      
   ICORE  =        3    local potential                                         
   LCOR   =        T    correct aug charges                                     
   LPAW   =        T    paw PP                                                  
   EAUG   =  358.966                                                            
   DEXC   =    0.000                                                            
   RMAX   =    2.658    core radius for proj-oper                               
   RAUG   =    1.300    factor for augmentation sphere                          
   RDEP   =    2.761    radius for radial grids                                 
   RDEPT  =    2.203    core radius for aug-charge                              
                                                                                
   Atomic configuration                                                         
   16 entries                                                                   
     n  l   j            E        occ.                                          
     1  0  0.50    -78401.1885   2.0000                                         
     2  0  0.50    -13770.7750   2.0000                                         
     2  1  1.50    -11931.0468   6.0000                                         
     3  0  0.50     -3234.7234   2.0000                                         
     3  1  1.50     -2699.2216   6.0000                                         
     3  2  2.50     -2119.5714  10.0000                                         
     4  0  0.50      -695.1528   2.0000                                         
     4  1  1.50      -519.6034   6.0000                                         
     4  2  2.50      -306.6786  10.0000                                         
     4  3  3.50       -70.1041  14.0000                                         
     5  0  0.50      -101.7747   2.0000                                         
     5  1  1.50       -55.9873   6.0000                                         
     5  2  2.50        -6.1423   9.0000                                         
     6  0  0.50        -5.6573   1.0000                                         
     6  1  1.50        -6.8029   0.0000                                         
     5  3  2.50        -1.3606   0.0000                                         
   Description                                                                  
     l       E           TYP  RCUT    TYP  RCUT                                 
     2     -6.1423404     23  2.500                                             
     2     -7.5029230     23  2.500                                             
     0     -5.6573207     23  2.500                                             
     0      0.7416693     23  2.500                                             
     1     -2.7211652     23  2.600                                             
     1     20.4087390     23  2.600                                             
     3     -1.3605826     23  2.500                                             
  local pseudopotential read in
  partial core-charges read in
  partial kinetic energy density read in
  atomic valenz-charges read in
  non local Contribution for L=           2  read in
    real space projection operators read in
  non local Contribution for L=           2  read in
    real space projection operators read in
  non local Contribution for L=           0  read in
    real space projection operators read in
  non local Contribution for L=           0  read in
    real space projection operators read in
  non local Contribution for L=           1  read in
    real space projection operators read in
  non local Contribution for L=           1  read in
    real space projection operators read in
    PAW grid and wavefunctions read in
 
   number of l-projection  operators is LMAX  =           6
   number of lm-projection operators is LMMAX =          18
 
 Optimization of the real space projectors (new method)

 maximal supplied QI-value         = 14.36
 optimisation between [QCUT,QGAM] = [ 11.92, 23.98] = [ 39.79,161.09] Ry 
 Optimized for a Real-space Cutoff    1.49 Angstroem

   l    n(q)    QCUT    max X(q) W(low)/X(q) W(high)/X(q)  e(spline) 
   2     10    11.920    66.195    0.79E-04    0.18E-03    0.24E-06
   2     10    11.920    64.643    0.81E-04    0.19E-03    0.24E-06
   0     11    11.920    95.520    0.28E-04    0.54E-04    0.18E-06
   0     11    11.920    63.403    0.27E-04    0.52E-04    0.17E-06
   1     10    11.920    19.961    0.18E-04    0.11E-03    0.23E-06
   1     10    11.920    13.289    0.25E-04    0.87E-04    0.19E-06
  PAW_PBE Pt 04Feb2005                  :
 energy of atom  1       EATOM= -729.1176
 kinetic energy error for atom=    0.0021 (will be added to EATOM!!)
 
 
 POSCAR: Pt111                                   
  positions in direct lattice
  velocities in cartesian coordinates
 exchange correlation table for  LEXCH =        8
   RHO(1)=    0.500       N(1)  =     2000
   RHO(2)=  100.500       N(2)  =     4000
 


--------------------------------------------------------------------------------------------------------


 ion  position               nearest neighbor table
   1  0.783  0.870  0.326-  20 2.72  71 2.73  55 2.73  27 2.77  43 2.78  35 2.78  56 2.78  34 2.79
                            73 2.79   3 2.79  72 2.79   2 2.80
   2  0.033  0.871  0.327-  65 2.72  55 2.73  68 2.73  72 2.77  27 2.78  39 2.78  29 2.78   3 2.79
                            47 2.79  23 2.79   1 2.80  57 2.80
   3  0.034  0.620  0.327-  76 2.72  12 2.73  55 2.73  35 2.77  28 2.77  39 2.78   9 2.79  57 2.79
                             2 2.79   1 2.79  56 2.80  15 2.80
   4  0.788  0.867  0.024-  21 2.77  78 2.77  19 2.78  44 2.78   6 2.79  74 2.79  75 2.79  58 2.80
                             5 2.80
   5  0.039  0.866  0.024-  59 2.77  70 2.77  49 2.77  78 2.78  24 2.78   6 2.79  74 2.80   4 2.80
                            48 2.81
   6  0.037  0.617  0.024-  70 2.77  46 2.78  10 2.78  21 2.78   4 2.79   5 2.79  59 2.79  58 2.79
                            18 2.80
   7  0.620  0.202  0.126-  71 2.72  79 2.72  80 2.74  42 2.77  44 2.77  74 2.78  22 2.78  53 2.79
                            11 2.79  78 2.79  61 2.80  19 2.80
   8  0.370  0.952  0.126-  69 2.72  66 2.73  26 2.74  16 2.77  24 2.77  25 2.78  49 2.79  19 2.79
                            75 2.79  54 2.79  53 2.79  60 2.79
   9  0.035  0.370  0.327-  12 2.72  77 2.73  62 2.73  28 2.77  33 2.77  30 2.78   3 2.79  47 2.79
                            63 2.79  13 2.79  15 2.79  56 2.80
  10  0.038  0.368  0.024-  54 2.77  46 2.77   6 2.78  45 2.78  18 2.79  58 2.79  48 2.79  16 2.79
                            64 2.81
  11  0.870  0.202  0.127-  65 2.71  77 2.73  79 2.73  64 2.77  74 2.77  48 2.78  45 2.78  49 2.79
                             7 2.79  54 2.80  78 2.80  22 2.80
  12  0.951  0.536  0.227-   9 2.72  21 2.73   3 2.73  56 2.73  45 2.73  46 2.73  77 2.78  55 2.79
                            20 2.79  67 2.79  76 2.80  62 2.81
  13  0.285  0.119  0.327-  62 2.72  26 2.73  69 2.74  36 2.77  33 2.78  31 2.78  73 2.78  43 2.78
                            47 2.79   9 2.79  23 2.79  15 2.80
  14  0.534  0.619  0.327-  51 2.72  66 2.73  67 2.74  38 2.77  52 2.78  41 2.78  57 2.78  73 2.78
                            37 2.79  56 2.79  23 2.79  63 2.80
  15  0.285  0.370  0.327-  76 2.72  62 2.72  80 2.74  36 2.77  50 2.77  28 2.77  57 2.78  41 2.79
                            43 2.79   9 2.79  13 2.80   3 2.80
  16  0.288  0.118  0.024-   8 2.77  53 2.78  18 2.78  48 2.78  54 2.79  10 2.79  24 2.79  44 2.79
                            75 2.80
  17  0.537  0.617  0.023-  25 2.78  22 2.78  42 2.79  58 2.79  75 2.79  64 2.79  59 2.79  24 2.79
                            60 2.79
  18  0.288  0.367  0.024-  53 2.77  61 2.77  42 2.78  16 2.78  10 2.79  46 2.79  59 2.79  44 2.79
                             6 2.80
  19  0.620  0.951  0.126-  71 2.72  20 2.72  69 2.74  44 2.76  75 2.78   4 2.78  21 2.78  53 2.78
                             8 2.79  25 2.79  78 2.80   7 2.80
  20  0.700  0.786  0.226-   1 2.72  19 2.72  25 2.73  56 2.73  73 2.73  21 2.73  69 2.78  67 2.78
                            66 2.79  12 2.79  55 2.79  71 2.80
  21  0.869  0.701  0.127-  12 2.73  55 2.73  20 2.73   4 2.77  58 2.78   6 2.78  19 2.78  45 2.78
                            46 2.79  25 2.79  70 2.79  78 2.80
  22  0.619  0.452  0.126-  79 2.72  67 2.72  51 2.74  42 2.77  17 2.78  64 2.78   7 2.78  25 2.78
                            61 2.79  60 2.79  45 2.80  11 2.80
  23  0.283  0.870  0.327-  26 2.72  68 2.73  66 2.74  29 2.77  31 2.78  37 2.78  47 2.78  57 2.78
                            73 2.79   2 2.79  14 2.79  13 2.79
  24  0.288  0.868  0.023-   8 2.77  60 2.78  75 2.78   5 2.78  49 2.79  48 2.79  16 2.79  17 2.79
                            59 2.80
  25  0.618  0.702  0.126-  67 2.72  20 2.73  66 2.74  75 2.77  17 2.78   8 2.78  60 2.78  22 2.78
                            58 2.78  45 2.79  21 2.79  19 2.79
  26  0.203  0.036  0.227-  54 2.72  23 2.72  49 2.73  47 2.73  13 2.73   8 2.74  66 2.78  69 2.79
                            65 2.79  68 2.79  77 2.80  62 2.80
  27  0.865  0.953  0.429-   1 2.77  40 2.77   2 2.78  35 2.78  72 2.78  39 2.79  34 2.79  32 2.79
                            29 2.81
  28  0.117  0.453  0.429-   9 2.77   3 2.77  15 2.77  36 2.79  35 2.79  33 2.79  30 2.79  39 2.80
                            50 2.80
  29  0.117  0.954  0.429-  23 2.77  47 2.78  32 2.78   2 2.78  33 2.78  39 2.79  37 2.79  31 2.79
                            27 2.81
  30  0.867  0.453  0.429-  56 2.77  63 2.77   9 2.78  38 2.78  35 2.79  52 2.79  33 2.79  28 2.79
                            32 2.80
  31  0.368  0.953  0.430-  34 2.77  13 2.78  73 2.78  23 2.78  52 2.78  37 2.79  29 2.79  33 2.80
                            36 2.80
  32  0.867  0.202  0.429-  72 2.77  63 2.77  47 2.77  29 2.78  40 2.79  38 2.79  27 2.79  33 2.79
                            30 2.80
  33  0.117  0.203  0.429-   9 2.77  47 2.77  13 2.78  29 2.78  28 2.79  30 2.79  32 2.79  31 2.80
                            36 2.80
  34  0.616  0.952  0.430-  31 2.77  73 2.77  43 2.78  52 2.78   1 2.79  27 2.79  36 2.79  35 2.79
                            40 2.80
  35  0.867  0.703  0.429-   3 2.77  27 2.78  56 2.78   1 2.78  39 2.79  30 2.79  28 2.79  34 2.79
                            52 2.80
  36  0.367  0.204  0.430-  15 2.77  13 2.77  43 2.78  40 2.78  28 2.79  50 2.79  34 2.79  33 2.80
                            31 2.80
  37  0.366  0.703  0.430-  57 2.77  50 2.78  23 2.78  39 2.78  14 2.79  29 2.79  31 2.79  52 2.79
                            38 2.80
  38  0.618  0.453  0.430-  14 2.77  41 2.77  30 2.78  50 2.78  52 2.78  63 2.78  32 2.79  40 2.80
                            37 2.80
  39  0.116  0.705  0.430-   3 2.78  57 2.78   2 2.78  37 2.78  35 2.79  27 2.79  29 2.79  28 2.80
                            50 2.81
  40  0.618  0.202  0.429-  43 2.77  41 2.77  27 2.77  36 2.78  72 2.78  32 2.79  50 2.79  38 2.80
                            34 2.80
  41  0.535  0.369  0.327-  80 2.72  51 2.73  79 2.73  40 2.77  38 2.77  50 2.78  14 2.78  72 2.78
                            63 2.78  15 2.79  43 2.80  57 2.81
  42  0.536  0.368  0.024-   7 2.77  22 2.77  18 2.78  59 2.78  17 2.79  61 2.79  44 2.79  64 2.79
                            74 2.81
  43  0.535  0.119  0.327-  80 2.72  69 2.72  71 2.74  40 2.77   1 2.78  34 2.78  36 2.78  13 2.78
                            72 2.79  15 2.79  73 2.80  41 2.80
  44  0.539  0.117  0.024-  19 2.76   7 2.77   4 2.78  53 2.79  42 2.79  74 2.79  16 2.79  18 2.79
                            75 2.80
  45  0.869  0.452  0.127-  77 2.72  12 2.73  67 2.73  58 2.77  64 2.78  10 2.78  11 2.78  21 2.78
                            25 2.79  22 2.80  54 2.80  46 2.80
  46  0.120  0.452  0.127-  62 2.72  76 2.72  12 2.73  10 2.77   6 2.78  54 2.78  70 2.78  61 2.78
                            18 2.79  21 2.79  45 2.80  53 2.80
  47  0.035  0.120  0.326-  77 2.72  26 2.73  65 2.73  32 2.77  33 2.77  29 2.78  23 2.78  63 2.79
                             2 2.79   9 2.79  13 2.79  72 2.80
  48  0.038  0.118  0.024-  49 2.77  11 2.78  54 2.78  16 2.78  10 2.79  24 2.79  64 2.79  74 2.79
                             5 2.81
  49  0.120  0.952  0.127-  68 2.72  26 2.73  65 2.73  48 2.77   5 2.77  60 2.78   8 2.79  24 2.79
                            11 2.79  78 2.79  54 2.80  70 2.80
  50  0.369  0.453  0.430-  15 2.77  57 2.77  41 2.78  37 2.78  38 2.78  36 2.79  40 2.79  28 2.80
                            39 2.81
  51  0.451  0.536  0.227-  61 2.72  14 2.72  41 2.73  60 2.73  57 2.73  22 2.74  66 2.78  76 2.79
                            67 2.79  80 2.79  68 2.79  79 2.80
  52  0.616  0.703  0.430-  14 2.78  73 2.78  34 2.78  38 2.78  31 2.78  56 2.78  30 2.79  37 2.79
                            35 2.80
  53  0.371  0.201  0.127-  69 2.72  80 2.72  62 2.74  18 2.77  16 2.78  19 2.78   7 2.79  61 2.79
                            54 2.79  44 2.79   8 2.79  46 2.80
  54  0.121  0.202  0.127-  26 2.72  62 2.72  77 2.73  10 2.77  48 2.78  46 2.78  16 2.79  53 2.79
                             8 2.79  11 2.80  45 2.80  49 2.80
  55  0.951  0.786  0.227-  78 2.72  21 2.73   2 2.73   1 2.73   3 2.73  70 2.73  71 2.78  12 2.79
                            20 2.79  76 2.79  68 2.79  65 2.80
  56  0.784  0.620  0.327-  12 2.73  20 2.73  67 2.73  30 2.77  35 2.78  52 2.78  63 2.78   1 2.78
                            73 2.79  14 2.79   9 2.80   3 2.80
  57  0.284  0.620  0.327-  76 2.72  68 2.73  51 2.73  37 2.77  50 2.77  39 2.78  23 2.78  14 2.78
                            15 2.78   3 2.79   2 2.80  41 2.81
  58  0.787  0.616  0.024-  45 2.77  21 2.78  25 2.78  10 2.79  17 2.79  64 2.79  75 2.79   6 2.79
                             4 2.80
  59  0.287  0.618  0.024-  60 2.77   5 2.77  61 2.78  42 2.78  70 2.79   6 2.79  17 2.79  18 2.79
                            24 2.80
  60  0.369  0.702  0.126-  66 2.72  51 2.73  68 2.74  59 2.77  24 2.78  49 2.78  25 2.78  22 2.79
                            61 2.79  70 2.79   8 2.79  17 2.79
  61  0.369  0.452  0.127-  80 2.72  51 2.72  76 2.74  18 2.77  59 2.78  46 2.78  22 2.79  53 2.79
                            42 2.79  70 2.79  60 2.79   7 2.80
  62  0.203  0.286  0.227-  15 2.72  13 2.72  46 2.72  54 2.72   9 2.73  53 2.74  80 2.78  76 2.79
                            69 2.79  26 2.80  77 2.80  12 2.81
  63  0.785  0.370  0.326-  79 2.72  67 2.73  77 2.73  32 2.77  30 2.77  38 2.78  56 2.78  41 2.78
                            47 2.79   9 2.79  14 2.80  72 2.80
  64  0.787  0.367  0.024-  11 2.77  45 2.78  74 2.78  22 2.78  58 2.79  17 2.79  48 2.79  42 2.79
                            10 2.81
  65  0.952  0.036  0.226-  11 2.71   2 2.72  78 2.73  47 2.73  72 2.73  49 2.73  68 2.79  79 2.79
                            71 2.79  26 2.79  77 2.79  55 2.80
  66  0.451  0.786  0.227-  60 2.72  73 2.72   8 2.73  14 2.73  23 2.74  25 2.74  51 2.78  26 2.78
                            68 2.78  67 2.79  20 2.79  69 2.80
  67  0.701  0.536  0.226-  25 2.72  22 2.72  63 2.73  56 2.73  45 2.73  14 2.74  79 2.78  20 2.78
                            66 2.79  51 2.79  12 2.79  77 2.80
  68  0.201  0.786  0.227-  70 2.72  49 2.72  23 2.73  57 2.73   2 2.73  60 2.74  66 2.78  65 2.79
                            76 2.79  51 2.79  26 2.79  55 2.79
  69  0.452  0.035  0.227-  53 2.72  43 2.72   8 2.72  73 2.73  19 2.74  13 2.74  20 2.78  26 2.79
                            71 2.79  62 2.79  80 2.80  66 2.80
  70  0.119  0.702  0.127-  68 2.72  76 2.72  55 2.73   5 2.77   6 2.77  78 2.78  46 2.78  59 2.79
                            61 2.79  60 2.79  21 2.79  49 2.80
  71  0.702  0.036  0.226-   7 2.72  19 2.72  72 2.72   1 2.73  78 2.73  43 2.74  55 2.78  80 2.78
                            69 2.79  65 2.79  79 2.80  20 2.80
  72  0.784  0.119  0.326-  71 2.72  79 2.72  65 2.73  32 2.77   2 2.77  27 2.78  40 2.78  41 2.78
                            43 2.79   1 2.79  47 2.80  63 2.80
  73  0.533  0.869  0.327-  66 2.72  69 2.73  20 2.73  34 2.77  31 2.78  52 2.78  13 2.78  14 2.78
                            23 2.79   1 2.79  56 2.79  43 2.80
  74  0.789  0.117  0.024-  78 2.76  11 2.77  64 2.78   7 2.78  44 2.79   4 2.79  48 2.79   5 2.80
                            42 2.81
  75  0.538  0.867  0.023-  25 2.77  19 2.78  24 2.78  17 2.79  58 2.79   8 2.79   4 2.79  44 2.80
                            16 2.80
  76  0.201  0.536  0.227-  15 2.72  57 2.72  46 2.72  70 2.72   3 2.72  61 2.74  51 2.79  62 2.79
                            68 2.79  55 2.79  12 2.80  80 2.80
  77  0.952  0.286  0.227-  45 2.72  47 2.72  11 2.73   9 2.73  54 2.73  63 2.73  12 2.78  79 2.79
                            65 2.79  26 2.80  62 2.80  67 2.80
  78  0.870  0.951  0.126-  55 2.72  65 2.73  71 2.73  74 2.76   4 2.77  70 2.78   5 2.78  49 2.79
                             7 2.79  19 2.80  21 2.80  11 2.80
  79  0.702  0.286  0.226-  22 2.72  63 2.72   7 2.72  72 2.72  11 2.73  41 2.73  67 2.78  80 2.79
                            65 2.79  77 2.79  51 2.80  71 2.80
  80  0.453  0.286  0.227-  61 2.72  41 2.72  53 2.72  43 2.72  15 2.74   7 2.74  62 2.78  71 2.78
                            79 2.79  51 2.79  69 2.80  76 2.80
 
  LATTYP: Found a hexagonal cell.
 ALAT       =    11.1599998850
 C/A-ratio  =     1.9713261852
  
  Lattice vectors:
  
 A1 = (   5.5799999991,  -9.6648433740,   0.0000000000)
 A2 = ( -11.1599999990,   0.0000000000,   0.0000000000)
 A3 = (   0.0000000000,   0.0000000000, -22.0000000000)


Analysis of symmetry for initial positions (statically):
=====================================================================
 Subroutine PRICEL returns:
 Original cell was already a primitive cell.
 

 Routine SETGRP: Setting up the symmetry group for a 
 hexagonal supercell.


 Subroutine GETGRP returns: Found  1 space group operations
 (whereof  1 operations were pure point group operations)
 out of a pool of 24 trial point group operations.


The static configuration has the point symmetry C_1 .


Analysis of symmetry for dynamics (positions and initial velocities):
=====================================================================
 Subroutine PRICEL returns:
 Original cell was already a primitive cell.
 

 Routine SETGRP: Setting up the symmetry group for a 
 hexagonal supercell.


 Subroutine GETGRP returns: Found  1 space group operations
 (whereof  1 operations were pure point group operations)
 out of a pool of 24 trial point group operations.


The dynamic configuration has the point symmetry C_1 .


Analysis of structural, dynamic, and magnetic symmetry:
=====================================================================
 Subroutine PRICEL returns:
 Original cell was already a primitive cell.
 

 Routine SETGRP: Setting up the symmetry group for a 
 hexagonal supercell.


 Subroutine GETGRP returns: Found  1 space group operations
 (whereof  1 operations were pure point group operations)
 out of a pool of 24 trial point group operations.


The magnetic configuration has the point symmetry C_1 .


 Subroutine INISYM returns: Found  1 space group operations
 (whereof  1 operations are pure point group operations),
 and found     1 'primitive' translations

 
 
 KPOINTS: mesh auto                               

Automatic generation of k-mesh.
Space group operators:
 irot       det(A)        alpha          n_x          n_y          n_z        tau_x        tau_y        tau_z
    1     1.000000     0.000000     1.000000     0.000000     0.000000     0.000000     0.000000     0.000000
 
 Subroutine IBZKPT returns following result:
 ===========================================
 
 Found      4 irreducible k-points:
 
 Following reciprocal coordinates:
            Coordinates               Weight
  0.000000  0.000000  0.000000      1.000000
  0.500000  0.000000  0.000000      1.000000
  0.000000  0.500000  0.000000      1.000000
  0.500000  0.500000  0.000000      1.000000
 
 Following cartesian coordinates:
            Coordinates               Weight
  0.000000  0.000000  0.000000      1.000000
  0.044803 -0.025867  0.000000      1.000000
  0.000000  0.051734  0.000000      1.000000
  0.044803  0.025867  0.000000      1.000000
 


--------------------------------------------------------------------------------------------------------




 Dimension of arrays:
   k-points           NKPTS =      4   k-points in BZ     NKDIM =      4   number of bands    NBANDS=    520
   number of dos      NEDOS =    301   number of ions     NIONS =     80
   non local maximal  LDIM  =      6   non local SUM 2l+1 LMDIM =     18
   total plane-waves  NPLWV = ******
   max r-space proj   IRMAX =   8018   max aug-charges    IRDMAX=  34929
   dimension x,y,z NGX =    90 NGY =   90 NGZ =  168
   dimension x,y,z NGXF=   180 NGYF=  180 NGZF=  336
   support grid    NGXF=   180 NGYF=  180 NGZF=  336
   ions per type =              80
   NGX,Y,Z   is equivalent  to a cutoff of  13.41, 13.41, 12.70 a.u.
   NGXF,Y,Z  is equivalent  to a cutoff of  26.81, 26.81, 25.39 a.u.

 SYSTEM =  Pt111                                   
 POSCAR =  Pt111                                   

 Startparameter for this run:
   NWRITE =      2    write-flag & timer
   PREC   = accura    normal or accurate (medium, high low for compatibility)
   ISTART =      0    job   : 0-new  1-cont  2-samecut
   ICHARG =      2    charge: 1-file 2-atom 10-const
   ISPIN  =      2    spin polarized calculation?
   LNONCOLLINEAR =      F non collinear calculations
   LSORBIT =      F    spin-orbit coupling
   INIWAV =      1    electr: 0-lowe 1-rand  2-diag
   LASPH  =      F    aspherical Exc in radial PAW
   METAGGA=      F    non-selfconsistent MetaGGA calc.

 Electronic Relaxation 1
   ENCUT  =  550.0 eV  40.42 Ry    6.36 a.u.  21.34 21.34 42.07*2*pi/ulx,y,z
   ENINI  =  550.0     initial cutoff
   ENAUG  =  359.0 eV  augmentation charge cutoff
   NELM   =    200;   NELMIN=  2; NELMDL= -5     # of ELM steps 
   EDIFF  = 0.1E-04   stopping-criterion for ELM
   LREAL  =      T    real-space projection
   NLSPLINE    = F    spline interpolate recip. space projectors
   LCOMPAT=      F    compatible to vasp.4.4
   GGA_COMPAT  = T    GGA compatible to vasp.4.4-vasp.4.6
   LMAXPAW     = -100 max onsite density
   LMAXMIX     =    2 max onsite mixed and CHGCAR
   VOSKOWN=      0    Vosko Wilk Nusair interpolation
   ROPT   =   -0.00025
 Ionic relaxation
   EDIFFG = -.5E-01   stopping-criterion for IOM
   NSW    =    300    number of steps for IOM
   NBLOCK =      1;   KBLOCK =    300    inner block; outer block 
   IBRION =      2    ionic relax: 0-MD 1-quasi-New 2-CG
   NFREE  =      1    steps in history (QN), initial steepest desc. (CG)
   ISIF   =      2    stress and relaxation
   IWAVPR =     11    prediction:  0-non 1-charg 2-wave 3-comb
   ISYM   =      2    0-nonsym 1-usesym 2-fastsym
   LCORR  =      T    Harris-Foulkes like correction to forces

   POTIM  = 0.5000    time-step for ionic-motion
   TEIN   =    0.0    initial temperature
   TEBEG  =    0.0;   TEEND  =   0.0 temperature during run
   SMASS  =  -3.00    Nose mass-parameter (am)
   estimated Nose-frequenzy (Omega)   =  0.10E-29 period in steps =****** mass=  -0.285E-26a.u.
   SCALEE = 1.0000    scale energy and forces
   NPACO  =    256;   APACO  = 16.0  distance and # of slots for P.C.
   PSTRESS=    0.0 pullay stress

  Mass of Ions in am
   POMASS = 195.08
  Ionic Valenz
   ZVAL   =  10.00
  Atomic Wigner-Seitz radii
   RWIGS  =  -1.00
  virtual crystal weights 
   VCA    =   1.00
   NELECT =     800.0000    total number of electrons
   NUPDOWN=      -1.0000    fix difference up-down

 DOS related values:
   EMIN   =  10.00;   EMAX   =-10.00  energy-range for DOS
   EFERMI =   0.00
   ISMEAR =     1;   SIGMA  =   0.10  broadening in eV -4-tet -1-fermi 0-gaus

 Electronic relaxation 2 (details)
   IALGO  =     68    algorithm
   LDIAG  =      T    sub-space diagonalisation (order eigenvalues)
   LSUBROT=      F    optimize rotation matrix (better conditioning)
   TURBO    =      0    0=normal 1=particle mesh
   IRESTART =      0    0=no restart 2=restart with 2 vectors
   NREBOOT  =      0    no. of reboots
   NMIN     =      0    reboot dimension
   EREF     =   0.00    reference energy to select bands
   IMIX   =      4    mixing-type and parameters
     AMIX     =   0.40;   BMIX     =  1.00
     AMIX_MAG =   1.60;   BMIX_MAG =  1.00
     AMIN     =   0.10
     WC   =   100.;   INIMIX=   1;  MIXPRE=   1;  MAXMIX= -45

 Intra band minimization:
   WEIMIN = 0.0010     energy-eigenvalue tresh-hold
   EBREAK =  0.48E-08  absolut break condition
   DEPER  =   0.30     relativ break condition  

   TIME   =   0.40     timestep for ELM

  volume/ion in A,a.u.               =      29.66       200.17
  Fermi-wavevector in a.u.,A,eV,Ry     =   1.139404  2.153161 17.663636  1.298241
  Thomas-Fermi vector in A             =   2.276107
 
 Write flags
   LWAVE        =      F    write WAVECAR
   LDOWNSAMPLE  =      F    k-point downsampling of WAVECAR
   LCHARG       =      F    write CHGCAR
   LVTOT        =      F    write LOCPOT, total local potential
   LVHAR        =      F    write LOCPOT, Hartree potential only
   LELF         =      F    write electronic localiz. function (ELF)
   LORBIT       =      0    0 simple, 1 ext, 2 COOP (PROOUT), +10 PAW based schemes


 Dipole corrections
   LMONO  =      F    monopole corrections only (constant potential shift)
   LDIPOL =      F    correct potential (dipole corrections)
   IDIPOL =      0    1-x, 2-y, 3-z, 4-all directions 
   EPSILON=  1.0000000 bulk dielectric constant

 Exchange correlation treatment:
   GGA     =    --    GGA type
   LEXCH   =     8    internal setting for exchange type
   VOSKOWN=      0    Vosko Wilk Nusair interpolation
   LHFCALC =     F    Hartree Fock is set to
   LHFONE  =     F    Hartree Fock one center treatment
   AEXX    =    0.0000 exact exchange contribution

 Linear response parameters
   LEPSILON=     F    determine dielectric tensor
   LRPA    =     F    only Hartree local field effects (RPA)
   LNABLA  =     F    use nabla operator in PAW spheres
   LVEL    =     F    velocity operator in full k-point grid
   LINTERFAST=   F  fast interpolation
   KINTER  =     0    interpolate to denser k-point grid
   CSHIFT  =0.1000    complex shift for real part using Kramers Kronig
   OMEGAMAX=  -1.0    maximum frequency
   DEG_THRESHOLD= 0.2000000E-02 threshold for treating states as degnerate
   RTIME   =   -0.100 relaxation time in fs
  (WPLASMAI=    0.000 imaginary part of plasma frequency in eV, 0.658/RTIME)
   DFIELD  = 0.0000000 0.0000000 0.0000000 field for delta impulse in time
 
 Orbital magnetization related:
   ORBITALMAG=     F  switch on orbital magnetization
   LCHIMAG   =     F  perturbation theory with respect to B field
   DQ        =  0.001000  dq finite difference perturbation B field
   LLRAUG    =     F  two centre corrections for induced B field



--------------------------------------------------------------------------------------------------------


 conjugate gradient relaxation of ions
 charge density and potential will be updated during run
 spin polarized calculation
 RMM-DIIS sequential band-by-band and
  variant of blocked Davidson during initial phase
 perform sub-space diagonalisation
    before iterative eigenvector-optimisation
 modified Broyden-mixing scheme, WC =      100.0
 initial mixing is a Kerker type mixing with AMIX =  0.4000 and BMIX =      1.0000
 Hartree-type preconditioning will be used
 using additional bands          120
 real space projection scheme for non local part
 use partial core corrections
 calculate Harris-corrections to forces 
   (improved forces if not selfconsistent)
 use gradient corrections 
 use of overlap-Matrix (Vanderbilt PP)
 Methfessel and Paxton  Order N= 1 SIGMA  =   0.10


--------------------------------------------------------------------------------------------------------


  energy-cutoff  :      550.00
  volume of cell :     2372.91
      direct lattice vectors                 reciprocal lattice vectors
    11.159999999  0.000000000  0.000000000     0.089605735 -0.051733896  0.000000000
     5.580000000  9.664843374  0.000000000     0.000000000  0.103467792  0.000000000
     0.000000000  0.000000000 22.000000000     0.000000000  0.000000000  0.045454545

  length of vectors
    11.159999999 11.159999885 22.000000000     0.103467791  0.103467792  0.045454545


 
 k-points in units of 2pi/SCALE and weight: mesh auto                               
   0.00000000  0.00000000  0.00000000       0.250
   0.04480287 -0.02586695  0.00000000       0.250
   0.00000000  0.05173390  0.00000000       0.250
   0.04480287  0.02586695  0.00000000       0.250
 
 k-points in reciprocal lattice and weights: mesh auto                               
   0.00000000  0.00000000  0.00000000       0.250
   0.50000000  0.00000000  0.00000000       0.250
   0.00000000  0.50000000  0.00000000       0.250
   0.50000000  0.50000000  0.00000000       0.250
 
 position of ions in fractional coordinates (direct lattice) 
   0.78285249  0.86958112  0.32632110
   0.03272566  0.87077083  0.32655064
   0.03386912  0.62016396  0.32689126
   0.78770805  0.86721782  0.02369474
   0.03934512  0.86613806  0.02391227
   0.03714436  0.61725294  0.02418593
   0.62022090  0.20185919  0.12643548
   0.37006139  0.95152562  0.12648463
   0.03482814  0.36988505  0.32684378
   0.03801677  0.36805671  0.02432800
   0.87040561  0.20185206  0.12663649
   0.95091950  0.53621608  0.22693567
   0.28502747  0.11936912  0.32701242
   0.53358368  0.61943576  0.32694926
   0.28526899  0.36987403  0.32708023
   0.28780267  0.11807465  0.02401998
   0.53736070  0.61703677  0.02312277
   0.28819562  0.36685469  0.02440054
   0.61984917  0.95118953  0.12625532
   0.70049224  0.78562217  0.22644714
   0.86877765  0.70141017  0.12653819
   0.61862102  0.45201552  0.12646090
   0.28335818  0.86977773  0.32688577
   0.28793943  0.86801527  0.02347027
   0.61849418  0.70151320  0.12621454
   0.20250078  0.03565404  0.22678662
   0.86534653  0.95290497  0.42913125
   0.11741032  0.45324796  0.42938171
   0.11680753  0.95393801  0.42944464
   0.86687128  0.45344987  0.42939761
   0.36755745  0.95263365  0.42976576
   0.86728002  0.20222271  0.42879000
   0.11711821  0.20318283  0.42938175
   0.61593340  0.95229331  0.42951156
   0.86738546  0.70307730  0.42942952
   0.36740001  0.20388047  0.42959408
   0.36596442  0.70345638  0.43000530
   0.61794634  0.45283616  0.42961729
   0.11618302  0.70459067  0.42960481
   0.61761683  0.20223839  0.42932927
   0.53547107  0.36916394  0.32677809
   0.53630284  0.36800595  0.02381377
   0.53468942  0.11891174  0.32665727
   0.53878451  0.11660877  0.02375904
   0.86919974  0.45178938  0.12665798
   0.11967918  0.45191878  0.12732364
   0.03460856  0.11987569  0.32642056
   0.03842758  0.11809966  0.02425102
   0.12032559  0.95177815  0.12659525
   0.36856369  0.45304269  0.42962551
   0.45098294  0.53623860  0.22687244
   0.61646134  0.70285863  0.42979542
   0.37096328  0.20126851  0.12691347
   0.12070997  0.20223601  0.12715904
   0.95050311  0.78609686  0.22655288
   0.78353054  0.61970191  0.32676770
   0.28374931  0.62012828  0.32714466
   0.78727945  0.61647671  0.02362530
   0.28702703  0.61754617  0.02398694
   0.36897233  0.70185508  0.12640073
   0.36908939  0.45183140  0.12708179
   0.20324402  0.28576853  0.22720979
   0.78478962  0.36956703  0.32647683
   0.78704340  0.36690387  0.02397947
   0.95192023  0.03616888  0.22627349
   0.45073617  0.78550421  0.22662200
   0.70058490  0.53619773  0.22648699
   0.20094012  0.78606011  0.22678767
   0.45230632  0.03531359  0.22658454
   0.11904825  0.70151079  0.12698740
   0.70180678  0.03576327  0.22611924
   0.78438568  0.11921387  0.32617624
   0.53328076  0.86909905  0.32664587
   0.78885100  0.11683920  0.02396434
   0.53776417  0.86652142  0.02337092
   0.20142634  0.53624396  0.22729539
   0.95232412  0.28637455  0.22666136
   0.87038089  0.95121854  0.12629720
   0.70211037  0.28623016  0.22641872
   0.45273497  0.28567567  0.22686156
 
 position of ions in cartesian coordinates  (Angst):
  13.58889641  8.40436529  7.17906429
   5.22411961  8.41586373  7.18411401
   3.83849428  5.99378754  7.19160780
  13.62989729  8.38152442  0.52128432
   5.27214193  8.37108865  0.52606995
   3.85880245  5.96565299  0.53209056
   8.04803949  1.95093747  2.78158065
   9.43939803  9.19634606  2.78266196
   2.45264059  3.57488109  7.19056327
   2.47802362  3.55721048  0.53521602
  10.84006108  1.95086857  2.78600268
  13.60434740  5.18244443  4.99258479
   3.84698619  1.15368382  7.19427334
   9.41124543  5.98674960  7.19288374
   5.24749905  3.57477453  7.19576507
   3.87073426  1.14117295  0.52843966
   9.44001063  5.96356373  0.50870087
   5.26331234  3.54559316  0.53681181
  12.22515438  9.19309786  2.77761706
  12.20126512  7.59291520  4.98183717
  13.60942735  6.77901940  2.78384011
   9.42605725  4.36865923  2.78213972
   8.01563700  8.40626553  7.19148696
   8.05692921  8.38923165  0.51634604
  10.81683868  6.78001517  2.77671989
   2.45885823  0.34459067  4.98930564
  14.97447699  9.20967725  9.44088741
   3.83942281  4.38057059  9.44639767
   6.62654618  9.21966146  9.44778202
  12.20453371  4.38252193  9.44674746
   9.41763694  9.20705500  9.45484669
  10.80724771  1.95445080  9.43337995
   2.44079936  1.96373023  9.44639856
  12.18761341  9.20376565  9.44925424
  13.60319303  6.79513200  9.44744943
   5.23783713  1.97047283  9.45106985
   8.00944950  6.79879570  9.46011671
   9.42310688  4.37659056  9.45158043
   5.22821850  6.80975851  9.45130578
   8.02109405  1.95460236  9.44524397
   8.03579198  3.56791170  7.18911796
   8.03861290  3.55671989  0.52390294
   6.63066147  1.14926336  7.18645985
   6.66351209  1.12700546  0.52269881
  12.22125385  4.36647364  2.78647565
   3.85732642  4.36772423  2.80112002
   1.05513791  1.15857979  7.18125228
   1.08784785  1.14141469  0.53352236
   6.65375570  9.19878672  2.78509554
   6.64114895  4.37858666  9.45176114
   8.02518097  5.18266206  4.99119366
  10.80165968  6.79301859  9.45549918
   5.26302848  1.94522859  2.79209629
   2.47560023  1.95457935  2.79749892
  14.99403520  7.59750300  4.98416337
  12.20213753  5.98932188  7.18888934
   6.62695812  5.99344273  7.19718260
  12.22597866  5.95815085  0.51975659
   6.64912930  5.96848700  0.52771278
   8.03408256  6.78331945  2.78081604
   6.64025682  4.36687968  2.79579936
   3.86279161  2.76190806  4.99861545
  10.82043624  3.57180749  7.18249034
  10.83072799  3.54606843  0.52754845
  10.82525210  0.34956653  4.97801684
   9.41332908  7.59177513  4.98568407
  10.81051082  5.18226703  4.98271380
   6.62870714  7.59714780  4.98932866
   5.24478842  0.34130036  4.98485990
   5.24300863  6.77999188  2.79372283
   8.03172275  0.34564638  4.97462333
   9.41895755  1.15218335  7.17587733
  10.80098596  8.39970616  7.18620906
   9.45553987  1.12923257  0.52721542
  10.83663768  8.37479379  0.51416023
   5.24015924  5.18271390  5.00049850
  12.22590719  2.76776520  4.98655001
  15.02125021  9.19337823  2.77853829
   9.43271601  2.76636966  4.98121194
   6.64659253  2.76101061  4.99095430
 


--------------------------------------------------------------------------------------------------------


 k-point  1 :   0.0000 0.0000 0.0000  plane waves:   69505
 k-point  2 :   0.5000 0.0000 0.0000  plane waves:   69454
 k-point  3 :   0.0000 0.5000 0.0000  plane waves:   69454
 k-point  4 :   0.5000 0.5000 0.0000  plane waves:   69454

 maximum and minimum number of plane-waves per node :     17422    17318

 maximum number of plane-waves:     69505
 maximum index in each direction: 
   IXMAX=   21   IYMAX=   21   IZMAX=   42
   IXMIN=  -21   IYMIN=  -21   IZMIN=  -42


 real space projection operators:
  total allocation   :      87002.44 KBytes
  max/ min on nodes  :      22233.52      21271.92


 parallel 3D FFT for wavefunctions:
    minimum data exchange during FFTs selected (reduces bandwidth)
 parallel 3D FFT for charge:
    minimum data exchange during FFTs selected (reduces bandwidth)


 total amount of memory used by VASP MPI-rank0   257038. kBytes
=======================================================================

   base      :      30000. kBytes
   nonlr-proj:      38228. kBytes
   fftplans  :      20284. kBytes
   grid      :      49760. kBytes
   one-center:        622. kBytes
   wavefun   :     118144. kBytes
 
     INWAV:  cpu time    0.0001: real time    0.0001
 Broyden mixing: mesh for mixing (old mesh)
   NGX = 43   NGY = 43   NGZ = 85
  (NGX  =180   NGY  =180   NGZ  =336)
  gives a total of 157165 points

 initial charge density was supplied:
 charge density of overlapping atoms calculated
 number of electron     800.0000000 magnetization      80.0000000
 keeping initial charge density in first step


--------------------------------------------------------------------------------------------------------


 Maximum index for non-local projection operator         2130
 Maximum index for augmentation-charges         1798 (set IRDMAX)


--------------------------------------------------------------------------------------------------------


 First call to EWALD:  gamma=   0.133
 Maximum number of real-space cells 4x 4x 2
 Maximum number of reciprocal cells 2x 2x 4

    FEWALD:  cpu time    0.0040: real time    0.0040


--------------------------------------- Iteration      1(   1)  ---------------------------------------


    POTLOK:  cpu time    0.4322: real time    0.4533
    SETDIJ:  cpu time    0.0341: real time    0.0345
     EDDAV:  cpu time   63.3825: real time   63.5935
       DOS:  cpu time    0.0022: real time    0.0025
    --------------------------------------------
      LOOP:  cpu time   63.8510: real time   64.0837

 eigenvalue-minimisations  :  8320
 total energy-change (2. order) : 0.5542531E+04  (-0.3896450E+05)
 number of electron     800.0000000 magnetization      80.0000000
 augmentation part      800.0000000 magnetization      80.0000000

 Free energy of the ion-electron system (eV)
  ---------------------------------------------------
  alpha Z        PSCENC =      2563.82377583
  Ewald energy   TEWEN  =    182995.78383750
  -Hartree energ DENC   =   -247111.40560855
  -exchange      EXHF   =         0.00000000
  -V(xc)+E(xc)   XCENC  =       290.69374762
  PAW double counting   =     55683.70208444   -53421.37691584
  entropy T*S    EENTRO =         0.00521203
  eigenvalues    EBANDS =      6212.06073777
  atomic energy  EATOM  =     58329.24398462
  Solvation  Ediel_sol  =         0.00000000
  ---------------------------------------------------
  free energy    TOTEN  =      5542.53085542 eV

  energy without entropy =     5542.52564339  energy(sigma->0) =     5542.52911808


--------------------------------------------------------------------------------------------------------




--------------------------------------- Iteration      1(   2)  ---------------------------------------


     EDDAV:  cpu time   69.6946: real time   69.8926
       DOS:  cpu time    0.0020: real time    0.0020
    --------------------------------------------
      LOOP:  cpu time   69.6966: real time   69.8946

 eigenvalue-minimisations  :  9320
 total energy-change (2. order) :-0.5720633E+04  (-0.5248317E+04)
 number of electron     800.0000000 magnetization      80.0000000
 augmentation part      800.0000000 magnetization      80.0000000

 Free energy of the ion-electron system (eV)
  ---------------------------------------------------
  alpha Z        PSCENC =      2563.82377583
  Ewald energy   TEWEN  =    182995.78383750
  -Hartree energ DENC   =   -247111.40560855
  -exchange      EXHF   =         0.00000000
  -V(xc)+E(xc)   XCENC  =       290.69374762
  PAW double counting   =     55683.70208444   -53421.37691584
  entropy T*S    EENTRO =         0.00092270
  eigenvalues    EBANDS =       491.43169822
  atomic energy  EATOM  =     58329.24398462
  Solvation  Ediel_sol  =         0.00000000
  ---------------------------------------------------
  free energy    TOTEN  =      -178.10247346 eV

  energy without entropy =     -178.10339616  energy(sigma->0) =     -178.10278103


--------------------------------------------------------------------------------------------------------




--------------------------------------- Iteration      1(   3)  ---------------------------------------


     EDDAV:  cpu time   70.5480: real time   70.7516
       DOS:  cpu time    0.0020: real time    0.0020
    --------------------------------------------
      LOOP:  cpu time   70.5501: real time   70.7536

 eigenvalue-minimisations  :  9440
 total energy-change (2. order) :-0.3049111E+03  (-0.2792544E+03)
 number of electron     800.0000000 magnetization      80.0000000
 augmentation part      800.0000000 magnetization      80.0000000

 Free energy of the ion-electron system (eV)
  ---------------------------------------------------
  alpha Z        PSCENC =      2563.82377583
  Ewald energy   TEWEN  =    182995.78383750
  -Hartree energ DENC   =   -247111.40560855
  -exchange      EXHF   =         0.00000000
  -V(xc)+E(xc)   XCENC  =       290.69374762
  PAW double counting   =     55683.70208444   -53421.37691584
  entropy T*S    EENTRO =         0.08915261
  eigenvalues    EBANDS =       186.43235555
  atomic energy  EATOM  =     58329.24398462
  Solvation  Ediel_sol  =         0.00000000
  ---------------------------------------------------
  free energy    TOTEN  =      -483.01358623 eV

  energy without entropy =     -483.10273884  energy(sigma->0) =     -483.04330376


--------------------------------------------------------------------------------------------------------




--------------------------------------- Iteration      1(   4)  ---------------------------------------


     EDDAV:  cpu time   73.6917: real time   73.9012
       DOS:  cpu time    0.0022: real time    0.0022
    --------------------------------------------
      LOOP:  cpu time   73.6939: real time   73.9034

 eigenvalue-minimisations  :  9960
 total energy-change (2. order) :-0.8813699E+01  (-0.8706144E+01)
 number of electron     800.0000000 magnetization      80.0000000
 augmentation part      800.0000000 magnetization      80.0000000

 Free energy of the ion-electron system (eV)
  ---------------------------------------------------
  alpha Z        PSCENC =      2563.82377583
  Ewald energy   TEWEN  =    182995.78383750
  -Hartree energ DENC   =   -247111.40560855
  -exchange      EXHF   =         0.00000000
  -V(xc)+E(xc)   XCENC  =       290.69374762
  PAW double counting   =     55683.70208444   -53421.37691584
  entropy T*S    EENTRO =         0.08815907
  eigenvalues    EBANDS =       177.61965016
  atomic energy  EATOM  =     58329.24398462
  Solvation  Ediel_sol  =         0.00000000
  ---------------------------------------------------
  free energy    TOTEN  =      -491.82728514 eV

  energy without entropy =     -491.91544422  energy(sigma->0) =     -491.85667150


--------------------------------------------------------------------------------------------------------




--------------------------------------- Iteration      1(   5)  ---------------------------------------


     EDDAV:  cpu time   73.0296: real time   73.2375
       DOS:  cpu time    0.0021: real time    0.0021
    CHARGE:  cpu time    4.7809: real time    4.7947
    MIXING:  cpu time    0.0100: real time    0.0106
    --------------------------------------------
      LOOP:  cpu time   77.8227: real time   78.0449

 eigenvalue-minimisations  :  9840
 total energy-change (2. order) :-0.2845761E+00  (-0.2838909E+00)
 number of electron     800.0000014 magnetization      74.8991162
 augmentation part      232.9492364 magnetization      54.1933188

 Broyden mixing:
  rms(total) = 0.10681E+02    rms(broyden)= 0.10681E+02
  rms(prec ) = 0.10806E+02
  weight for this iteration     100.00

 Free energy of the ion-electron system (eV)
  ---------------------------------------------------
  alpha Z        PSCENC =      2563.82377583
  Ewald energy   TEWEN  =    182995.78383750
  -Hartree energ DENC   =   -247111.40560855
  -exchange      EXHF   =         0.00000000
  -V(xc)+E(xc)   XCENC  =       290.69374762
  PAW double counting   =     55683.70208444   -53421.37691584
  entropy T*S    EENTRO =         0.08813196
  eigenvalues    EBANDS =       177.33510118
  atomic energy  EATOM  =     58329.24398462
  Solvation  Ediel_sol  =         0.00000000
  ---------------------------------------------------
  free energy    TOTEN  =      -492.11186125 eV

  energy without entropy =     -492.19999320  energy(sigma->0) =     -492.14123857


--------------------------------------------------------------------------------------------------------




--------------------------------------- Iteration      1(   6)  ---------------------------------------


    POTLOK:  cpu time    0.4331: real time    0.4343
    SETDIJ:  cpu time    0.0353: real time    0.0354
    EDDIAG:  cpu time   11.1923: real time   11.2247
  RMM-DIIS:  cpu time   39.7259: real time   39.8360
    ORTHCH:  cpu time    1.1705: real time    1.1733
       DOS:  cpu time    0.0021: real time    0.0021
    CHARGE:  cpu time    4.7373: real time    4.7485
    MIXING:  cpu time    0.0111: real time    0.0113
    --------------------------------------------
      LOOP:  cpu time   57.3076: real time   57.4654

 eigenvalue-minimisations  :  8350
 total energy-change (2. order) : 0.1592513E+02  (-0.7681109E+01)
 number of electron     800.0000012 magnetization      70.7736166
 augmentation part      245.6285854 magnetization      51.5814573

 Broyden mixing:
  rms(total) = 0.82429E+01    rms(broyden)= 0.82429E+01
  rms(prec ) = 0.89939E+01
  weight for this iteration     100.00

 eigenvalues of (default mixing * dielectric matrix)
  average eigenvalue GAMMA=   0.8582
  0.8582

 Free energy of the ion-electron system (eV)
  ---------------------------------------------------
  alpha Z        PSCENC =      2563.82377583
  Ewald energy   TEWEN  =    182995.78383750
  -Hartree energ DENC   =   -246133.41816719
  -exchange      EXHF   =         0.00000000
  -V(xc)+E(xc)   XCENC  =       272.22740627
  PAW double counting   =     62375.61770702   -60236.36266588
  entropy T*S    EENTRO =        -0.06433284
  eigenvalues    EBANDS =      -643.03827173
  atomic energy  EATOM  =     58329.24398462
  Solvation  Ediel_sol  =         0.00000000
  ---------------------------------------------------
  free energy    TOTEN  =      -476.18672640 eV

  energy without entropy =     -476.12239356  energy(sigma->0) =     -476.16528212


--------------------------------------------------------------------------------------------------------




--------------------------------------- Iteration      1(   7)  ---------------------------------------


    POTLOK:  cpu time    0.4347: real time    0.4357
    SETDIJ:  cpu time    0.0343: real time    0.0343
    EDDIAG:  cpu time   11.2231: real time   11.2496
  RMM-DIIS:  cpu time   39.3984: real time   39.5122
    ORTHCH:  cpu time    1.1731: real time    1.1759
       DOS:  cpu time    0.0021: real time    0.0021
    CHARGE:  cpu time    4.8258: real time    4.8374
    MIXING:  cpu time    0.0106: real time    0.0107
    --------------------------------------------
      LOOP:  cpu time   57.1022: real time   57.2580

 eigenvalue-minimisations  :  8353
 total energy-change (2. order) :-0.1169499E+03  (-0.1459309E+02)
 number of electron     800.0000017 magnetization      62.9855767
 augmentation part      239.2566195 magnetization      53.2544732

 Broyden mixing:
  rms(total) = 0.99439E+01    rms(broyden)= 0.99439E+01
  rms(prec ) = 0.12699E+02
  weight for this iteration     100.00

 eigenvalues of (default mixing * dielectric matrix)
  average eigenvalue GAMMA=   0.8217
  1.3479  0.2954

 Free energy of the ion-electron system (eV)
  ---------------------------------------------------
  alpha Z        PSCENC =      2563.82377583
  Ewald energy   TEWEN  =    182995.78383750
  -Hartree energ DENC   =   -247132.76670023
  -exchange      EXHF   =         0.00000000
  -V(xc)+E(xc)   XCENC  =       265.97748269
  PAW double counting   =     66069.29562604   -63970.47836780
  entropy T*S    EENTRO =        -0.07310846
  eigenvalues    EBANDS =       286.05685162
  atomic energy  EATOM  =     58329.24398462
  Solvation  Ediel_sol  =         0.00000000
  ---------------------------------------------------
  free energy    TOTEN  =      -593.13661819 eV

  energy without entropy =     -593.06350973  energy(sigma->0) =     -593.11224870


--------------------------------------------------------------------------------------------------------




--------------------------------------- Iteration      1(   8)  ---------------------------------------


    POTLOK:  cpu time    0.4358: real time    0.4368
    SETDIJ:  cpu time    0.0344: real time    0.0345
    EDDIAG:  cpu time   11.2494: real time   11.2760
  RMM-DIIS:  cpu time   39.7882: real time   39.9021
    ORTHCH:  cpu time    1.1672: real time    1.1709
       DOS:  cpu time    0.0021: real time    0.0021
    CHARGE:  cpu time    4.8302: real time    4.8436
    MIXING:  cpu time    0.0109: real time    0.0111
    --------------------------------------------
      LOOP:  cpu time   57.5182: real time   57.6771

 eigenvalue-minimisations  :  8378
 total energy-change (2. order) : 0.1269982E+03  (-0.7175496E+01)
 number of electron     800.0000017 magnetization      59.1682122
 augmentation part      249.6205860 magnetization      47.0199499

 Broyden mixing:
  rms(total) = 0.46101E+01    rms(broyden)= 0.46101E+01
  rms(prec ) = 0.51541E+01
  weight for this iteration     100.00

 eigenvalues of (default mixing * dielectric matrix)
  average eigenvalue GAMMA=   0.9388
  1.9935  0.5608  0.2620

 Free energy of the ion-electron system (eV)
  ---------------------------------------------------
  alpha Z        PSCENC =      2563.82377583
  Ewald energy   TEWEN  =    182995.78383750
  -Hartree energ DENC   =   -246256.89778404
  -exchange      EXHF   =         0.00000000
  -V(xc)+E(xc)   XCENC  =       265.84600025
  PAW double counting   =     71143.66490609   -69113.35060036
  entropy T*S    EENTRO =        -0.02964694
  eigenvalues    EBANDS =      -394.22289451
  atomic energy  EATOM  =     58329.24398462
  Solvation  Ediel_sol  =         0.00000000
  ---------------------------------------------------
  free energy    TOTEN  =      -466.13842157 eV

  energy without entropy =     -466.10877463  energy(sigma->0) =     -466.12853926


--------------------------------------------------------------------------------------------------------




--------------------------------------- Iteration      1(   9)  ---------------------------------------


    POTLOK:  cpu time    0.4346: real time    0.4360
    SETDIJ:  cpu time    0.0347: real time    0.0348
    EDDIAG:  cpu time   11.2016: real time   11.2335
  RMM-DIIS:  cpu time   39.5359: real time   39.6485
    ORTHCH:  cpu time    1.1702: real time    1.1735
       DOS:  cpu time    0.0021: real time    0.0021
    CHARGE:  cpu time    4.7334: real time    4.7471
    MIXING:  cpu time    0.0115: real time    0.0115
    --------------------------------------------
      LOOP:  cpu time   57.1241: real time   57.2869

 eigenvalue-minimisations  :  8366
 total energy-change (2. order) : 0.1181586E+02  (-0.5761285E+01)
 number of electron     800.0000013 magnetization      55.6788477
 augmentation part      249.6270609 magnetization      41.6792050

 Broyden mixing:
  rms(total) = 0.39438E+01    rms(broyden)= 0.39438E+01
  rms(prec ) = 0.45044E+01
  weight for this iteration     100.00

 eigenvalues of (default mixing * dielectric matrix)
  average eigenvalue GAMMA=   0.8484
  2.2285  0.5631  0.2454  0.3568

 Free energy of the ion-electron system (eV)
  ---------------------------------------------------
  alpha Z        PSCENC =      2563.82377583
  Ewald energy   TEWEN  =    182995.78383750
  -Hartree energ DENC   =   -246203.45253737
  -exchange      EXHF   =         0.00000000
  -V(xc)+E(xc)   XCENC  =       268.32184293
  PAW double counting   =     72306.53653233   -70282.98281379
  entropy T*S    EENTRO =        -0.09308417
  eigenvalues    EBANDS =      -431.50409802
  atomic energy  EATOM  =     58329.24398462
  Solvation  Ediel_sol  =         0.00000000
  ---------------------------------------------------
  free energy    TOTEN  =      -454.32256014 eV

  energy without entropy =     -454.22947598  energy(sigma->0) =     -454.29153209


--------------------------------------------------------------------------------------------------------




--------------------------------------- Iteration      1(  10)  ---------------------------------------


    POTLOK:  cpu time    0.4345: real time    0.4355
    SETDIJ:  cpu time    0.0349: real time    0.0350
    EDDIAG:  cpu time   11.1999: real time   11.2320
  RMM-DIIS:  cpu time   39.7228: real time   39.8357
    ORTHCH:  cpu time    1.1873: real time    1.1907
       DOS:  cpu time    0.0020: real time    0.0020
    CHARGE:  cpu time    4.7315: real time    4.7449
    MIXING:  cpu time    0.0117: real time    0.0117
    --------------------------------------------
      LOOP:  cpu time   57.3245: real time   57.4876

 eigenvalue-minimisations  :  8364
 total energy-change (2. order) :-0.2437120E+02  (-0.1003543E+01)
 number of electron     800.0000013 magnetization      54.6380746
 augmentation part      248.9616139 magnetization      40.3094105

 Broyden mixing:
  rms(total) = 0.52133E+01    rms(broyden)= 0.52133E+01
  rms(prec ) = 0.86719E+01
  weight for this iteration     100.00

 eigenvalues of (default mixing * dielectric matrix)
  average eigenvalue GAMMA=   0.7222
  2.2637  0.5832  0.3548  0.2606  0.1490

 Free energy of the ion-electron system (eV)
  ---------------------------------------------------
  alpha Z        PSCENC =      2563.82377583
  Ewald energy   TEWEN  =    182995.78383750
  -Hartree energ DENC   =   -246266.42351807
  -exchange      EXHF   =         0.00000000
  -V(xc)+E(xc)   XCENC  =       268.86756529
  PAW double counting   =     73051.58489425   -71030.60064352
  entropy T*S    EENTRO =         0.04508050
  eigenvalues    EBANDS =      -391.01873224
  atomic energy  EATOM  =     58329.24398462
  Solvation  Ediel_sol  =         0.00000000
  ---------------------------------------------------
  free energy    TOTEN  =      -478.69375584 eV

  energy without entropy =     -478.73883634  energy(sigma->0) =     -478.70878267


--------------------------------------------------------------------------------------------------------




--------------------------------------- Iteration      1(  11)  ---------------------------------------


    POTLOK:  cpu time    0.4388: real time    0.4403
    SETDIJ:  cpu time    0.0342: real time    0.0342
    EDDIAG:  cpu time   11.2059: real time   11.2378
  RMM-DIIS:  cpu time   39.7439: real time   39.8570
    ORTHCH:  cpu time    1.1649: real time    1.1682
       DOS:  cpu time    0.0022: real time    0.0022
    CHARGE:  cpu time    4.7703: real time    4.7839
    MIXING:  cpu time    0.0124: real time    0.0124
    --------------------------------------------
      LOOP:  cpu time   57.3727: real time   57.5361

 eigenvalue-minimisations  :  8384
 total energy-change (2. order) : 0.3069807E+02  (-0.4079681E+00)
 number of electron     800.0000014 magnetization      50.9342616
 augmentation part      248.8414646 magnetization      33.6305545

 Broyden mixing:
  rms(total) = 0.20223E+01    rms(broyden)= 0.20223E+01
  rms(prec ) = 0.29652E+01
  weight for this iteration     100.00

 eigenvalues of (default mixing * dielectric matrix)
  average eigenvalue GAMMA=   0.7370
  2.1905  0.7817  0.7817  0.3313  0.2544  0.0823

 Free energy of the ion-electron system (eV)
  ---------------------------------------------------
  alpha Z        PSCENC =      2563.82377583
  Ewald energy   TEWEN  =    182995.78383750
  -Hartree energ DENC   =   -246298.96784149
  -exchange      EXHF   =         0.00000000
  -V(xc)+E(xc)   XCENC  =       268.87975390
  PAW double counting   =     73202.93059233   -71182.65790100
  entropy T*S    EENTRO =        -0.07943680
  eigenvalues    EBANDS =      -326.95244674
  atomic energy  EATOM  =     58329.24398462
  Solvation  Ediel_sol  =         0.00000000
  ---------------------------------------------------
  free energy    TOTEN  =      -447.99568185 eV

  energy without entropy =     -447.91624505  energy(sigma->0) =     -447.96920292


--------------------------------------------------------------------------------------------------------




--------------------------------------- Iteration      1(  12)  ---------------------------------------


    POTLOK:  cpu time    0.4407: real time    0.4418
    SETDIJ:  cpu time    0.0344: real time    0.0345
    EDDIAG:  cpu time   11.2112: real time   11.2417
  RMM-DIIS:  cpu time   39.6954: real time   39.7892
    ORTHCH:  cpu time    1.1710: real time    1.1738
       DOS:  cpu time    0.0021: real time    0.0021
    CHARGE:  cpu time    4.7760: real time    4.7873
    MIXING:  cpu time    0.0128: real time    0.0128
    --------------------------------------------
      LOOP:  cpu time   57.3435: real time   57.4832

 eigenvalue-minimisations  :  8374
 total energy-change (2. order) :-0.6967007E+01  (-0.3965214E+00)
 number of electron     800.0000015 magnetization      49.9084813
 augmentation part      247.8925394 magnetization      33.3143725

 Broyden mixing:
  rms(total) = 0.22218E+01    rms(broyden)= 0.22218E+01
  rms(prec ) = 0.28875E+01
  weight for this iteration     100.00

 eigenvalues of (default mixing * dielectric matrix)
  average eigenvalue GAMMA=   0.7003
  2.0684  0.9086  0.9086  0.3469  0.3469  0.2407  0.0822

 Free energy of the ion-electron system (eV)
  ---------------------------------------------------
  alpha Z        PSCENC =      2563.82377583
  Ewald energy   TEWEN  =    182995.78383750
  -Hartree energ DENC   =   -246422.62901617
  -exchange      EXHF   =         0.00000000
  -V(xc)+E(xc)   XCENC  =       266.89838745
  PAW double counting   =     73119.09335403   -71096.80441520
  entropy T*S    EENTRO =         0.02818561
  eigenvalues    EBANDS =      -210.40078246
  atomic energy  EATOM  =     58329.24398462
  Solvation  Ediel_sol  =         0.00000000
  ---------------------------------------------------
  free energy    TOTEN  =      -454.96268877 eV

  energy without entropy =     -454.99087439  energy(sigma->0) =     -454.97208398


--------------------------------------------------------------------------------------------------------




--------------------------------------- Iteration      1(  13)  ---------------------------------------


    POTLOK:  cpu time    0.4447: real time    0.4458
    SETDIJ:  cpu time    0.0394: real time    0.0395
    EDDIAG:  cpu time   11.2307: real time   11.2576
  RMM-DIIS:  cpu time   39.9275: real time   40.0219
    ORTHCH:  cpu time    1.1699: real time    1.1727
       DOS:  cpu time    0.0021: real time    0.0021
    CHARGE:  cpu time    4.7562: real time    4.7676
    MIXING:  cpu time    0.0131: real time    0.0131
    --------------------------------------------
      LOOP:  cpu time   57.5835: real time   57.7202

 eigenvalue-minimisations  :  8378
 total energy-change (2. order) : 0.9402482E+00  (-0.1659679E+00)
 number of electron     800.0000014 magnetization      47.8173252
 augmentation part      247.8715845 magnetization      29.3693686

 Broyden mixing:
  rms(total) = 0.12086E+01    rms(broyden)= 0.12086E+01
  rms(prec ) = 0.15689E+01
  weight for this iteration     100.00

 eigenvalues of (default mixing * dielectric matrix)
  average eigenvalue GAMMA=   0.7312
  1.6616  1.3907  1.3907  0.4927  0.3399  0.2673  0.2243  0.0822

 Free energy of the ion-electron system (eV)
  ---------------------------------------------------
  alpha Z        PSCENC =      2563.82377583
  Ewald energy   TEWEN  =    182995.78383750
  -Hartree energ DENC   =   -246412.84836984
  -exchange      EXHF   =         0.00000000
  -V(xc)+E(xc)   XCENC  =       266.55097884
  PAW double counting   =     72947.25793451   -70922.48752157
  entropy T*S    EENTRO =         0.11820826
  eigenvalues    EBANDS =      -221.46526869
  atomic energy  EATOM  =     58329.24398462
  Solvation  Ediel_sol  =         0.00000000
  ---------------------------------------------------
  free energy    TOTEN  =      -454.02244055 eV

  energy without entropy =     -454.14064881  energy(sigma->0) =     -454.06184331


--------------------------------------------------------------------------------------------------------




--------------------------------------- Iteration      1(  14)  ---------------------------------------


    POTLOK:  cpu time    0.4407: real time    0.4417
    SETDIJ:  cpu time    0.0343: real time    0.0344
    EDDIAG:  cpu time   11.2389: real time   11.2658
  RMM-DIIS:  cpu time   39.8371: real time   39.9403
    ORTHCH:  cpu time    1.1689: real time    1.1722
       DOS:  cpu time    0.0021: real time    0.0021
    CHARGE:  cpu time    4.7250: real time    4.7385
    MIXING:  cpu time    0.0136: real time    0.0136
    --------------------------------------------
      LOOP:  cpu time   57.4606: real time   57.6086

 eigenvalue-minimisations  :  8359
 total energy-change (2. order) :-0.3806072E+01  (-0.3044734E+00)
 number of electron     800.0000014 magnetization      46.0263990
 augmentation part      247.8597957 magnetization      28.2744370

 Broyden mixing:
  rms(total) = 0.90506E+00    rms(broyden)= 0.90506E+00
  rms(prec ) = 0.10144E+01
  weight for this iteration     100.00

 eigenvalues of (default mixing * dielectric matrix)
  average eigenvalue GAMMA=   0.7189
  1.6195  1.6195  1.1537  0.6587  0.4215  0.4215  0.2598  0.2340  0.0822

 Free energy of the ion-electron system (eV)
  ---------------------------------------------------
  alpha Z        PSCENC =      2563.82377583
  Ewald energy   TEWEN  =    182995.78383750
  -Hartree energ DENC   =   -246382.31258542
  -exchange      EXHF   =         0.00000000
  -V(xc)+E(xc)   XCENC  =       264.77380485
  PAW double counting   =     72645.09652430   -70616.63695267
  entropy T*S    EENTRO =         0.17146124
  eigenvalues    EBANDS =      -257.77236282
  atomic energy  EATOM  =     58329.24398462
  Solvation  Ediel_sol  =         0.00000000
  ---------------------------------------------------
  free energy    TOTEN  =      -457.82851258 eV

  energy without entropy =     -457.99997382  energy(sigma->0) =     -457.88566633


--------------------------------------------------------------------------------------------------------




--------------------------------------- Iteration      1(  15)  ---------------------------------------


    POTLOK:  cpu time    0.4401: real time    0.4411
    SETDIJ:  cpu time    0.0345: real time    0.0346
    EDDIAG:  cpu time   11.2113: real time   11.2433
  RMM-DIIS:  cpu time   39.7326: real time   39.8459
    ORTHCH:  cpu time    1.1682: real time    1.1714
       DOS:  cpu time    0.0021: real time    0.0021
    CHARGE:  cpu time    4.7274: real time    4.7410
    MIXING:  cpu time    0.0142: real time    0.0143
    --------------------------------------------
      LOOP:  cpu time   57.3304: real time   57.4935

 eigenvalue-minimisations  :  8350
 total energy-change (2. order) :-0.1808240E+01  (-0.8074709E-01)
 number of electron     800.0000014 magnetization      44.5218459
 augmentation part      247.8140874 magnetization      26.9470409

 Broyden mixing:
  rms(total) = 0.71420E+00    rms(broyden)= 0.71420E+00
  rms(prec ) = 0.80520E+00
  weight for this iteration     100.00

 eigenvalues of (default mixing * dielectric matrix)
  average eigenvalue GAMMA=   0.7072
  1.7210  1.7210  0.9258  0.9258  0.5165  0.3932  0.2957  0.2589  0.2318  0.0822

 Free energy of the ion-electron system (eV)
  ---------------------------------------------------
  alpha Z        PSCENC =      2563.82377583
  Ewald energy   TEWEN  =    182995.78383750
  -Hartree energ DENC   =   -246388.43328249
  -exchange      EXHF   =         0.00000000
  -V(xc)+E(xc)   XCENC  =       263.37223439
  PAW double counting   =     72751.55621211   -70724.36578047
  entropy T*S    EENTRO =         0.18560666
  eigenvalues    EBANDS =      -250.80334111
  atomic energy  EATOM  =     58329.24398462
  Solvation  Ediel_sol  =         0.00000000
  ---------------------------------------------------
  free energy    TOTEN  =      -459.63675296 eV

  energy without entropy =     -459.82235963  energy(sigma->0) =     -459.69862185


--------------------------------------------------------------------------------------------------------




--------------------------------------- Iteration      1(  16)  ---------------------------------------


    POTLOK:  cpu time    0.4409: real time    0.4421
    SETDIJ:  cpu time    0.0359: real time    0.0362
    EDDIAG:  cpu time   11.2178: real time   11.2498
  RMM-DIIS:  cpu time   40.0047: real time   40.1185
    ORTHCH:  cpu time    1.1667: real time    1.1700
       DOS:  cpu time    0.0020: real time    0.0020
    CHARGE:  cpu time    4.7228: real time    4.7363
    MIXING:  cpu time    0.0145: real time    0.0145
    --------------------------------------------
      LOOP:  cpu time   57.6053: real time   57.7693

 eigenvalue-minimisations  :  8366
 total energy-change (2. order) :-0.1271974E+01  (-0.4806823E-01)
 number of electron     800.0000014 magnetization      41.1780341
 augmentation part      247.7780052 magnetization      23.7052321

 Broyden mixing:
  rms(total) = 0.47336E+00    rms(broyden)= 0.47336E+00
  rms(prec ) = 0.50928E+00
  weight for this iteration     100.00

 eigenvalues of (default mixing * dielectric matrix)
  average eigenvalue GAMMA=   0.7900
  2.0450  2.0450  1.1161  1.1161  0.7479  0.4060  0.4060  0.0822  0.2667  0.2364
  0.2227

 Free energy of the ion-electron system (eV)
  ---------------------------------------------------
  alpha Z        PSCENC =      2563.82377583
  Ewald energy   TEWEN  =    182995.78383750
  -Hartree energ DENC   =   -246394.22828204
  -exchange      EXHF   =         0.00000000
  -V(xc)+E(xc)   XCENC  =       262.22240011
  PAW double counting   =     72852.23418396   -70826.25472666
  entropy T*S    EENTRO =         0.19118746
  eigenvalues    EBANDS =      -243.92508763
  atomic energy  EATOM  =     58329.24398462
  Solvation  Ediel_sol  =         0.00000000
  ---------------------------------------------------
  free energy    TOTEN  =      -460.90872685 eV

  energy without entropy =     -461.09991431  energy(sigma->0) =     -460.97245600


--------------------------------------------------------------------------------------------------------




--------------------------------------- Iteration      1(  17)  ---------------------------------------


    POTLOK:  cpu time    0.4404: real time    0.4414
    SETDIJ:  cpu time    0.0359: real time    0.0360
    EDDIAG:  cpu time   11.1976: real time   11.2302
  RMM-DIIS:  cpu time   39.6625: real time   39.7751
    ORTHCH:  cpu time    1.1658: real time    1.1692
       DOS:  cpu time    0.0020: real time    0.0020
    CHARGE:  cpu time    4.7214: real time    4.7348
    MIXING:  cpu time    0.0150: real time    0.0150
    --------------------------------------------
      LOOP:  cpu time   57.2407: real time   57.4037

 eigenvalue-minimisations  :  8345
 total energy-change (2. order) :-0.2945382E+01  (-0.1596287E+00)
 number of electron     800.0000014 magnetization      39.0702433
 augmentation part      247.7872308 magnetization      22.2521633

 Broyden mixing:
  rms(total) = 0.50955E+00    rms(broyden)= 0.50955E+00
  rms(prec ) = 0.58125E+00
  weight for this iteration     100.00

 eigenvalues of (default mixing * dielectric matrix)
  average eigenvalue GAMMA=   0.8086
  2.3547  2.3547  1.0902  1.0902  0.7786  0.5210  0.3583  0.3583  0.0822  0.2565
  0.2367  0.2222

 Free energy of the ion-electron system (eV)
  ---------------------------------------------------
  alpha Z        PSCENC =      2563.82377583
  Ewald energy   TEWEN  =    182995.78383750
  -Hartree energ DENC   =   -246387.12035843
  -exchange      EXHF   =         0.00000000
  -V(xc)+E(xc)   XCENC  =       260.19773440
  PAW double counting   =     72885.09632716   -70859.64506876
  entropy T*S    EENTRO =         0.18784723
  eigenvalues    EBANDS =      -251.42218813
  atomic energy  EATOM  =     58329.24398462
  Solvation  Ediel_sol  =         0.00000000
  ---------------------------------------------------
  free energy    TOTEN  =      -463.85410857 eV

  energy without entropy =     -464.04195580  energy(sigma->0) =     -463.91672431


--------------------------------------------------------------------------------------------------------




--------------------------------------- Iteration      1(  18)  ---------------------------------------


    POTLOK:  cpu time    0.4408: real time    0.4422
    SETDIJ:  cpu time    0.0361: real time    0.0362
    EDDIAG:  cpu time   11.2082: real time   11.2400
  RMM-DIIS:  cpu time   39.7937: real time   39.9084
    ORTHCH:  cpu time    1.1722: real time    1.1755
       DOS:  cpu time    0.0020: real time    0.0020
    CHARGE:  cpu time    4.8014: real time    4.8151
    MIXING:  cpu time    0.0154: real time    0.0155
    --------------------------------------------
      LOOP:  cpu time   57.4699: real time   57.6350

 eigenvalue-minimisations  :  8369
 total energy-change (2. order) :-0.1034498E+01  (-0.6639988E-01)
 number of electron     800.0000014 magnetization      37.2187563
 augmentation part      247.7447749 magnetization      20.7932241

 Broyden mixing:
  rms(total) = 0.43409E+00    rms(broyden)= 0.43409E+00
  rms(prec ) = 0.51149E+00
  weight for this iteration     100.00

 eigenvalues of (default mixing * dielectric matrix)
  average eigenvalue GAMMA=   0.8497
  3.0537  2.2786  1.1554  1.1554  0.7725  0.7725  0.3950  0.3950  0.0822  0.2672
  0.2672  0.2343  0.2173

 Free energy of the ion-electron system (eV)
  ---------------------------------------------------
  alpha Z        PSCENC =      2563.82377583
  Ewald energy   TEWEN  =    182995.78383750
  -Hartree energ DENC   =   -246379.84516353
  -exchange      EXHF   =         0.00000000
  -V(xc)+E(xc)   XCENC  =       259.41853297
  PAW double counting   =     72866.32333041   -70840.66440325
  entropy T*S    EENTRO =         0.18439230
  eigenvalues    EBANDS =      -259.15689382
  atomic energy  EATOM  =     58329.24398462
  Solvation  Ediel_sol  =         0.00000000
  ---------------------------------------------------
  free energy    TOTEN  =      -464.88860697 eV

  energy without entropy =     -465.07299927  energy(sigma->0) =     -464.95007107


--------------------------------------------------------------------------------------------------------




--------------------------------------- Iteration      1(  19)  ---------------------------------------


    POTLOK:  cpu time    0.4403: real time    0.4413
    SETDIJ:  cpu time    0.0357: real time    0.0358
    EDDIAG:  cpu time   11.1988: real time   11.2313
  RMM-DIIS:  cpu time   39.9431: real time   40.0572
    ORTHCH:  cpu time    1.1682: real time    1.1710
       DOS:  cpu time    0.0020: real time    0.0020
    CHARGE:  cpu time    4.7738: real time    4.7851
    MIXING:  cpu time    0.0157: real time    0.0157
    --------------------------------------------
      LOOP:  cpu time   57.5776: real time   57.7396

 eigenvalue-minimisations  :  8372
 total energy-change (2. order) :-0.4514461E+00  (-0.2507975E-01)
 number of electron     800.0000014 magnetization      35.3464554
 augmentation part      247.7118313 magnetization      19.2246514

 Broyden mixing:
  rms(total) = 0.37513E+00    rms(broyden)= 0.37513E+00
  rms(prec ) = 0.44408E+00
  weight for this iteration     100.00

 eigenvalues of (default mixing * dielectric matrix)
  average eigenvalue GAMMA=   0.8912
  3.8014  2.2156  1.2770  1.2770  0.8039  0.8039  0.4353  0.4353  0.3711  0.0822
  0.2673  0.2523  0.2381  0.2160

 Free energy of the ion-electron system (eV)
  ---------------------------------------------------
  alpha Z        PSCENC =      2563.82377583
  Ewald energy   TEWEN  =    182995.78383750
  -Hartree energ DENC   =   -246371.80254213
  -exchange      EXHF   =         0.00000000
  -V(xc)+E(xc)   XCENC  =       258.90860356
  PAW double counting   =     72863.00979409   -70837.35989199
  entropy T*S    EENTRO =         0.17296143
  eigenvalues    EBANDS =      -267.12057599
  atomic energy  EATOM  =     58329.24398462
  Solvation  Ediel_sol  =         0.00000000
  ---------------------------------------------------
  free energy    TOTEN  =      -465.34005308 eV

  energy without entropy =     -465.51301451  energy(sigma->0) =     -465.39770689


--------------------------------------------------------------------------------------------------------




--------------------------------------- Iteration      1(  20)  ---------------------------------------


    POTLOK:  cpu time    0.4418: real time    0.4428
    SETDIJ:  cpu time    0.0356: real time    0.0357
    EDDIAG:  cpu time   11.2203: real time   11.2473
  RMM-DIIS:  cpu time   40.0641: real time   40.1604
    ORTHCH:  cpu time    1.1662: real time    1.1698
       DOS:  cpu time    0.0021: real time    0.0021
    CHARGE:  cpu time    4.7396: real time    4.7528
    MIXING:  cpu time    0.0162: real time    0.0162
    --------------------------------------------
      LOOP:  cpu time   57.6859: real time   57.8271

 eigenvalue-minimisations  :  8372
 total energy-change (2. order) :-0.1002009E+00  (-0.1137738E-01)
 number of electron     800.0000014 magnetization      32.9324401
 augmentation part      247.7345056 magnetization      17.0650241

 Broyden mixing:
  rms(total) = 0.29159E+00    rms(broyden)= 0.29159E+00
  rms(prec ) = 0.34842E+00
  weight for this iteration     100.00

 eigenvalues of (default mixing * dielectric matrix)
  average eigenvalue GAMMA=   1.0125
  5.6225  2.1481  1.4351  1.4351  0.8439  0.8439  0.6867  0.4122  0.4122  0.0822
  0.3024  0.2685  0.2465  0.2320  0.2164

 Free energy of the ion-electron system (eV)
  ---------------------------------------------------
  alpha Z        PSCENC =      2563.82377583
  Ewald energy   TEWEN  =    182995.78383750
  -Hartree energ DENC   =   -246359.36237612
  -exchange      EXHF   =         0.00000000
  -V(xc)+E(xc)   XCENC  =       258.55343188
  PAW double counting   =     72867.61543004   -70842.18801828
  entropy T*S    EENTRO =         0.16037971
  eigenvalues    EBANDS =      -279.07069916
  atomic energy  EATOM  =     58329.24398462
  Solvation  Ediel_sol  =         0.00000000
  ---------------------------------------------------
  free energy    TOTEN  =      -465.44025398 eV

  energy without entropy =     -465.60063368  energy(sigma->0) =     -465.49371388


--------------------------------------------------------------------------------------------------------




--------------------------------------- Iteration      1(  21)  ---------------------------------------


    POTLOK:  cpu time    0.4403: real time    0.4418
    SETDIJ:  cpu time    0.0360: real time    0.0361
    EDDIAG:  cpu time   11.2183: real time   11.2505
  RMM-DIIS:  cpu time   39.7172: real time   39.8305
    ORTHCH:  cpu time    1.1924: real time    1.1957
       DOS:  cpu time    0.0021: real time    0.0021
    CHARGE:  cpu time    4.7388: real time    4.7523
    MIXING:  cpu time    0.0172: real time    0.0172
    --------------------------------------------
      LOOP:  cpu time   57.3624: real time   57.5263

 eigenvalue-minimisations  :  8382
 total energy-change (2. order) :-0.6119082E-01  (-0.6673682E-02)
 number of electron     800.0000014 magnetization      32.0842210
 augmentation part      247.7901551 magnetization      16.5788771

 Broyden mixing:
  rms(total) = 0.21535E+00    rms(broyden)= 0.21535E+00
  rms(prec ) = 0.26055E+00
  weight for this iteration     100.00

 eigenvalues of (default mixing * dielectric matrix)
  average eigenvalue GAMMA=   1.0378
  6.4589  2.1390  1.4968  1.4968  0.8690  0.8690  0.7170  0.0822  0.4608  0.3888
  0.3888  0.2884  0.2573  0.2384  0.2384  0.2149

 Free energy of the ion-electron system (eV)
  ---------------------------------------------------
  alpha Z        PSCENC =      2563.82377583
  Ewald energy   TEWEN  =    182995.78383750
  -Hartree energ DENC   =   -246339.41159080
  -exchange      EXHF   =         0.00000000
  -V(xc)+E(xc)   XCENC  =       258.10969243
  PAW double counting   =     72869.45934179   -70844.33915952
  entropy T*S    EENTRO =         0.14219295
  eigenvalues    EBANDS =      -298.31351960
  atomic energy  EATOM  =     58329.24398462
  Solvation  Ediel_sol  =         0.00000000
  ---------------------------------------------------
  free energy    TOTEN  =      -465.50144479 eV

  energy without entropy =     -465.64363774  energy(sigma->0) =     -465.54884244


--------------------------------------------------------------------------------------------------------




--------------------------------------- Iteration      1(  22)  ---------------------------------------


    POTLOK:  cpu time    0.4399: real time    0.4410
    SETDIJ:  cpu time    0.0357: real time    0.0358
    EDDIAG:  cpu time   11.1838: real time   11.2159
  RMM-DIIS:  cpu time   39.6550: real time   39.7674
    ORTHCH:  cpu time    1.2209: real time    1.2247
       DOS:  cpu time    0.0026: real time    0.0026
    CHARGE:  cpu time    4.7595: real time    4.7726
    MIXING:  cpu time    0.0173: real time    0.0173
    --------------------------------------------
      LOOP:  cpu time   57.3146: real time   57.4772

 eigenvalue-minimisations  :  8381
 total energy-change (2. order) :-0.2801954E-01  (-0.1960966E-02)
 number of electron     800.0000014 magnetization      31.5213970
 augmentation part      247.7977817 magnetization      16.1332978

 Broyden mixing:
  rms(total) = 0.14703E+00    rms(broyden)= 0.14703E+00
  rms(prec ) = 0.17733E+00
  weight for this iteration     100.00

 eigenvalues of (default mixing * dielectric matrix)
[...]
   0.234E-01 -.708E-01 -.133E+04   -.218E-01 0.807E-01 0.133E+04   0.200E-01 -.142E-01 0.652E+00   -.111E-01 -.414E-02 0.410E-02
   0.210E-01 -.404E+00 0.261E+04   -.169E-01 0.385E+00 -.261E+04   -.318E-01 0.587E-01 -.130E+01   0.134E-01 -.144E-01 -.611E-02
   -.602E+00 0.148E+01 0.261E+04   0.604E+00 -.146E+01 -.261E+04   0.673E-02 -.543E-01 -.131E+01   -.908E-02 0.131E-01 0.262E-03
   -.334E-01 0.236E+00 0.261E+04   0.578E-01 -.251E+00 -.261E+04   -.306E-01 0.216E-01 -.132E+01   -.386E-02 0.378E-02 0.204E-02
   0.155E+00 0.111E-01 0.133E+04   -.158E+00 -.172E-02 -.133E+04   -.111E-01 0.836E-02 -.655E+00   0.552E-02 -.126E-01 -.243E-02
   0.447E+00 -.198E+00 0.133E+04   -.441E+00 0.206E+00 -.133E+04   -.167E-01 0.326E-02 -.656E+00   -.274E-02 -.104E-01 0.712E-02
   0.126E+00 0.101E+00 -.133E+04   -.135E+00 -.101E+00 0.133E+04   -.770E-02 -.119E-01 0.658E+00   0.144E-01 0.674E-02 0.194E-01
   -.867E+00 -.237E+00 0.261E+04   0.862E+00 0.215E+00 -.261E+04   0.250E-01 0.351E-01 -.132E+01   -.141E-01 -.484E-03 0.232E-02
   -.272E+00 -.159E+00 0.133E+04   0.267E+00 0.157E+00 -.133E+04   -.215E-02 0.338E-02 -.640E+00   0.110E-01 0.276E-02 0.123E-01
   -.492E+00 0.375E-01 -.378E+00   0.481E+00 -.430E-01 0.371E+00   0.102E-01 -.307E-02 -.587E-02   0.113E-01 0.965E-02 0.731E-02
   -.767E-01 -.273E-01 -.133E+04   0.830E-01 0.202E-01 0.133E+04   0.108E-02 -.273E-02 0.661E+00   -.522E-02 0.939E-02 0.172E-01
   0.751E-01 0.193E+00 -.133E+04   -.655E-01 -.183E+00 0.133E+04   0.626E-02 -.174E-01 0.664E+00   -.136E-01 -.585E-02 0.119E-02
   0.814E-01 0.162E+00 -.133E+04   -.688E-01 -.167E+00 0.133E+04   -.789E-02 -.336E-02 0.647E+00   -.104E-01 0.659E-02 0.128E-01
   0.951E+00 -.807E+00 0.261E+04   -.919E+00 0.794E+00 -.261E+04   -.578E-01 0.322E-01 -.131E+01   0.899E-03 -.806E-02 -.100E-01
   0.691E-02 -.477E-01 0.261E+04   -.185E-01 0.432E-01 -.261E+04   0.186E-01 0.141E-01 -.132E+01   0.105E-02 -.487E-02 -.534E-02
   0.376E-01 0.231E+00 0.261E+04   -.325E-01 -.228E+00 -.261E+04   0.399E-02 -.212E-01 -.132E+01   -.651E-02 0.994E-02 -.107E-01
   -.475E+00 -.528E-01 0.133E+04   0.460E+00 0.586E-01 -.133E+04   0.115E-01 0.593E-02 -.650E+00   0.133E-01 -.881E-02 0.126E-01
   -.100E+01 -.391E+00 0.104E+01   0.976E+00 0.396E+00 -.103E+01   0.360E-01 0.404E-02 0.675E-02   0.201E-01 -.925E-03 -.117E-01
   -.777E-01 -.216E+00 0.133E+04   0.734E-01 0.208E+00 -.133E+04   -.426E-03 0.160E-01 -.644E+00   0.637E-02 0.505E-02 0.107E-01
   -.746E-01 0.123E+00 0.133E+04   0.617E-01 -.129E+00 -.133E+04   -.561E-02 -.795E-03 -.659E+00   0.167E-01 0.710E-02 0.605E-02
   0.233E+00 0.216E+00 -.133E+04   -.224E+00 -.218E+00 0.133E+04   -.502E-02 -.107E-01 0.652E+00   -.116E-01 0.623E-02 -.772E-03
   0.593E-01 -.326E+00 0.261E+04   -.556E-01 0.307E+00 -.261E+04   -.915E-02 0.293E-01 -.131E+01   0.369E-03 0.187E-02 -.830E-02
   -.259E+00 0.197E+00 0.133E+04   0.258E+00 -.187E+00 -.133E+04   0.109E-01 -.965E-03 -.644E+00   -.479E-02 -.841E-02 0.268E-02
   0.511E+00 0.439E+00 -.111E+00   -.501E+00 -.429E+00 0.103E+00   -.569E-02 -.237E-01 -.528E-02   -.131E-01 -.371E-02 0.830E-02
   0.787E+00 0.135E-01 -.261E+04   -.782E+00 -.159E-01 0.261E+04   -.292E-01 -.763E-02 0.132E+01   0.146E-01 0.325E-02 -.592E-05
   0.814E+00 0.543E+00 -.261E+04   -.796E+00 -.516E+00 0.261E+04   -.346E-01 -.424E-01 0.131E+01   0.369E-02 -.103E-02 -.305E-03
   -.637E+00 0.129E+00 -.261E+04   0.611E+00 -.139E+00 0.261E+04   0.670E-01 -.526E-02 0.131E+01   -.152E-01 0.939E-02 -.355E-02
   0.791E+00 -.994E+00 -.261E+04   -.789E+00 0.982E+00 0.261E+04   -.305E-01 0.485E-01 0.131E+01   0.167E-01 -.165E-01 -.389E-03
   -.114E+01 0.700E+00 -.261E+04   0.112E+01 -.708E+00 0.261E+04   0.713E-01 -.346E-01 0.131E+01   -.206E-01 0.269E-01 0.845E-02
   0.490E+00 0.624E+00 -.261E+04   -.497E+00 -.600E+00 0.261E+04   -.625E-02 -.322E-01 0.131E+01   0.101E-01 -.356E-02 0.567E-02
   0.360E+00 0.680E+00 -.261E+04   -.354E+00 -.669E+00 0.261E+04   -.703E-02 -.315E-01 0.131E+01   0.460E-02 0.722E-02 -.170E-02
   0.264E+00 0.441E+00 -.261E+04   -.257E+00 -.440E+00 0.261E+04   -.191E-01 -.139E-01 0.132E+01   0.619E-02 0.805E-02 0.446E-02
   -.550E+00 -.651E+00 -.261E+04   0.508E+00 0.660E+00 0.261E+04   0.687E-01 0.260E-02 0.131E+01   -.191E-02 -.103E-01 -.251E-03
   -.442E+00 0.728E-01 -.261E+04   0.447E+00 -.958E-01 0.261E+04   0.139E-01 0.316E-01 0.131E+01   -.148E-01 0.244E-02 0.506E-02
   0.444E+00 0.142E+00 -.261E+04   -.407E+00 -.134E+00 0.261E+04   -.483E-01 -.204E-01 0.131E+01   -.692E-02 0.211E-02 0.812E-02
   -.469E+00 -.508E+00 -.261E+04   0.452E+00 0.505E+00 0.261E+04   0.301E-01 0.300E-01 0.130E+01   -.399E-02 -.126E-01 0.376E-02
   -.698E-01 -.132E+01 -.261E+04   0.678E-01 0.130E+01 0.261E+04   0.145E-01 0.366E-01 0.131E+01   -.240E-02 -.605E-02 -.595E-03
   -.455E+00 0.596E+00 -.261E+04   0.442E+00 -.583E+00 0.261E+04   0.265E-01 -.200E-01 0.131E+01   -.185E-02 0.193E-02 0.588E-02
   -.212E+00 -.128E+00 -.133E+04   0.212E+00 0.115E+00 0.133E+04   0.174E-01 -.395E-02 0.674E+00   -.450E-02 0.173E-01 0.185E-01
   0.123E+01 -.132E+01 0.261E+04   -.121E+01 0.129E+01 -.261E+04   -.554E-01 0.761E-01 -.131E+01   0.158E-01 -.121E-01 -.113E-01
   0.245E+00 0.460E-01 -.133E+04   -.233E+00 -.430E-01 0.132E+04   -.919E-02 -.438E-02 0.658E+00   -.951E-02 -.377E-02 0.947E-02
   0.414E+00 -.579E+00 0.261E+04   -.409E+00 0.579E+00 -.261E+04   -.166E-01 0.112E-01 -.131E+01   0.663E-02 -.586E-02 -.967E-02
   0.209E-01 0.311E+00 0.133E+04   -.194E-01 -.308E+00 -.132E+04   -.139E-02 -.130E-01 -.660E+00   -.512E-02 -.132E-02 0.301E-02
   -.220E+00 0.211E-01 0.132E+04   0.234E+00 -.323E-01 -.132E+04   0.205E-02 0.596E-02 -.653E+00   -.123E-01 0.920E-02 0.665E-02
   0.195E-01 0.762E-01 -.133E+04   -.213E-01 -.665E-01 0.133E+04   0.581E-02 -.116E-01 0.660E+00   -.348E-03 -.588E-02 0.680E-02
   -.607E+00 -.353E+00 0.261E+04   0.624E+00 0.336E+00 -.261E+04   -.193E-01 0.238E-01 -.131E+01   -.351E-02 0.219E-02 0.344E-04
   -.258E+00 -.437E-01 0.133E+04   0.268E+00 0.436E-01 -.132E+04   -.350E-02 -.335E-02 -.650E+00   -.543E-02 0.278E-02 0.870E-02
   -.126E+01 0.388E+00 -.261E+04   0.125E+01 -.378E+00 0.261E+04   0.429E-01 -.269E-01 0.130E+01   -.156E-01 0.507E-02 0.732E-02
   -.406E+00 0.176E-01 -.366E+00   0.390E+00 -.250E-01 0.360E+00   0.159E-01 -.107E-02 -.122E-01   0.895E-02 0.111E-01 0.937E-02
   -.123E+00 -.256E+00 -.261E+04   0.113E+00 0.259E+00 0.261E+04   0.110E-01 0.712E-02 0.131E+01   0.593E-02 -.819E-02 0.891E-02
   0.149E-01 -.342E-01 0.132E+04   -.226E-01 0.409E-01 -.132E+04   -.583E-03 -.104E-01 -.658E+00   0.103E-01 -.458E-03 0.164E-01
   0.178E+00 0.122E-01 0.133E+04   -.154E+00 -.149E-01 -.132E+04   -.185E-01 0.845E-02 -.651E+00   -.174E-01 -.119E-02 -.305E-02
   0.619E+00 0.129E+00 0.209E+00   -.612E+00 -.128E+00 -.199E+00   -.123E-01 -.107E-01 -.136E-01   -.130E-01 0.343E-02 -.676E-02
   -.141E+00 -.179E+00 -.133E+04   0.121E+00 0.186E+00 0.133E+04   0.193E-01 0.128E-02 0.672E+00   0.109E-01 -.487E-02 0.246E-02
   -.367E+00 -.132E+00 -.133E+04   0.371E+00 0.133E+00 0.133E+04   0.140E-01 -.606E-02 0.666E+00   -.660E-02 0.285E-02 0.651E-02
   -.228E+00 0.616E+00 0.261E+04   0.220E+00 -.609E+00 -.261E+04   -.166E-03 -.776E-02 -.131E+01   0.654E-02 -.273E-02 -.951E-02
   0.395E+00 -.565E-01 0.261E+04   -.382E+00 0.421E-01 -.261E+04   -.141E-01 0.234E-01 -.132E+01   -.381E-02 0.883E-04 -.142E-01
   -.421E-01 -.263E-03 0.133E+04   0.269E-01 -.649E-02 -.133E+04   0.223E-01 0.207E-02 -.647E+00   0.597E-02 0.720E-02 0.146E-01
   0.319E+00 -.126E-01 0.133E+04   -.317E+00 0.948E-02 -.132E+04   -.148E-01 -.734E-03 -.659E+00   0.370E-02 0.146E-02 0.997E-02
   -.360E+00 -.439E+00 -.137E+01   0.358E+00 0.438E+00 0.136E+01   0.101E-01 -.116E-02 -.215E-01   0.334E-02 0.910E-02 0.189E-01
   0.113E+00 -.109E+00 -.133E+04   -.125E+00 0.108E+00 0.132E+04   0.192E-02 0.287E-02 0.658E+00   0.682E-02 0.198E-02 0.229E-02
   0.844E-01 -.150E+00 0.261E+04   -.747E-01 0.156E+00 -.261E+04   -.335E-01 0.193E-02 -.131E+01   0.995E-02 -.466E-02 -.749E-02
   -.355E+00 -.154E+00 0.818E+00   0.344E+00 0.166E+00 -.817E+00   0.228E-02 -.926E-03 -.200E-02   0.119E-01 -.455E-02 -.523E-02
   0.582E+00 -.420E-01 0.124E+00   -.561E+00 0.499E-01 -.119E+00   -.110E-01 -.645E-02 -.214E-02   -.256E-01 -.199E-02 -.864E-02
   0.175E+00 0.729E+00 0.552E+00   -.178E+00 -.715E+00 -.555E+00   -.349E-03 -.171E-01 -.693E-03   0.343E-03 -.137E-01 0.674E-03
   -.535E+00 -.526E+00 -.529E+00   0.528E+00 0.514E+00 0.525E+00   0.237E-01 0.219E-02 -.109E-01   0.283E-02 0.179E-01 0.687E-02
   -.400E+00 -.319E+00 0.651E-01   0.395E+00 0.313E+00 -.694E-01   0.817E-02 0.761E-02 -.709E-02   0.376E-02 0.743E-02 0.610E-02
   -.765E-02 0.300E+00 0.133E+04   0.244E-01 -.311E+00 -.132E+04   -.303E-02 -.692E-02 -.659E+00   -.164E-01 0.149E-01 0.341E-02
   0.255E+00 0.530E+00 0.128E+01   -.260E+00 -.509E+00 -.129E+01   -.110E-02 -.105E-01 0.112E-01   0.185E-02 -.223E-01 -.913E-02
   -.613E-01 0.542E-01 -.132E+04   0.493E-01 -.488E-01 0.132E+04   0.219E-02 -.122E-01 0.675E+00   0.111E-01 0.332E-03 0.719E-02
   -.216E+00 -.478E-01 -.133E+04   0.209E+00 0.413E-01 0.133E+04   0.170E-01 0.117E-02 0.666E+00   0.137E-02 0.684E-02 0.844E-03
   0.778E-01 -.278E+00 0.261E+04   -.838E-01 0.273E+00 -.261E+04   -.160E-01 0.202E-01 -.130E+01   0.110E-01 -.744E-02 -.844E-02
   0.107E+01 0.136E+00 0.261E+04   -.104E+01 -.134E+00 -.261E+04   -.582E-01 -.330E-02 -.131E+01   0.787E-02 -.237E-03 -.145E-01
   0.577E+00 0.661E+00 -.109E+01   -.562E+00 -.658E+00 0.108E+01   -.620E-02 -.227E-01 -.102E-01   -.196E-01 -.508E-03 0.184E-01
   0.442E+00 0.438E-01 -.139E+00   -.439E+00 -.414E-01 0.144E+00   -.160E-01 -.317E-02 -.194E-01   -.668E-02 -.207E-02 -.153E-02
   0.190E+00 0.219E+00 0.133E+04   -.193E+00 -.208E+00 -.133E+04   -.206E-02 -.101E-01 -.656E+00   0.188E-03 -.982E-02 0.888E-02
   -.624E+00 -.292E+00 0.128E+01   0.605E+00 0.291E+00 -.128E+01   0.116E-01 0.234E-02 0.119E-01   0.241E-01 0.198E-02 -.147E-01
   0.743E+00 0.492E-01 -.540E+00   -.733E+00 -.404E-01 0.545E+00   -.242E-01 -.494E-02 -.168E-01   -.116E-01 -.469E-02 0.107E-02
 -----------------------------------------------------------------------------------------------
   0.103E-01 -.139E-01 -.224E+00   0.655E-12 0.471E-12 -.131E-11   -.161E-01 0.167E-02 -.635E-03   -.157E-02 0.348E-02 0.196E+00
 
 
 POSITION                                       TOTAL-FORCE (eV/Angst)
 -----------------------------------------------------------------------------------
     13.60528      8.40227      7.21000        -0.003563     -0.006973     -0.011576
      5.23539      8.40207      7.21049         0.013004      0.004042     -0.004001
      3.83984      5.98684      7.21318         0.010175     -0.008339     -0.016046
     13.62812      8.38318      0.47920        -0.014442      0.024180     -0.002568
      5.25596      8.39025      0.48264        -0.000772     -0.019074     -0.011890
      3.86159      5.96923      0.48496        -0.009893      0.010341     -0.018855
      8.03915      1.94977      2.76124        -0.008601      0.005026      0.011832
      9.43429      9.19846      2.76167        -0.013329      0.001050      0.013235
      2.44971      3.57104      7.21276        -0.002384     -0.005097     -0.010331
      2.46446      3.55281      0.48563         0.005219      0.012375     -0.019163
     10.82974      1.95139      2.75986         0.003531      0.005020      0.029151
     13.61094      5.17801      4.98796         0.010150      0.001030     -0.005071
      3.84343      1.15342      7.21241         0.002293     -0.000314     -0.006178
      9.42060      5.98639      7.21150         0.002338     -0.013280     -0.004222
      5.23901      3.57020      7.21481        -0.005789     -0.002089     -0.020545
      3.86589      1.13666      0.48380        -0.024233      0.011457     -0.011765
      9.43734      5.96985      0.48173         0.007354      0.005003     -0.013053
      5.25527      3.55579      0.48514         0.002098     -0.007037     -0.017335
     12.22217      9.19843      2.75978         0.010003      0.003130      0.021350
     12.21302      7.59243      4.98516         0.031265      0.008087     -0.003198
     13.61659      6.78244      2.76146         0.002145      0.013660      0.025655
      9.43258      4.36731      2.76164        -0.001250     -0.000430      0.013413
      8.02616      8.40318      7.21236        -0.007661     -0.006912     -0.014587
      8.04638      8.38561      0.48166        -0.005911      0.012745     -0.009028
     10.82462      6.78316      2.75954         0.005412      0.000441      0.018334
      2.45375      0.34615      4.98755        -0.008929     -0.016271     -0.004538
     14.99711      9.21057      9.48903        -0.008001     -0.006719      0.017523
      3.84058      4.38108      9.49537        -0.011871     -0.015106      0.002002
      6.62155      9.21140      9.49105         0.025763     -0.005788      0.010691
     12.20976      4.37448      9.49155        -0.011018      0.019135      0.010053
      9.41154      9.21222      9.49357         0.027873     -0.015111      0.002887
     10.81262      1.96351      9.49100        -0.002514     -0.011416      0.007500
      2.44389      1.96398      9.49212         0.003946     -0.011830      0.010211
     12.20693      9.21086      9.49040        -0.004681     -0.004953      0.010737
     13.59703      6.79387      9.49223         0.024244      0.001081      0.004509
      5.23223      1.95953      9.49384         0.003828      0.010438      0.004082
      8.02434      6.79577      9.49432        -0.017720     -0.009711     -0.002404
      9.41623      4.37581      9.49227         0.008435      0.013167      0.001802
      5.23106      6.79300      9.49291         0.010219      0.012806      0.007505
      8.02141      1.96238      9.48961         0.012086     -0.005168      0.014185
      8.02724      3.57057      7.21087         0.012736      0.000526      0.002857
      8.04869      3.54957      0.48189        -0.019086      0.027998     -0.009188
      6.63319      1.15284      7.21069        -0.006648     -0.005243     -0.011891
      6.65291      1.13757      0.48098        -0.005174      0.005994     -0.007322
     12.22253      4.36773      2.76294        -0.004913     -0.011544      0.012572
      3.85283      4.36688      2.76468         0.003251      0.003980      0.022248
      1.05272      1.15423      7.21138         0.003499     -0.007914     -0.012026
      1.07392      1.13749      0.48183        -0.006552      0.009930     -0.009168
      6.64378      9.20014      2.76214         0.001598     -0.000361      0.021341
      6.62618      4.37937      9.49585         0.017694     -0.011775     -0.005628
      8.03051      5.17788      4.98790         0.008381      0.002660     -0.008551
     10.81119      6.79271      9.49215         0.007484      0.001588      0.004454
      5.24989      1.95160      2.76386         0.001999     -0.003460      0.014960
      2.46066      1.95048      2.76316        -0.012033      0.004610      0.017242
     15.00603      7.59388      4.98712        -0.017844     -0.006493     -0.009957
     12.20961      5.98530      7.21039         0.010834      0.002342      0.001600
      6.63102      5.98678      7.21336         0.011571     -0.002279     -0.000849
     12.22952      5.97081      0.48135        -0.002166     -0.002799     -0.007874
      6.64996      5.96918      0.48330        -0.004819      0.009272     -0.008393
      8.03515      6.78375      2.76245         0.013202      0.002920      0.020013
      6.64402      4.36666      2.76342        -0.008607     -0.002591      0.012115
      3.84878      2.76117      4.98987         0.011206      0.006455     -0.011641
     10.81733      3.56994      7.21062        -0.002803      0.003340     -0.013641
     10.83737      3.55504      0.47994        -0.013427      0.003353     -0.002541
     10.82254      0.34541      4.98589         0.003779      0.006480     -0.005494
      9.42579      7.59345      4.98673        -0.014490     -0.000461     -0.004938
     10.82085      5.17822      4.98618        -0.002880     -0.016666     -0.002266
      6.63510      7.59365      4.98807         0.019254      0.007947     -0.008072
      5.24189      0.34390      4.98708         0.006612      0.009248     -0.004807
      5.24677      6.78433      2.76317        -0.002674     -0.002397      0.011178
      8.03209      0.34443      4.98475        -0.003603     -0.011090     -0.001111
      9.42247      1.15420      7.20876         0.001637     -0.006204     -0.000752
     10.81510      8.40179      7.21190         0.012540      0.001717     -0.001562
      9.44294      1.13685      0.47993        -0.011287      0.008133     -0.005385
     10.83917      8.38666      0.47885        -0.023299     -0.001070     -0.003357
      5.24258      5.17872      4.98929        -0.010662     -0.019769     -0.005650
     12.21928      2.76155      4.98791        -0.019072     -0.003070     -0.015531
     15.01290      9.19969      2.76122        -0.005806     -0.008805      0.014560
      9.42753      2.76059      4.98470         0.016965      0.003662      0.003007
      6.63950      2.76100      4.98830        -0.025214     -0.000761     -0.010857
 -----------------------------------------------------------------------------------
    total drift:                               -0.007410     -0.008737     -0.028129


--------------------------------------------------------------------------------------------------------



  FREE ENERGIE OF THE ION-ELECTRON SYSTEM (eV)
  ---------------------------------------------------
  free  energy   TOTEN  =      -514.02359328 eV

  energy  without entropy=     -514.17791824  energy(sigma->0) =     -514.07503493
 
 d Force = 0.3169994E-02[ 0.246E-04, 0.632E-02]  d Energy = 0.3130500E-02 0.395E-04
 d Force = 0.1713452E+03[ 0.171E+03, 0.171E+03]  d Ewald  = 0.1713452E+03 0.504E-05


--------------------------------------------------------------------------------------------------------


    POTLOK:  cpu time    0.4709: real time    0.4721


--------------------------------------------------------------------------------------------------------


 Conjugate gradient step on ions:
 trial-energy change:   -0.003130  1 .order   -0.003170   -0.006315   -0.000025
  (g-gl).g = 0.473E-02      g.g   = 0.454E-02  gl.gl    = 0.310E-01
 g(Force)  = 0.454E-02   g(Stress)= 0.000E+00 ortho     =-0.152E-03
 gamma     =   0.15266
 trial     =   1.39860
 opt step  =   1.40406  (harmonic =   1.40406) maximal distance =0.00416803
 next E    =  -514.023633   (d E  =  -0.00317)


--------------------------------------------------------------------------------------------------------


  
 reached required accuracy - stopping structural energy minimisation
     LOOP+:  cpu time  620.3377: real time  621.8851
    4ORBIT:  cpu time    0.0000: real time    0.0000

 total amount of memory used by VASP MPI-rank0   257038. kBytes
=======================================================================

   base      :      30000. kBytes
   nonlr-proj:      38228. kBytes
   fftplans  :      20284. kBytes
   grid      :      49760. kBytes
   one-center:        622. kBytes
   wavefun   :     118144. kBytes
 
  
  
 General timing and accounting informations for this job:
 ========================================================
  
                  Total CPU time used (sec):     7610.938
                            User time (sec):     7604.955
                          System time (sec):        5.982
                         Elapsed time (sec):     7631.847
  
                   Maximum memory used (kb):      812604.
                   Average memory used (kb):           0.
  
                          Minor page faults:      1520578
                          Major page faults:            0
                 Voluntary context switches:         3419
