 vasp.5.4.4.18Apr17-6-g9f103f2a35 (build Nov 30 2020 22:55:02) complex          
  
 executed on             LinuxIFC date 2023.09.11  09:15:11
 running on   40 total cores
 distrk:  each k-point on   40 cores,    1 groups
 distr:  one band on NCORES_PER_BAND=   1 cores,   40 groups


--------------------------------------------------------------------------------------------------------


 INCAR:
 POTCAR:    PAW_PBE Cu 22Jun2005                  
 POTCAR:    PAW_PBE Pt 04Feb2005                  
 POTCAR:    PAW_PBE H 15Jun2001                   

 ----------------------------------------------------------------------------- 
|                                                                             |
|           W    W    AA    RRRRR   N    N  II  N    N   GGGG   !!!           |
|           W    W   A  A   R    R  NN   N  II  NN   N  G    G  !!!           |
|           W    W  A    A  R    R  N N  N  II  N N  N  G       !!!           |
|           W WW W  AAAAAA  RRRRR   N  N N  II  N  N N  G  GGG   !            |
|           WW  WW  A    A  R   R   N   NN  II  N   NN  G    G                |
|           W    W  A    A  R    R  N    N  II  N    N   GGGG   !!!           |
|                                                                             |
|      For optimal performance we recommend to set                            |
|        NCORE= 4 - approx SQRT( number of cores)                             |
|      NCORE specifies how many cores store one orbital (NPAR=cpu/NCORE).     |
|      This setting can  greatly improve the performance of VASP for DFT.     |
|      The default,   NCORE=1            might be grossly inefficient         |
|      on modern multi-core architectures or massively parallel machines.     |
|      Do your own testing !!!!                                               |
|      Unfortunately you need to use the default for GW and RPA calculations. |
|      (for HF NCORE is supported but not extensively tested yet)             |
|                                                                             |
 ----------------------------------------------------------------------------- 

 POTCAR:    PAW_PBE Cu 22Jun2005                  
   VRHFIN =Cu: d10 p1                                                           
   LEXCH  = PE                                                                  
   EATOM  =  1390.9808 eV,  102.2342 Ry                                         
                                                                                
   TITEL  = PAW_PBE Cu 22Jun2005                                                
   LULTRA =        F    use ultrasoft PP ?                                      
   IUNSCR =        1    unscreen: 0-lin 1-nonlin 2-no                           
   RPACOR =    2.000    partial core radius                                     
   POMASS =   63.546; ZVAL   =   11.000    mass and valenz                      
   RCORE  =    2.300    outmost cutoff radius                                   
   RWIGS  =    2.200; RWIGS  =    1.164    wigner-seitz radius (au A)           
   ENMAX  =  295.446; ENMIN  =  221.585 eV                                      
   ICORE  =        3    local potential                                         
   LCOR   =        T    correct aug charges                                     
   LPAW   =        T    paw PP                                                  
   EAUG   =  586.980                                                            
   DEXC   =    0.000                                                            
   RMAX   =    2.344    core radius for proj-oper                               
   RAUG   =    1.300    factor for augmentation sphere                          
   RDEP   =    2.302    radius for radial grids                                 
   RDEPT  =    1.771    core radius for aug-charge                              
                                                                                
   Atomic configuration                                                         
    9 entries                                                                   
     n  l   j            E        occ.                                          
     1  0  0.50     -8850.2468   2.0000                                         
     2  0  0.50     -1062.3498   2.0000                                         
     2  1  1.50      -916.8226   6.0000                                         
     3  0  0.50      -114.6929   2.0000                                         
     3  1  1.50       -72.1325   6.0000                                         
     3  2  2.50        -5.0394  10.0000                                         
     4  0  0.50        -4.6097   1.0000                                         
     4  1  0.50        -4.0817   0.0000                                         
     4  3  2.50        -1.3606   0.0000                                         
   Description                                                                  
     l       E           TYP  RCUT    TYP  RCUT                                 
     2     -5.0393973     23  2.200                                             
     2     10.8846608     23  2.200                                             
     0     -4.6097109     23  2.200                                             
     0      8.2520465     23  2.200                                             
     1     -2.7211652     23  2.200                                             
     1     21.7055443     23  2.200                                             
     3      2.7211652     23  2.300                                             
  local pseudopotential read in
  partial core-charges read in
  partial kinetic energy density read in
  atomic valenz-charges read in
  non local Contribution for L=           2  read in
    real space projection operators read in
  non local Contribution for L=           2  read in
    real space projection operators read in
  non local Contribution for L=           0  read in
    real space projection operators read in
  non local Contribution for L=           0  read in
    real space projection operators read in
  non local Contribution for L=           1  read in
    real space projection operators read in
  non local Contribution for L=           1  read in
    real space projection operators read in
    PAW grid and wavefunctions read in
 
   number of l-projection  operators is LMAX  =           6
   number of lm-projection operators is LMMAX =          18
 
 POTCAR:    PAW_PBE Pt 04Feb2005                  
   VRHFIN =Pt: s1d9                                                             
   LEXCH  = PE                                                                  
   EATOM  =   729.1176 eV,   53.5886 Ry                                         
                                                                                
   TITEL  = PAW_PBE Pt 04Feb2005                                                
   LULTRA =        F    use ultrasoft PP ?                                      
   IUNSCR =        1    unscreen: 0-lin 1-nonlin 2-no                           
   RPACOR =    2.330    partial core radius                                     
   POMASS =  195.080; ZVAL   =   10.000    mass and valenz                      
   RCORE  =    2.600    outmost cutoff radius                                   
   RWIGS  =    2.750; RWIGS  =    1.455    wigner-seitz radius (au A)           
   ENMAX  =  230.283; ENMIN  =  172.712 eV                                      
   ICORE  =        3    local potential                                         
   LCOR   =        T    correct aug charges                                     
   LPAW   =        T    paw PP                                                  
   EAUG   =  358.966                                                            
   DEXC   =    0.000                                                            
   RMAX   =    2.658    core radius for proj-oper                               
   RAUG   =    1.300    factor for augmentation sphere                          
   RDEP   =    2.761    radius for radial grids                                 
   RDEPT  =    2.203    core radius for aug-charge                              
                                                                                
   Atomic configuration                                                         
   16 entries                                                                   
     n  l   j            E        occ.                                          
     1  0  0.50    -78401.1885   2.0000                                         
     2  0  0.50    -13770.7750   2.0000                                         
     2  1  1.50    -11931.0468   6.0000                                         
     3  0  0.50     -3234.7234   2.0000                                         
     3  1  1.50     -2699.2216   6.0000                                         
     3  2  2.50     -2119.5714  10.0000                                         
     4  0  0.50      -695.1528   2.0000                                         
     4  1  1.50      -519.6034   6.0000                                         
     4  2  2.50      -306.6786  10.0000                                         
     4  3  3.50       -70.1041  14.0000                                         
     5  0  0.50      -101.7747   2.0000                                         
     5  1  1.50       -55.9873   6.0000                                         
     5  2  2.50        -6.1423   9.0000                                         
     6  0  0.50        -5.6573   1.0000                                         
     6  1  1.50        -6.8029   0.0000                                         
     5  3  2.50        -1.3606   0.0000                                         
   Description                                                                  
     l       E           TYP  RCUT    TYP  RCUT                                 
     2     -6.1423404     23  2.500                                             
     2     -7.5029230     23  2.500                                             
     0     -5.6573207     23  2.500                                             
     0      0.7416693     23  2.500                                             
     1     -2.7211652     23  2.600                                             
     1     20.4087390     23  2.600                                             
     3     -1.3605826     23  2.500                                             
  local pseudopotential read in
  partial core-charges read in
  partial kinetic energy density read in
  atomic valenz-charges read in
  non local Contribution for L=           2  read in
    real space projection operators read in
  non local Contribution for L=           2  read in
    real space projection operators read in
  non local Contribution for L=           0  read in
    real space projection operators read in
  non local Contribution for L=           0  read in
    real space projection operators read in
  non local Contribution for L=           1  read in
    real space projection operators read in
  non local Contribution for L=           1  read in
    real space projection operators read in
    PAW grid and wavefunctions read in
 
   number of l-projection  operators is LMAX  =           6
   number of lm-projection operators is LMMAX =          18
 
 POTCAR:    PAW_PBE H 15Jun2001                   
   VRHFIN =H: ultrasoft test                                                    
   LEXCH  = PE                                                                  
   EATOM  =    12.4884 eV,    0.9179 Ry                                         
                                                                                
   TITEL  = PAW_PBE H 15Jun2001                                                 
   LULTRA =        F    use ultrasoft PP ?                                      
   IUNSCR =        0    unscreen: 0-lin 1-nonlin 2-no                           
   RPACOR =    0.000    partial core radius                                     
   POMASS =    1.000; ZVAL   =    1.000    mass and valenz                      
   RCORE  =    1.100    outmost cutoff radius                                   
   RWIGS  =    0.700; RWIGS  =    0.370    wigner-seitz radius (au A)           
   ENMAX  =  250.000; ENMIN  =  200.000 eV                                      
   RCLOC  =    0.701    cutoff for local pot                                    
   LCOR   =        T    correct aug charges                                     
   LPAW   =        T    paw PP                                                  
   EAUG   =  400.000                                                            
   RMAX   =    1.123    core radius for proj-oper                               
   RAUG   =    1.200    factor for augmentation sphere                          
   RDEP   =    1.112    radius for radial grids                                 
   RDEPT  =    0.926    core radius for aug-charge                              
                                                                                
   Atomic configuration                                                         
    2 entries                                                                   
     n  l   j            E        occ.                                          
     1  0  0.50        -6.4927   1.0000                                         
     2  1  0.50        -3.4015   0.0000                                         
   Description                                                                  
     l       E           TYP  RCUT    TYP  RCUT                                 
     0     -6.4927494     23  1.100                                             
     0      6.8029130     23  1.100                                             
     1     -4.0817478     23  1.100                                             
  local pseudopotential read in
  atomic valenz-charges read in
  non local Contribution for L=           0  read in
    real space projection operators read in
  non local Contribution for L=           0  read in
    real space projection operators read in
  non local Contribution for L=           1  read in
    real space projection operators read in
    PAW grid and wavefunctions read in
 
   number of l-projection  operators is LMAX  =           3
   number of lm-projection operators is LMMAX =           5
 
 Optimization of the real space projectors (new method)

 maximal supplied QI-value         = 16.25
 optimisation between [QCUT,QGAM] = [ 11.86, 23.89] = [ 39.41,159.82] Ry 
 Optimized for a Real-space Cutoff    1.49 Angstroem

   l    n(q)    QCUT    max X(q) W(low)/X(q) W(high)/X(q)  e(spline) 
   2     10    11.864     4.610    0.10E-03    0.20E-03    0.29E-06
   2     10    11.864     8.522    0.17E-03    0.33E-03    0.50E-06
   0     11    11.864    51.609    0.52E-04    0.55E-04    0.33E-06
   0     11    11.864    27.747    0.46E-04    0.52E-04    0.31E-06
   1     10    11.864    20.408    0.54E-04    0.25E-04    0.21E-06
   1     10    11.864    13.425    0.48E-04    0.22E-04    0.18E-06
 Optimization of the real space projectors (new method)

 maximal supplied QI-value         = 14.36
 optimisation between [QCUT,QGAM] = [ 11.92, 23.98] = [ 39.79,161.09] Ry 
 Optimized for a Real-space Cutoff    1.49 Angstroem

   l    n(q)    QCUT    max X(q) W(low)/X(q) W(high)/X(q)  e(spline) 
   2     10    11.920    66.195    0.79E-04    0.18E-03    0.24E-06
   2     10    11.920    64.643    0.81E-04    0.19E-03    0.24E-06
   0     11    11.920    95.520    0.28E-04    0.54E-04    0.18E-06
   0     11    11.920    63.403    0.27E-04    0.52E-04    0.17E-06
   1     10    11.920    19.961    0.18E-04    0.11E-03    0.23E-06
   1     10    11.920    13.289    0.25E-04    0.87E-04    0.19E-06
 Optimization of the real space projectors (new method)

 maximal supplied QI-value         = 34.20
 optimisation between [QCUT,QGAM] = [ 11.97, 23.94] = [ 40.13,160.53] Ry 
 Optimized for a Real-space Cutoff    1.18 Angstroem

   l    n(q)    QCUT    max X(q) W(low)/X(q) W(high)/X(q)  e(spline) 
   0      8    11.971    19.460    0.15E-03    0.31E-03    0.25E-06
   0      8    11.971    12.209    0.13E-03    0.29E-03    0.25E-06
   1      8    11.971     4.655    0.22E-03    0.24E-03    0.21E-06
  PAW_PBE Cu 22Jun2005                  :
 energy of atom  1       EATOM=-1390.9808
 kinetic energy error for atom=    0.0036 (will be added to EATOM!!)
  PAW_PBE Pt 04Feb2005                  :
 energy of atom  2       EATOM= -729.1176
 kinetic energy error for atom=    0.0021 (will be added to EATOM!!)
  PAW_PBE H 15Jun2001                   :
 energy of atom  3       EATOM=  -12.4884
 kinetic energy error for atom=    0.0008 (will be added to EATOM!!)
 
 
 POSCAR: PtM\(2)                                 
  positions in cartesian coordinates
  No initial velocities read in
 exchange correlation table for  LEXCH =        8
   RHO(1)=    0.500       N(1)  =     2000
   RHO(2)=  100.500       N(2)  =     4000
 


--------------------------------------------------------------------------------------------------------


 ion  position               nearest neighbor table
   1  0.785  0.869  0.315-  55 2.49  20 2.49  39 2.49   3 2.64  29 2.64  57 2.64  40 2.64  56 2.64
                             2 2.64  73 2.66  65 2.66  72 2.66
   2  0.035  0.869  0.315-  49 2.49  39 2.49  52 2.49  41 2.64   3 2.64  23 2.64  33 2.64   1 2.64
                            56 2.64  77 2.66  67 2.66  65 2.66
   3  0.035  0.619  0.315-  39 2.49  12 2.49  60 2.49  41 2.64   2 2.64   1 2.64   9 2.64  15 2.64
                            40 2.64  66 2.66  77 2.66  73 2.66
   4  0.786  0.868  0.045-  21 2.50  62 2.50  19 2.51  30 2.64  59 2.64  58 2.64  42 2.64   6 2.64
                             5 2.64
   5  0.036  0.868  0.045-  54 2.50  35 2.50  62 2.51  43 2.64   6 2.64  34 2.64  24 2.64  58 2.64
                             4 2.64
   6  0.036  0.618  0.045-  32 2.50  54 2.50  21 2.51   5 2.64  10 2.64  43 2.64   4 2.64  42 2.64
                            18 2.64
   7  0.619  0.202  0.135-  55 2.49  63 2.49  64 2.49  28 2.50  30 2.50  58 2.51  45 2.64  22 2.64
                            37 2.64  11 2.64  19 2.64  62 2.64
   8  0.369  0.952  0.135-  50 2.49  53 2.49  26 2.50  16 2.50  24 2.50  59 2.51  19 2.64  35 2.64
                            44 2.64  37 2.64  25 2.64  38 2.64
   9  0.035  0.369  0.315-  12 2.49  46 2.49  61 2.49  47 2.64  40 2.64   3 2.64  15 2.64  33 2.64
                            13 2.64  71 2.66  66 2.66  68 2.66
  10  0.036  0.368  0.045-  38 2.50  32 2.50  31 2.51  16 2.64   6 2.64  34 2.64  18 2.64  42 2.64
                            48 2.64
  11  0.869  0.202  0.135-  61 2.49  49 2.49  63 2.49  48 2.50  58 2.50  34 2.51  31 2.64  38 2.64
                            22 2.64  62 2.64   7 2.64  35 2.64
  12  0.952  0.536  0.225-   9 2.49  21 2.49  40 2.49   3 2.49  31 2.49  32 2.50  51 2.64  60 2.64
                            20 2.64  39 2.64  46 2.64  61 2.64
  13  0.285  0.119  0.315-  46 2.49  53 2.49  26 2.49  23 2.64  57 2.64  29 2.64  15 2.64  33 2.64
                             9 2.64  69 2.66  74 2.66  71 2.66
  14  0.535  0.619  0.314-  50 2.49  36 2.49  51 2.49  57 2.64  40 2.64  47 2.64  23 2.64  41 2.65
                            27 2.65  76 2.65  75 2.66  80 2.66
  15  0.285  0.369  0.315-  46 2.49  60 2.49  64 2.49  27 2.64  41 2.64  13 2.64   9 2.64   3 2.64
                            29 2.64  74 2.66  79 2.66  66 2.66
  16  0.286  0.118  0.045-   8 2.50  37 2.50  38 2.51  24 2.64  10 2.64  34 2.64  59 2.64  18 2.64
                            30 2.64
  17  0.536  0.618  0.045-  22 2.50  25 2.50  44 2.51  42 2.64  48 2.64  59 2.64  28 2.64  24 2.64
                            43 2.64
  18  0.286  0.368  0.045-  37 2.50  45 2.50  32 2.51  28 2.64  30 2.64  43 2.64  10 2.64  16 2.64
                             6 2.64
  19  0.619  0.952  0.135-  20 2.49  55 2.49  53 2.50  30 2.50  59 2.50   4 2.51  25 2.64   8 2.64
                            37 2.64  21 2.64   7 2.64  62 2.64
  20  0.702  0.786  0.225-   1 2.49  40 2.49  19 2.49  25 2.49  57 2.49  21 2.50  12 2.64  53 2.64
                            50 2.64  51 2.64  55 2.64  39 2.64
  21  0.869  0.702  0.135-  12 2.49  39 2.49  20 2.50   4 2.50  42 2.50   6 2.51  32 2.64  31 2.64
                            25 2.64  62 2.64  54 2.64  19 2.64
  22  0.619  0.452  0.135-  63 2.49  51 2.49  36 2.49  17 2.50  28 2.50  48 2.51  44 2.64  45 2.64
                             7 2.64  25 2.64  11 2.64  31 2.64
  23  0.285  0.870  0.315-  26 2.49  52 2.49  50 2.49  13 2.64  33 2.64  57 2.64   2 2.64  14 2.64
                            41 2.65  75 2.65  69 2.66  67 2.66
  24  0.286  0.868  0.045-  44 2.50   8 2.50  35 2.51  59 2.64  16 2.64  17 2.64  43 2.64   5 2.64
                            34 2.64
  25  0.619  0.702  0.135-  51 2.49  50 2.49  20 2.49  59 2.50  17 2.50  42 2.51  19 2.64  44 2.64
                             8 2.64  22 2.64  21 2.64  31 2.64
  26  0.202  0.036  0.225-  23 2.49  38 2.49  35 2.49  13 2.49  33 2.49   8 2.50  61 2.64  50 2.64
                            52 2.64  46 2.64  49 2.64  53 2.64
  27  0.535  0.369  0.314-  64 2.49  36 2.49  63 2.49  29 2.64  15 2.64  56 2.64  41 2.64  14 2.65
                            47 2.65  76 2.65  78 2.66  79 2.66
  28  0.536  0.368  0.045-   7 2.50  22 2.50  45 2.51  48 2.64  18 2.64  43 2.64  17 2.64  58 2.64
                            30 2.64
  29  0.535  0.119  0.315-  64 2.49  53 2.49  55 2.49  27 2.64  56 2.64   1 2.64  13 2.64  15 2.64
                            57 2.64  72 2.66  78 2.66  74 2.66
  30  0.536  0.118  0.045-  19 2.50   7 2.50  37 2.51   4 2.64  18 2.64  58 2.64  59 2.64  16 2.64
                            28 2.64
  31  0.869  0.452  0.135-  51 2.49  61 2.49  12 2.49  42 2.50  48 2.50  10 2.51  38 2.64  11 2.64
                            21 2.64  32 2.64  22 2.64  25 2.64
  32  0.119  0.452  0.135-  60 2.49  46 2.49  12 2.50   6 2.50  10 2.50  18 2.51  54 2.64  45 2.64
                            21 2.64  37 2.64  38 2.64  31 2.64
  33  0.035  0.119  0.315-  61 2.49  49 2.49  26 2.49  47 2.64  23 2.64   2 2.64  56 2.64   9 2.64
                            13 2.64  67 2.66  71 2.66  70 2.66
  34  0.036  0.118  0.045-  35 2.50  38 2.50  11 2.51  58 2.64  16 2.64   5 2.64  10 2.64  24 2.64
                            48 2.64
  35  0.119  0.952  0.135-  52 2.49  26 2.49  49 2.50  34 2.50   5 2.50  24 2.51   8 2.64  44 2.64
                            62 2.64  54 2.64  11 2.64  38 2.64
  36  0.452  0.536  0.225-  14 2.49  27 2.49  45 2.49  44 2.49  41 2.49  22 2.49  60 2.64  64 2.64
                            63 2.64  52 2.64  50 2.65  51 2.65
  37  0.369  0.202  0.135-  64 2.49  53 2.49  46 2.50  18 2.50  16 2.50  30 2.51  38 2.64  32 2.64
                             7 2.64   8 2.64  19 2.64  45 2.64
  38  0.119  0.202  0.135-  26 2.49  46 2.49  61 2.49  10 2.50  34 2.50  16 2.51  31 2.64  37 2.64
                            32 2.64  11 2.64   8 2.64  35 2.64
  39  0.952  0.786  0.225-   3 2.49  62 2.49   2 2.49   1 2.49  21 2.49  54 2.50  49 2.64  60 2.64
                            52 2.64  12 2.64  20 2.64  55 2.64
  40  0.785  0.619  0.315-  20 2.49  12 2.49  51 2.49  14 2.64  47 2.64   9 2.64   1 2.64   3 2.64
                            57 2.64  68 2.66  73 2.66  80 2.66
  41  0.285  0.619  0.314-  60 2.49  52 2.49  36 2.49   3 2.64   2 2.64  15 2.64  27 2.64  14 2.65
                            23 2.65  75 2.65  79 2.66  77 2.67
  42  0.786  0.618  0.045-  31 2.50  21 2.50  25 2.51  17 2.64  59 2.64  48 2.64   4 2.64   6 2.64
                            10 2.64
  43  0.286  0.618  0.045-  45 2.50  44 2.50  54 2.51  28 2.64   5 2.64  18 2.64  17 2.64  24 2.64
                             6 2.64
  44  0.369  0.702  0.135-  36 2.49  50 2.49  52 2.50  24 2.50  43 2.50  17 2.51  22 2.64  25 2.64
                            35 2.64   8 2.64  54 2.64  45 2.64
  45  0.369  0.452  0.135-  36 2.49  64 2.49  60 2.50  43 2.50  18 2.50  28 2.51  54 2.64  32 2.64
                             7 2.64  22 2.64  37 2.64  44 2.64
  46  0.202  0.286  0.225-  13 2.49  15 2.49  32 2.49   9 2.49  38 2.49  37 2.50  60 2.64  64 2.64
                            26 2.64  61 2.64  53 2.64  12 2.64
  47  0.786  0.369  0.315-  61 2.49  51 2.49  63 2.49   9 2.64  33 2.64  40 2.64  56 2.64  14 2.64
                            27 2.65  76 2.65  70 2.66  68 2.66
  48  0.786  0.368  0.045-  11 2.50  31 2.50  22 2.51  28 2.64  17 2.64  42 2.64  58 2.64  34 2.64
                            10 2.64
  49  0.952  0.036  0.225-   2 2.49  33 2.49  62 2.49  11 2.49  56 2.49  35 2.50  39 2.64  55 2.64
                            52 2.64  63 2.64  61 2.64  26 2.64
  50  0.452  0.786  0.225-  14 2.49   8 2.49  44 2.49  57 2.49  25 2.49  23 2.49  53 2.64  26 2.64
                            20 2.64  52 2.64  36 2.65  51 2.65
  51  0.703  0.536  0.225-  14 2.49  25 2.49  31 2.49  47 2.49  22 2.49  40 2.49  12 2.64  61 2.64
                            20 2.64  63 2.64  36 2.65  50 2.65
  52  0.202  0.786  0.225-  41 2.49  35 2.49  23 2.49  54 2.49   2 2.49  44 2.50  49 2.64  39 2.64
                            26 2.64  50 2.64  36 2.64  60 2.64
  53  0.452  0.036  0.225-  57 2.49  37 2.49  29 2.49  13 2.49   8 2.49  19 2.50  50 2.64  64 2.64
                            20 2.64  55 2.64  46 2.64  26 2.64
  54  0.119  0.702  0.135-  60 2.49  52 2.49  39 2.50   5 2.50   6 2.50  43 2.51  45 2.64  32 2.64
                            44 2.64  35 2.64  62 2.64  21 2.64
  55  0.702  0.036  0.225-   1 2.49   7 2.49  56 2.49  29 2.49  19 2.49  62 2.50  49 2.64  64 2.64
                            63 2.64  53 2.64  20 2.64  39 2.64
  56  0.785  0.119  0.315-  63 2.49  55 2.49  49 2.49  27 2.64  29 2.64  47 2.64  33 2.64   1 2.64
                             2 2.64  65 2.66  70 2.66  78 2.66
  57  0.535  0.869  0.315-  53 2.49  50 2.49  20 2.49  14 2.64  23 2.64  13 2.64   1 2.64  29 2.64
                            40 2.64  80 2.65  72 2.66  69 2.66
  58  0.786  0.118  0.045-  62 2.50  11 2.50   7 2.51  34 2.64  30 2.64   4 2.64  48 2.64  28 2.64
                             5 2.64
  59  0.536  0.868  0.045-  25 2.50  19 2.50   8 2.51  24 2.64  17 2.64  42 2.64   4 2.64  16 2.64
                            30 2.64
  60  0.202  0.536  0.225-  41 2.49  54 2.49  15 2.49  32 2.49   3 2.49  45 2.50  12 2.64  39 2.64
                            46 2.64  36 2.64  64 2.64  52 2.64
  61  0.952  0.286  0.225-  47 2.49  33 2.49  31 2.49  11 2.49   9 2.49  38 2.49  26 2.64  51 2.64
                            63 2.64  46 2.64  49 2.64  12 2.64
  62  0.869  0.952  0.135-  39 2.49  49 2.49  55 2.50  58 2.50   4 2.50   5 2.51  35 2.64  54 2.64
                            11 2.64  21 2.64  19 2.64   7 2.64
  63  0.702  0.286  0.225-  56 2.49  22 2.49  27 2.49  47 2.49   7 2.49  11 2.49  55 2.64  49 2.64
                            61 2.64  36 2.64  51 2.64  64 2.64
  64  0.452  0.286  0.225-  27 2.49  45 2.49  37 2.49  29 2.49  15 2.49   7 2.49  53 2.64  55 2.64
                            46 2.64  36 2.64  60 2.64  63 2.64
  65  0.868  0.953  0.414-  70 2.64  67 2.64  77 2.64  72 2.64  78 2.64  73 2.64  56 2.66   1 2.66
                             2 2.66
  66  0.118  0.453  0.414-  77 2.64  73 2.64  79 2.64  74 2.64  68 2.64  71 2.64   3 2.66   9 2.66
                            15 2.66
  67  0.118  0.953  0.414-  71 2.64  75 2.64  65 2.64  69 2.64  77 2.64  70 2.64  33 2.66   2 2.66
                            23 2.66
  68  0.868  0.453  0.414-  80 2.64  73 2.64  76 2.64  70 2.64  66 2.64  71 2.64  40 2.66  47 2.66
                             9 2.66
  69  0.368  0.953  0.414-  80 2.64  72 2.64  75 2.64  67 2.64  74 2.64  71 2.64  13 2.66  23 2.66
                            57 2.66
  70  0.868  0.203  0.414-  76 2.64  65 2.64  71 2.64  78 2.64  68 2.64  67 2.64  56 2.66  47 2.66
                            33 2.66
  71  0.118  0.203  0.414-  67 2.64  70 2.64  68 2.64  66 2.64  74 2.64  69 2.64   9 2.66  33 2.66
                            13 2.66
  72  0.618  0.953  0.414-  69 2.64  74 2.64  80 2.64  78 2.64  73 2.64  65 2.64  29 2.66  57 2.66
                             1 2.66
  73  0.868  0.703  0.414-  68 2.64  66 2.64  80 2.64  72 2.64  77 2.64  65 2.64   1 2.66  40 2.66
                             3 2.66
  74  0.368  0.203  0.414-  78 2.64  72 2.64  79 2.64  66 2.64  69 2.64  71 2.64  15 2.66  13 2.66
                            29 2.66
  75  0.368  0.703  0.413-  77 2.64  67 2.64  69 2.64  79 2.64  80 2.64  76 2.64  23 2.65  41 2.65
                            14 2.66
  76  0.618  0.453  0.413-  70 2.64  68 2.64  78 2.64  79 2.64  80 2.64  75 2.64  27 2.65  47 2.65
                            14 2.65
  77  0.118  0.703  0.414-  79 2.64  66 2.64  75 2.64  67 2.64  73 2.64  65 2.64   2 2.66   3 2.66
                            41 2.67
  78  0.618  0.203  0.414-  74 2.64  79 2.64  76 2.64  72 2.64  70 2.64  65 2.64  29 2.66  27 2.66
                            56 2.66
  79  0.368  0.453  0.414-  78 2.64  77 2.64  75 2.64  76 2.64  74 2.64  66 2.64  41 2.66  15 2.66
                            27 2.66
  80  0.618  0.703  0.414-  68 2.64  69 2.64  73 2.64  75 2.64  72 2.64  76 2.64  57 2.65  40 2.66
                            14 2.66
  81  0.474  0.555  0.549-  82 0.75
  82  0.517  0.595  0.549-  81 0.75
 
  LATTYP: Found a hexagonal cell.
 ALAT       =    10.5600004196
 C/A-ratio  =     2.0833332505
  
  Lattice vectors:
  
 A1 = (   5.2800002098,  -9.1452286274,   0.0000000000)
 A2 = ( -10.5600004196,   0.0000000000,   0.0000000000)
 A3 = (   0.0000000000,   0.0000000000, -22.0000000000)


Analysis of symmetry for initial positions (statically):
=====================================================================
 Subroutine PRICEL returns:
 Original cell was already a primitive cell.
 

 Routine SETGRP: Setting up the symmetry group for a 
 hexagonal supercell.


 Subroutine GETGRP returns: Found  1 space group operations
 (whereof  1 operations were pure point group operations)
 out of a pool of 24 trial point group operations.


The static configuration has the point symmetry C_1 .


Analysis of symmetry for dynamics (positions and initial velocities):
=====================================================================
 Subroutine PRICEL returns:
 Original cell was already a primitive cell.
 

 Routine SETGRP: Setting up the symmetry group for a 
 hexagonal supercell.


 Subroutine GETGRP returns: Found  1 space group operations
 (whereof  1 operations were pure point group operations)
 out of a pool of 24 trial point group operations.


The dynamic configuration has the point symmetry C_1 .


Analysis of constrained symmetry for selective dynamics:
=====================================================================
 Subroutine PRICEL returns:
 Original cell was already a primitive cell.
 

 Routine SETGRP: Setting up the symmetry group for a 
 hexagonal supercell.


 Subroutine GETGRP returns: Found  1 space group operations
 (whereof  1 operations were pure point group operations)
 out of a pool of 24 trial point group operations.


The constrained configuration has the point symmetry C_1 .


Analysis of structural, dynamic, and magnetic symmetry:
=====================================================================
 Subroutine PRICEL returns:
 Original cell was already a primitive cell.
 

 Routine SETGRP: Setting up the symmetry group for a 
 hexagonal supercell.


 Subroutine GETGRP returns: Found  1 space group operations
 (whereof  1 operations were pure point group operations)
 out of a pool of 24 trial point group operations.


The magnetic configuration has the point symmetry C_1 .


 Subroutine INISYM returns: Found  1 space group operations
 (whereof  1 operations are pure point group operations),
 and found     1 'primitive' translations

 
 
 KPOINTS: mesh auto                               

Automatic generation of k-mesh.
Space group operators:
 irot       det(A)        alpha          n_x          n_y          n_z        tau_x        tau_y        tau_z
    1     1.000000     0.000001     1.000000     0.000000     0.000000     0.000000     0.000000     0.000000
 
 Subroutine IBZKPT returns following result:
 ===========================================
 
 Found      4 irreducible k-points:
 
 Following reciprocal coordinates:
            Coordinates               Weight
  0.000000  0.000000  0.000000      1.000000
  0.500000  0.000000  0.000000      1.000000
  0.000000  0.500000  0.000000      1.000000
  0.500000  0.500000  0.000000      1.000000
 
 Following cartesian coordinates:
            Coordinates               Weight
  0.000000  0.000000  0.000000      1.000000
  0.047348 -0.027337  0.000000      1.000000
  0.000000  0.054673  0.000000      1.000000
  0.047348  0.027337  0.000000      1.000000
 
 TETIRR: Found     12 inequivalent tetrahedra from       24
 
 Subroutine IBZKPT_HF returns following result:
 ==============================================
 
 Found      4 k-points in 1st BZ
 the following      4 k-points will be used (e.g. in the exchange kernel)
 Following reciprocal coordinates:   # in IRBZ
  0.000000  0.000000  0.000000    0.25000000   1 t-inv F
  0.500000  0.000000  0.000000    0.25000000   2 t-inv F
  0.000000  0.500000  0.000000    0.25000000   3 t-inv F
  0.500000  0.500000  0.000000    0.25000000   4 t-inv F


--------------------------------------------------------------------------------------------------------




 Dimension of arrays:
   k-points           NKPTS =      4   k-points in BZ     NKDIM =      4   number of bands    NBANDS=    560
   number of dos      NEDOS =    301   number of ions     NIONS =     82
   non local maximal  LDIM  =      6   non local SUM 2l+1 LMDIM =     18
   total plane-waves  NPLWV = ******
   max r-space proj   IRMAX =   7802   max aug-charges    IRDMAX=  33988
   dimension x,y,z NGX =    84 NGY =   84 NGZ =  168
   dimension x,y,z NGXF=   168 NGYF=  168 NGZF=  336
   support grid    NGXF=   168 NGYF=  168 NGZF=  336
   ions per type =              64  16   2
   NGX,Y,Z   is equivalent  to a cutoff of  13.22, 13.22, 12.70 a.u.
   NGXF,Y,Z  is equivalent  to a cutoff of  26.45, 26.45, 25.39 a.u.

 SYSTEM =  Pt111                                   
 POSCAR =  PtM\(2)                                 

 Startparameter for this run:
   NWRITE =      2    write-flag & timer
   PREC   = accura    normal or accurate (medium, high low for compatibility)
   ISTART =      0    job   : 0-new  1-cont  2-samecut
   ICHARG =      2    charge: 1-file 2-atom 10-const
   ISPIN  =      2    spin polarized calculation?
   LNONCOLLINEAR =      F non collinear calculations
   LSORBIT =      F    spin-orbit coupling
   INIWAV =      1    electr: 0-lowe 1-rand  2-diag
   LASPH  =      F    aspherical Exc in radial PAW
   METAGGA=      F    non-selfconsistent MetaGGA calc.

 Electronic Relaxation 1
   ENCUT  =  550.0 eV  40.42 Ry    6.36 a.u.  20.19 20.19 42.07*2*pi/ulx,y,z
   ENINI  =  550.0     initial cutoff
   ENAUG  =  587.0 eV  augmentation charge cutoff
   NELM   =    200;   NELMIN=  2; NELMDL= -5     # of ELM steps 
   EDIFF  = 0.1E-04   stopping-criterion for ELM
   LREAL  =      T    real-space projection
   NLSPLINE    = F    spline interpolate recip. space projectors
   LCOMPAT=      F    compatible to vasp.4.4
   GGA_COMPAT  = T    GGA compatible to vasp.4.4-vasp.4.6
   LMAXPAW     = -100 max onsite density
   LMAXMIX     =    2 max onsite mixed and CHGCAR
   VOSKOWN=      0    Vosko Wilk Nusair interpolation
   ROPT   =   -0.00025  -0.00025  -0.00025
 Ionic relaxation
   EDIFFG = -.5E-01   stopping-criterion for IOM
   NSW    =   1021    number of steps for IOM
   NBLOCK =      1;   KBLOCK =   1021    inner block; outer block 
   IBRION =      5    ionic relax: 0-MD 1-quasi-New 2-CG
   NFREE  =      2    steps in history (QN), initial steepest desc. (CG)
   ISIF   =      2    stress and relaxation
   IWAVPR =     11    prediction:  0-non 1-charg 2-wave 3-comb
   ISYM   =      2    0-nonsym 1-usesym 2-fastsym
   LCORR  =      T    Harris-Foulkes like correction to forces

   POTIM  = 0.5000    time-step for ionic-motion
   TEIN   =    0.0    initial temperature
   TEBEG  =    0.0;   TEEND  =   0.0 temperature during run
   SMASS  =  -3.00    Nose mass-parameter (am)
   estimated Nose-frequenzy (Omega)   =  0.10E-29 period in steps =****** mass=  -0.255E-26a.u.
   SCALEE = 1.0000    scale energy and forces
   NPACO  =    256;   APACO  = 16.0  distance and # of slots for P.C.
   PSTRESS=    0.0 pullay stress

  Mass of Ions in am
   POMASS =  63.55195.08  1.00
  Ionic Valenz
   ZVAL   =  11.00 10.00  1.00
  Atomic Wigner-Seitz radii
   RWIGS  =  -1.00 -1.00 -1.00
  virtual crystal weights 
   VCA    =   1.00  1.00  1.00
   NELECT =     866.0000    total number of electrons
   NUPDOWN=      -1.0000    fix difference up-down

 DOS related values:
   EMIN   =  10.00;   EMAX   =-10.00  energy-range for DOS
   EFERMI =   0.00
   ISMEAR =    -5;   SIGMA  =   0.10  broadening in eV -4-tet -1-fermi 0-gaus

 Electronic relaxation 2 (details)
   IALGO  =     68    algorithm
   LDIAG  =      T    sub-space diagonalisation (order eigenvalues)
   LSUBROT=      F    optimize rotation matrix (better conditioning)
   TURBO    =      0    0=normal 1=particle mesh
   IRESTART =      0    0=no restart 2=restart with 2 vectors
   NREBOOT  =      0    no. of reboots
   NMIN     =      0    reboot dimension
   EREF     =   0.00    reference energy to select bands
   IMIX   =      4    mixing-type and parameters
     AMIX     =   0.40;   BMIX     =  1.00
     AMIX_MAG =   1.60;   BMIX_MAG =  1.00
     AMIN     =   0.10
     WC   =   100.;   INIMIX=   1;  MIXPRE=   1;  MAXMIX= -45

 Intra band minimization:
   WEIMIN = 0.0010     energy-eigenvalue tresh-hold
   EBREAK =  0.45E-08  absolut break condition
   DEPER  =   0.30     relativ break condition  

   TIME   =   0.40     timestep for ELM

  volume/ion in A,a.u.               =      25.91       174.85
  Fermi-wavevector in a.u.,A,eV,Ry     =   1.213818  2.293784 20.046215  1.473355
  Thomas-Fermi vector in A             =   2.349258
 
 Write flags
   LWAVE        =      F    write WAVECAR
   LDOWNSAMPLE  =      F    k-point downsampling of WAVECAR
   LCHARG       =      F    write CHGCAR
   LVTOT        =      F    write LOCPOT, total local potential
   LVHAR        =      F    write LOCPOT, Hartree potential only
   LELF         =      F    write electronic localiz. function (ELF)
   LORBIT       =      0    0 simple, 1 ext, 2 COOP (PROOUT), +10 PAW based schemes


 Dipole corrections
   LMONO  =      F    monopole corrections only (constant potential shift)
   LDIPOL =      F    correct potential (dipole corrections)
   IDIPOL =      0    1-x, 2-y, 3-z, 4-all directions 
   EPSILON=  1.0000000 bulk dielectric constant

 Exchange correlation treatment:
   GGA     =    --    GGA type
   LEXCH   =     8    internal setting for exchange type
   VOSKOWN=      0    Vosko Wilk Nusair interpolation
   LHFCALC =     F    Hartree Fock is set to
   LHFONE  =     F    Hartree Fock one center treatment
   AEXX    =    0.0000 exact exchange contribution

 Linear response parameters
   LEPSILON=     F    determine dielectric tensor
   LRPA    =     F    only Hartree local field effects (RPA)
   LNABLA  =     F    use nabla operator in PAW spheres
   LVEL    =     F    velocity operator in full k-point grid
   LINTERFAST=   F  fast interpolation
   KINTER  =     0    interpolate to denser k-point grid
   CSHIFT  =0.1000    complex shift for real part using Kramers Kronig
   OMEGAMAX=  -1.0    maximum frequency
   DEG_THRESHOLD= 0.2000000E-02 threshold for treating states as degnerate
   RTIME   =   -0.100 relaxation time in fs
  (WPLASMAI=    0.000 imaginary part of plasma frequency in eV, 0.658/RTIME)
   DFIELD  = 0.0000000 0.0000000 0.0000000 field for delta impulse in time
 
 Orbital magnetization related:
   ORBITALMAG=     F  switch on orbital magnetization
   LCHIMAG   =     F  perturbation theory with respect to B field
   DQ        =  0.001000  dq finite difference perturbation B field
   LLRAUG    =     F  two centre corrections for induced B field



--------------------------------------------------------------------------------------------------------


 finite differences
   using selective dynamics as specified on POSCAR
   WARNING: If single coordinates had been selected the selection of coordinates
            is made according to the corresponding   d i r e c t   coordinates!
            Don't support selection of single cartesian coordinates -- sorry ...
  !
 charge density and potential will be updated during run
 spin polarized calculation
 RMM-DIIS sequential band-by-band and
  variant of blocked Davidson during initial phase
 perform sub-space diagonalisation
    before iterative eigenvector-optimisation
 modified Broyden-mixing scheme, WC =      100.0
 initial mixing is a Kerker type mixing with AMIX =  0.4000 and BMIX =      1.0000
 Hartree-type preconditioning will be used
 using additional bands          127
 real space projection scheme for non local part
 use partial core corrections
 calculate Harris-corrections to forces 
   (improved forces if not selfconsistent)
 use gradient corrections 
 use of overlap-Matrix (Vanderbilt PP)
 Fermi weights with tetrahedron method with Bloechl corrections


--------------------------------------------------------------------------------------------------------


  energy-cutoff  :      550.00
  volume of cell :     2124.62
      direct lattice vectors                 reciprocal lattice vectors
    10.560000420  0.000000000  0.000000000     0.094696966 -0.054673319  0.000000000
     5.280000210  9.145228627  0.000000000     0.000000000  0.109346638  0.000000000
     0.000000000  0.000000000 22.000000000     0.000000000  0.000000000  0.045454545

  length of vectors
    10.560000420 10.560000420 22.000000000     0.109346638  0.109346638  0.045454545


 
 k-points in units of 2pi/SCALE and weight: mesh auto                               
   0.00000000  0.00000000  0.00000000       0.250
   0.04734848 -0.02733666  0.00000000       0.250
   0.00000000  0.05467332  0.00000000       0.250
   0.04734848  0.02733666  0.00000000       0.250
 
 k-points in reciprocal lattice and weights: mesh auto                               
   0.00000000  0.00000000  0.00000000       0.250
   0.50000000  0.00000000  0.00000000       0.250
   0.00000000  0.50000000  0.00000000       0.250
   0.50000000  0.50000000  0.00000000       0.250
 
 position of ions in fractional coordinates (direct lattice) 
   0.78512085  0.86921948  0.31462641
   0.03539098  0.86907096  0.31471739
   0.03515111  0.61936590  0.31470873
   0.78624900  0.86835803  0.04490293
   0.03632593  0.86831096  0.04490378
   0.03629270  0.61834538  0.04490407
   0.61900594  0.20203528  0.13527817
   0.36902872  0.95201797  0.13527936
   0.03505794  0.36939797  0.31465823
   0.03632232  0.36834008  0.04490425
   0.86903544  0.20201704  0.13528693
   0.95197377  0.53580161  0.22503067
   0.28529648  0.11916793  0.31465765
   0.53533223  0.61942995  0.31413978
   0.28515418  0.36926821  0.31462300
   0.28627437  0.11834063  0.04490500
   0.53631616  0.61834530  0.04488591
   0.28635483  0.36832902  0.04489700
   0.61901160  0.95199349  0.13527291
   0.70205634  0.78566463  0.22502483
   0.86905623  0.70197733  0.13528016
   0.61901543  0.45202163  0.13527904
   0.28497575  0.86977662  0.31452002
   0.28633138  0.86834683  0.04488814
   0.61902971  0.70201856  0.13527944
   0.20190343  0.03575566  0.22498441
   0.53501755  0.36901545  0.31445583
   0.53629100  0.36836874  0.04488825
   0.53525701  0.11926263  0.31470512
   0.53631492  0.11831875  0.04489277
   0.86908216  0.45197647  0.13527762
   0.11905660  0.45201537  0.13528985
   0.03507393  0.11917789  0.31467561
   0.03628167  0.11834476  0.04490753
   0.11906013  0.95198965  0.13527885
   0.45194150  0.53555469  0.22489123
   0.36902445  0.20201498  0.13528569
   0.11903031  0.20204112  0.13529147
   0.95216187  0.78561491  0.22502148
   0.78515753  0.61912765  0.31468391
   0.28491968  0.61912690  0.31445307
   0.78625855  0.61835147  0.04489831
   0.28631485  0.61834448  0.04489351
   0.36906041  0.70200853  0.13527467
   0.36902898  0.45201831  0.13528487
   0.20205661  0.28565862  0.22506751
   0.78567144  0.36907374  0.31452831
   0.78624559  0.36836494  0.04489780
   0.95194600  0.03555671  0.22505789
   0.45190703  0.78611245  0.22484850
   0.70250318  0.53551382  0.22484346
   0.20198205  0.78578691  0.22495081
   0.45219249  0.03558537  0.22503034
   0.11907534  0.70197617  0.13528836
   0.70200021  0.03577101  0.22501662
   0.78496671  0.11948753  0.31471497
   0.53503105  0.86925383  0.31467499
   0.78630020  0.11833290  0.04491016
   0.53626603  0.86832649  0.04487574
   0.20191090  0.53563639  0.22495611
   0.95211755  0.28552306  0.22499331
   0.86907018  0.95198510  0.13528489
   0.70216238  0.28558983  0.22495195
   0.45203199  0.28551835  0.22495436
   0.86800032  0.95312799  0.41371773
   0.11793561  0.45313253  0.41367776
   0.11801878  0.95303656  0.41373821
   0.86782185  0.45321053  0.41380058
   0.36807922  0.95296467  0.41379435
   0.86789750  0.20311361  0.41374693
   0.11788115  0.20304556  0.41371181
   0.61789514  0.95311132  0.41370226
   0.86795614  0.70303592  0.41370692
   0.36799554  0.20307726  0.41367706
   0.36795838  0.70306777  0.41296893
   0.61799360  0.45303466  0.41295426
   0.11805986  0.70297123  0.41385089
   0.61782651  0.20318149  0.41385498
   0.36796794  0.45309596  0.41359285
   0.61795750  0.70307051  0.41359532
   0.47402942  0.55547025  0.54865583
   0.51652846  0.59521437  0.54885637
 
 position of ions in cartesian coordinates  (Angst):
  12.88035551  7.94921085  6.92178095
   4.96242362  7.94785259  6.92378248
   3.64144784  5.66424280  6.92359206
  12.88772033  7.94133272  0.98786446
   4.96828393  7.94090224  0.98788306
   3.64811462  5.65490987  0.98788947
   7.60344927  1.84765881  2.97611975
   8.92359848  8.70642196  2.97614598
   2.32063317  3.37822889  6.92248103
   2.32839939  3.36855426  0.98789358
  10.24366464  1.84749206  2.97631248
  12.88187605  4.90002819  4.95067466
   3.64193765  1.08981795  6.92246822
   8.92369880  5.66482853  6.91107519
   4.96096444  3.37704219  6.92170608
   3.64789606  1.08225215  0.98791005
   8.92836215  5.65490912  0.98748999
   4.96868441  3.36845313  0.98773405
  11.56328854  8.70619814  2.97600392
  11.56202465  7.18508267  4.95054617
  12.88367467  6.41974322  2.97616357
   8.92347749  4.13384112  2.97613890
   7.60176485  7.95430609  6.91944039
   7.60853096  7.94123032  0.98753917
  10.24361217  6.42012028  2.97614778
   2.32089020  0.32699371  4.94965704
   7.59818727  3.37473070  6.91802834
   7.60822020  3.36881638  0.98754146
   6.28202094  1.09068406  6.92351257
   6.28820881  1.08205200  0.98764103
  11.56394379  4.13342813  2.97610764
   3.64387901  4.13378388  2.97637661
   0.99964000  1.08990901  6.92286344
   1.00799478  1.08228986  0.98796576
   6.28378054  8.70616301  2.97613461
   7.60023135  4.89777009  4.94760703
   4.96353744  1.84747315  2.97628524
   2.32373725  1.84771228  2.97641232
  14.20287668  7.18462796  4.95047261
  11.56025797  5.66206394  6.92304612
   6.27774209  5.66205708  6.91796755
  11.56778653  5.65496554  0.98776285
   6.28834392  5.65490162  0.98765720
   7.60388330  6.42002854  2.97604272
   6.28360299  4.13381078  2.97626705
   3.64199541  2.61241336  4.95148518
  10.24540021  3.37526377  6.91962280
  10.24772068  3.36878157  0.98775169
  10.24028961  0.32517428  4.95127360
   8.92281234  7.18917811  4.94666709
  10.24594692  4.89739632  4.94655617
   6.28188563  7.18620095  4.94891788
   4.96304364  0.32543634  4.95066758
   4.96386992  6.41973253  2.97634381
   7.60199344  0.32713404  4.95036563
   8.92014296  1.09274078  6.92372933
  10.23958849  7.94952499  6.92284968
   8.92812813  1.08218139  0.98802358
  10.24773354  7.94104423  0.98726635
   4.96033947  4.89851728  4.94903445
  11.56192352  2.61117365  4.94985290
  14.20386302  8.70612141  2.97626755
   8.92274937  2.61178427  4.94894287
   6.28099496  2.61113056  4.94899603
  14.19859972  8.71657338  9.10179002
   3.63793997  4.14400056  9.10091072
   6.27831160  8.71573719  9.10224051
  11.55715081  4.14471390  9.10361279
   8.91857033  8.71507978  9.10347566
  10.23743784  1.85752044  9.10243247
   2.31690562  1.85689805  9.10165986
  11.55740091  8.71642093  9.10144977
  12.87764695  6.42942421  9.10155232
   4.95828107  1.85718799  9.10089527
   7.59783862  6.42971549  9.08531644
   8.91803579  4.14310551  9.08499379
   4.95840040  6.42883259  9.10471960
   7.59704651  1.85814120  9.10480965
   6.27808836  4.14366614  9.09904262
  10.23784393  6.42974054  9.09909709
   7.93863387  5.07990239 12.07042824
   8.59727278  5.44337147 12.07484016
 


--------------------------------------------------------------------------------------------------------


 k-point  1 :   0.0000 0.0000 0.0000  plane waves:   62167
 k-point  2 :   0.5000 0.0000 0.0000  plane waves:   62242
 k-point  3 :   0.0000 0.5000 0.0000  plane waves:   62242
 k-point  4 :   0.5000 0.5000 0.0000  plane waves:   62242

 maximum and minimum number of plane-waves per node :     62242    62167

 maximum number of plane-waves:     62242
 maximum index in each direction: 
   IXMAX=   20   IYMAX=   20   IZMAX=   42
   IXMIN=  -20   IYMIN=  -20   IZMIN=  -42


 serial   3D FFT for wavefunctions
 parallel 3D FFT for charge:
    minimum data exchange during FFTs selected (reduces bandwidth)


 total amount of memory used by VASP MPI-rank0   387428. kBytes
=======================================================================

   base      :      30000. kBytes
   nonlr-proj:     106610. kBytes
   fftplans  :      13995. kBytes
   grid      :     120016. kBytes
   one-center:       2550. kBytes
   wavefun   :     114257. kBytes
 
     INWAV:  cpu time    0.0000: real time    0.0000
 Broyden mixing: mesh for mixing (old mesh)
   NGX = 41   NGY = 41   NGZ = 85
  (NGX  =168   NGY  =168   NGZ  =336)
  gives a total of 142885 points

 initial charge density was supplied:
 charge density of overlapping atoms calculated
 number of electron     866.0000000 magnetization      82.0000000
 keeping initial charge density in first step


--------------------------------------------------------------------------------------------------------


 Maximum index for non-local projection operator         7548
 Maximum index for augmentation-charges         1210 (set IRDMAX)


--------------------------------------------------------------------------------------------------------


 First call to EWALD:  gamma=   0.138
 Maximum number of real-space cells 4x 4x 2
 Maximum number of reciprocal cells 2x 2x 4

    FEWALD:  cpu time    0.0036: real time    0.0037


--------------------------------------- Iteration      1(   1)  ---------------------------------------


    POTLOK:  cpu time    0.4879: real time    0.5383
    SETDIJ:  cpu time    0.0324: real time    0.0329
     EDDAV:  cpu time   55.9633: real time   56.1060
 BZINTS: Fermi energy: 21.065004;866.000000 electrons
         Band energy:9113.178344;  BLOECHL correction: -0.002592
       DOS:  cpu time    0.0167: real time    0.0169
    --------------------------------------------
      LOOP:  cpu time   56.5003: real time   56.6942

 eigenvalue-minimisations  :  8960
 total energy-change (2. order) : 0.9220131E+04  (-0.3762467E+05)
 number of electron     866.0000000 magnetization      82.0000000
 augmentation part      866.0000000 magnetization      82.0000000

 Free energy of the ion-electron system (eV)
  ---------------------------------------------------
  alpha Z        PSCENC =      2356.26949328
  Ewald energy   TEWEN  =    310042.46002557
  -Hartree energ DENC   =   -409674.10527326
  -exchange      EXHF   =         0.00000000
  -V(xc)+E(xc)   XCENC  =      2989.21506912
  PAW double counting   =     89738.56882376   -96058.82040362
  entropy T*S    EENTRO =         0.00000000
  eigenvalues    EBANDS =      9113.17834379
  atomic energy  EATOM  =    100713.36531073
  Solvation  Ediel_sol  =         0.00000000
  ---------------------------------------------------
  free energy    TOTEN  =      9220.13138937 eV

  energy without entropy =     9220.13138937  energy(sigma->0) =     9220.13138937


--------------------------------------------------------------------------------------------------------




--------------------------------------- Iteration      1(   2)  ---------------------------------------


     EDDAV:  cpu time   55.6273: real time   55.7637
 BZINTS: Fermi energy:  7.969827;866.000000 electrons
         Band energy:1375.366971;  BLOECHL correction: -0.008239
       DOS:  cpu time    0.0180: real time    0.0180
    --------------------------------------------
      LOOP:  cpu time   55.6452: real time   55.7818

 eigenvalue-minimisations  :  8960
 total energy-change (2. order) :-0.7737811E+04  (-0.7250617E+04)
 number of electron     866.0000000 magnetization      82.0000000
 augmentation part      866.0000000 magnetization      82.0000000

 Free energy of the ion-electron system (eV)
  ---------------------------------------------------
  alpha Z        PSCENC =      2356.26949328
  Ewald energy   TEWEN  =    310042.46002557
  -Hartree energ DENC   =   -409674.10527326
  -exchange      EXHF   =         0.00000000
  -V(xc)+E(xc)   XCENC  =      2989.21506912
  PAW double counting   =     89738.56882376   -96058.82040362
  entropy T*S    EENTRO =         0.00000000
  eigenvalues    EBANDS =      1375.36697136
  atomic energy  EATOM  =    100713.36531073
  Solvation  Ediel_sol  =         0.00000000
  ---------------------------------------------------
  free energy    TOTEN  =      1482.32001694 eV

  energy without entropy =     1482.32001694  energy(sigma->0) =     1482.32001694


--------------------------------------------------------------------------------------------------------




--------------------------------------- Iteration      1(   3)  ---------------------------------------


     EDDAV:  cpu time   57.6976: real time   57.8382
 BZINTS: Fermi energy:  2.905012;866.000000 electrons
         Band energy:-280.355840;  BLOECHL correction: -0.033424
       DOS:  cpu time    0.0183: real time    0.0183
    --------------------------------------------
      LOOP:  cpu time   57.7159: real time   57.8565

 eigenvalue-minimisations  :  9400
 total energy-change (2. order) :-0.1655723E+04  (-0.1483374E+04)
 number of electron     866.0000000 magnetization      82.0000000
 augmentation part      866.0000000 magnetization      82.0000000

 Free energy of the ion-electron system (eV)
  ---------------------------------------------------
  alpha Z        PSCENC =      2356.26949328
  Ewald energy   TEWEN  =    310042.46002557
  -Hartree energ DENC   =   -409674.10527326
  -exchange      EXHF   =         0.00000000
  -V(xc)+E(xc)   XCENC  =      2989.21506912
  PAW double counting   =     89738.56882376   -96058.82040362
  entropy T*S    EENTRO =         0.00000000
  eigenvalues    EBANDS =      -280.35584000
  atomic energy  EATOM  =    100713.36531073
  Solvation  Ediel_sol  =         0.00000000
  ---------------------------------------------------
  free energy    TOTEN  =      -173.40279442 eV

  energy without entropy =     -173.40279442  energy(sigma->0) =     -173.40279442


--------------------------------------------------------------------------------------------------------




--------------------------------------- Iteration      1(   4)  ---------------------------------------


     EDDAV:  cpu time   79.3053: real time   79.5372
 BZINTS: Fermi energy:  2.263944;866.000000 electrons
         Band energy:-473.760869;  BLOECHL correction: -0.073940
       DOS:  cpu time    0.0172: real time    0.0173
    --------------------------------------------
      LOOP:  cpu time   79.3225: real time   79.5545

 eigenvalue-minimisations  : 13960
 total energy-change (2. order) :-0.1934050E+03  (-0.1759461E+03)
 number of electron     866.0000000 magnetization      82.0000000
 augmentation part      866.0000000 magnetization      82.0000000

 Free energy of the ion-electron system (eV)
  ---------------------------------------------------
  alpha Z        PSCENC =      2356.26949328
  Ewald energy   TEWEN  =    310042.46002557
  -Hartree energ DENC   =   -409674.10527326
  -exchange      EXHF   =         0.00000000
  -V(xc)+E(xc)   XCENC  =      2989.21506912
  PAW double counting   =     89738.56882376   -96058.82040362
  entropy T*S    EENTRO =         0.00000000
  eigenvalues    EBANDS =      -473.76086914
  atomic energy  EATOM  =    100713.36531073
  Solvation  Ediel_sol  =         0.00000000
  ---------------------------------------------------
  free energy    TOTEN  =      -366.80782356 eV

  energy without entropy =     -366.80782356  energy(sigma->0) =     -366.80782356


--------------------------------------------------------------------------------------------------------




--------------------------------------- Iteration      1(   5)  ---------------------------------------


     EDDAV:  cpu time   76.2406: real time   76.4634
 BZINTS: Fermi energy:  2.251872;866.000000 electrons
         Band energy:-479.211665;  BLOECHL correction: -0.077076
       DOS:  cpu time    0.0150: real time    0.0150
    CHARGE:  cpu time    3.0803: real time    3.0894
    MIXING:  cpu time    0.0099: real time    0.0108
    --------------------------------------------
      LOOP:  cpu time   79.3458: real time   79.5786

 eigenvalue-minimisations  : 13320
 total energy-change (2. order) :-0.5450796E+01  (-0.5396741E+01)
 number of electron     866.0000447 magnetization      73.9010677
 augmentation part      462.3158955 magnetization      70.9191499

 Broyden mixing:
  rms(total) = 0.90040E+01    rms(broyden)= 0.90040E+01
  rms(prec ) = 0.93182E+01
  weight for this iteration     100.00

 Free energy of the ion-electron system (eV)
  ---------------------------------------------------
  alpha Z        PSCENC =      2356.26949328
  Ewald energy   TEWEN  =    310042.46002557
  -Hartree energ DENC   =   -409674.10527326
  -exchange      EXHF   =         0.00000000
  -V(xc)+E(xc)   XCENC  =      2989.21506912
  PAW double counting   =     89738.56882376   -96058.82040362
  entropy T*S    EENTRO =         0.00000000
  eigenvalues    EBANDS =      -479.21166538
  atomic energy  EATOM  =    100713.36531073
  Solvation  Ediel_sol  =         0.00000000
  ---------------------------------------------------
  free energy    TOTEN  =      -372.25861980 eV

  energy without entropy =     -372.25861980  energy(sigma->0) =     -372.25861980


--------------------------------------------------------------------------------------------------------




--------------------------------------- Iteration      1(   6)  ---------------------------------------


    POTLOK:  cpu time    0.4385: real time    0.4397
    SETDIJ:  cpu time    0.0341: real time    0.0342
    EDDIAG:  cpu time    8.6298: real time    8.6556
  RMM-DIIS:  cpu time   35.5853: real time   35.6908
    ORTHCH:  cpu time    1.1978: real time    1.2011
 BZINTS: Fermi energy:  1.516714;866.000000 electrons
         Band energy:***********;  BLOECHL correction: -0.240273
       DOS:  cpu time    0.0192: real time    0.0193
    CHARGE:  cpu time    3.0988: real time    3.1079
    MIXING:  cpu time    0.0103: real time    0.0105
    --------------------------------------------
      LOOP:  cpu time   49.0139: real time   49.1592

 eigenvalue-minimisations  :  8989
 total energy-change (2. order) :-0.3574105E+01  (-0.7875552E+02)
 number of electron     866.0000514 magnetization      70.6042580
 augmentation part      514.0786855 magnetization      48.1360026

 Broyden mixing:
  rms(total) = 0.61797E+01    rms(broyden)= 0.61796E+01
  rms(prec ) = 0.88958E+01
  weight for this iteration     100.00

 eigenvalues of (default mixing * dielectric matrix)
  average eigenvalue GAMMA=   0.7262
  0.7262

 Free energy of the ion-electron system (eV)
  ---------------------------------------------------
  alpha Z        PSCENC =      2356.26949328
  Ewald energy   TEWEN  =    310042.46002557
  -Hartree energ DENC   =   -407578.67566895
  -exchange      EXHF   =         0.00000000
  -V(xc)+E(xc)   XCENC  =      2908.63245377
  PAW double counting   =     92141.55448911   -98110.71004768
  entropy T*S    EENTRO =         0.00000000
  eigenvalues    EBANDS =     -2848.72878029
  atomic energy  EATOM  =    100713.36531073
  Solvation  Ediel_sol  =         0.00000000
  ---------------------------------------------------
  free energy    TOTEN  =      -375.83272446 eV

  energy without entropy =     -375.83272446  energy(sigma->0) =     -375.83272446


--------------------------------------------------------------------------------------------------------




--------------------------------------- Iteration      1(   7)  ---------------------------------------


    POTLOK:  cpu time    0.4359: real time    0.4369
    SETDIJ:  cpu time    0.0320: real time    0.0321
    EDDIAG:  cpu time    8.5950: real time    8.6206
  RMM-DIIS:  cpu time   37.4128: real time   37.5228
    ORTHCH:  cpu time    1.2023: real time    1.2057
 BZINTS: Fermi energy:  2.528509;866.000000 electrons
         Band energy:***********;  BLOECHL correction: -0.014794
       DOS:  cpu time    0.0201: real time    0.0202
    CHARGE:  cpu time    3.0967: real time    3.1058
    MIXING:  cpu time    0.0106: real time    0.0107
    --------------------------------------------
      LOOP:  cpu time   50.8055: real time   50.9546

 eigenvalue-minimisations  :  9506
 total energy-change (2. order) :-0.6202938E+02  (-0.2415146E+02)
 number of electron     866.0000443 magnetization      68.4031176
 augmentation part      485.7904448 magnetization      50.0713546

 Broyden mixing:
  rms(total) = 0.10577E+02    rms(broyden)= 0.10577E+02
  rms(prec ) = 0.14599E+02
  weight for this iteration     100.00

 eigenvalues of (default mixing * dielectric matrix)
  average eigenvalue GAMMA=   0.4494
  0.7900  0.1087

 Free energy of the ion-electron system (eV)
  ---------------------------------------------------
  alpha Z        PSCENC =      2356.26949328
  Ewald energy   TEWEN  =    310042.46002557
  -Hartree energ DENC   =   -408939.22666159
  -exchange      EXHF   =         0.00000000
  -V(xc)+E(xc)   XCENC  =      2935.43492262
  PAW double counting   =     93913.09293028  -100235.65843981
  entropy T*S    EENTRO =         0.00000000
  eigenvalues    EBANDS =     -1223.59968067
  atomic energy  EATOM  =    100713.36531073
  Solvation  Ediel_sol  =         0.00000000
  ---------------------------------------------------
  free energy    TOTEN  =      -437.86209959 eV

  energy without entropy =     -437.86209959  energy(sigma->0) =     -437.86209959


--------------------------------------------------------------------------------------------------------




--------------------------------------- Iteration      1(   8)  ---------------------------------------


    POTLOK:  cpu time    0.4340: real time    0.4351
    SETDIJ:  cpu time    0.0318: real time    0.0319
    EDDIAG:  cpu time    8.6496: real time    8.6715
  RMM-DIIS:  cpu time   35.9049: real time   35.9904
    ORTHCH:  cpu time    1.2053: real time    1.2081
 BZINTS: Fermi energy:  1.796045;866.000000 electrons
         Band energy:***********;  BLOECHL correction: -0.231972
       DOS:  cpu time    0.0199: real time    0.0199
    CHARGE:  cpu time    3.0819: real time    3.0892
    MIXING:  cpu time    0.0105: real time    0.0105
    --------------------------------------------
      LOOP:  cpu time   49.3381: real time   49.4567

 eigenvalue-minimisations  :  9032
 total energy-change (2. order) : 0.8795116E+02  (-0.2949226E+01)
 number of electron     866.0000481 magnetization      65.8975021
 augmentation part      495.5412317 magnetization      49.9480326

 Broyden mixing:
  rms(total) = 0.64010E+01    rms(broyden)= 0.64008E+01
  rms(prec ) = 0.76433E+01
  weight for this iteration     100.00

 eigenvalues of (default mixing * dielectric matrix)
  average eigenvalue GAMMA=   0.4277
  0.8731  0.2050  0.2050

 Free energy of the ion-electron system (eV)
  ---------------------------------------------------
  alpha Z        PSCENC =      2356.26949328
  Ewald energy   TEWEN  =    310042.46002557
  -Hartree energ DENC   =   -408955.65534456
  -exchange      EXHF   =         0.00000000
  -V(xc)+E(xc)   XCENC  =      2933.29606691
  PAW double counting   =     94761.43849050  -101140.77437593
  entropy T*S    EENTRO =         0.00000000
  eigenvalues    EBANDS =     -1060.31060478
  atomic energy  EATOM  =    100713.36531073
  Solvation  Ediel_sol  =         0.00000000
  ---------------------------------------------------
  free energy    TOTEN  =      -349.91093829 eV

  energy without entropy =     -349.91093829  energy(sigma->0) =     -349.91093829


--------------------------------------------------------------------------------------------------------




--------------------------------------- Iteration      1(   9)  ---------------------------------------


    POTLOK:  cpu time    0.4376: real time    0.4386
    SETDIJ:  cpu time    0.0315: real time    0.0316
    EDDIAG:  cpu time    8.5997: real time    8.6202
  RMM-DIIS:  cpu time   35.6181: real time   35.7221
    ORTHCH:  cpu time    1.3371: real time    1.3408
 BZINTS: Fermi energy:  1.240721;866.000000 electrons
         Band energy:***********;  BLOECHL correction: -0.366366
       DOS:  cpu time    0.0197: real time    0.0197
    CHARGE:  cpu time    3.0259: real time    3.0350
    MIXING:  cpu time    0.0105: real time    0.0105
    --------------------------------------------
      LOOP:  cpu time   49.0801: real time   49.2185

 eigenvalue-minimisations  :  9090
 total energy-change (2. order) : 0.3442643E+02  (-0.2929287E+01)
 number of electron     866.0000476 magnetization      59.8123670
 augmentation part      499.7828833 magnetization      43.7970001

 Broyden mixing:
  rms(total) = 0.40953E+01    rms(broyden)= 0.40953E+01
  rms(prec ) = 0.53623E+01
  weight for this iteration     100.00

 eigenvalues of (default mixing * dielectric matrix)
  average eigenvalue GAMMA=   0.5316
  1.0012  0.4726  0.4726  0.1802

 Free energy of the ion-electron system (eV)
  ---------------------------------------------------
  alpha Z        PSCENC =      2356.26949328
  Ewald energy   TEWEN  =    310042.46002557
  -Hartree energ DENC   =   -408604.71355210
  -exchange      EXHF   =         0.00000000
  -V(xc)+E(xc)   XCENC  =      2936.53964394
  PAW double counting   =     95447.70971518  -101853.69974668
  entropy T*S    EENTRO =         0.00000000
  eigenvalues    EBANDS =     -1353.41539687
  atomic energy  EATOM  =    100713.36531073
  Solvation  Ediel_sol  =         0.00000000
  ---------------------------------------------------
  free energy    TOTEN  =      -315.48450695 eV

  energy without entropy =     -315.48450695  energy(sigma->0) =     -315.48450695


--------------------------------------------------------------------------------------------------------




--------------------------------------- Iteration      1(  10)  ---------------------------------------


    POTLOK:  cpu time    0.4346: real time    0.4358
    SETDIJ:  cpu time    0.0317: real time    0.0318
    EDDIAG:  cpu time    8.5910: real time    8.6162
  RMM-DIIS:  cpu time   35.9994: real time   36.1049
    ORTHCH:  cpu time    1.1958: real time    1.1993
 BZINTS: Fermi energy:  1.682665;866.000000 electrons
         Band energy:***********;  BLOECHL correction: -0.133849
       DOS:  cpu time    0.0190: real time    0.0190
    CHARGE:  cpu time    3.0729: real time    3.0818
    MIXING:  cpu time    0.0111: real time    0.0111
    --------------------------------------------
      LOOP:  cpu time   49.3554: real time   49.4998

 eigenvalue-minimisations  :  9051
 total energy-change (2. order) : 0.2757019E+02  (-0.4070647E+01)
 number of electron     866.0000477 magnetization      55.2920085
 augmentation part      495.3057676 magnetization      37.6488966

 Broyden mixing:
  rms(total) = 0.25211E+01    rms(broyden)= 0.25211E+01
  rms(prec ) = 0.27984E+01
  weight for this iteration     100.00

 eigenvalues of (default mixing * dielectric matrix)
  average eigenvalue GAMMA=   0.5832
  1.2013  0.6142  0.6142  0.3057  0.1804

 Free energy of the ion-electron system (eV)
  ---------------------------------------------------
  alpha Z        PSCENC =      2356.26949328
  Ewald energy   TEWEN  =    310042.46002557
  -Hartree energ DENC   =   -408698.84252435
  -exchange      EXHF   =         0.00000000
  -V(xc)+E(xc)   XCENC  =      2951.96491208
  PAW double counting   =     96806.64180109  -103265.56020007
  entropy T*S    EENTRO =         0.00000000
  eigenvalues    EBANDS =     -1194.21313330
  atomic energy  EATOM  =    100713.36531073
  Solvation  Ediel_sol  =         0.00000000
  ---------------------------------------------------
  free energy    TOTEN  =      -287.91431497 eV

  energy without entropy =     -287.91431497  energy(sigma->0) =     -287.91431497


--------------------------------------------------------------------------------------------------------




--------------------------------------- Iteration      1(  11)  ---------------------------------------


    POTLOK:  cpu time    0.4335: real time    0.4346
    SETDIJ:  cpu time    0.0315: real time    0.0318
    EDDIAG:  cpu time    8.8250: real time    8.8506
  RMM-DIIS:  cpu time   35.5060: real time   35.6105
    ORTHCH:  cpu time    1.2015: real time    1.2049
 BZINTS: Fermi energy:  1.672859;866.000000 electrons
         Band energy:***********;  BLOECHL correction: -0.254752
       DOS:  cpu time    0.0174: real time    0.0174
    CHARGE:  cpu time    3.0301: real time    3.0389
    MIXING:  cpu time    0.0113: real time    0.0113
    --------------------------------------------
      LOOP:  cpu time   49.0563: real time   49.2000

 eigenvalue-minimisations  :  9010
 total energy-change (2. order) : 0.3288925E+01  (-0.1507430E+01)
 number of electron     866.0000481 magnetization      52.0746144
 augmentation part      496.2916770 magnetization      38.0913230

 Broyden mixing:
  rms(total) = 0.19262E+01    rms(broyden)= 0.19262E+01
  rms(prec ) = 0.20062E+01
  weight for this iteration     100.00

 eigenvalues of (default mixing * dielectric matrix)
  average eigenvalue GAMMA=   0.5605
  1.3430  0.5283  0.5283  0.5015  0.1814  0.2806

 Free energy of the ion-electron system (eV)
  ---------------------------------------------------
  alpha Z        PSCENC =      2356.26949328
  Ewald energy   TEWEN  =    310042.46002557
  -Hartree energ DENC   =   -408704.31313736
  -exchange      EXHF   =         0.00000000
  -V(xc)+E(xc)   XCENC  =      2949.11471855
  PAW double counting   =     97492.51608244  -103967.49298469
  entropy T*S    EENTRO =         0.00000000
  eigenvalues    EBANDS =     -1166.54489846
  atomic energy  EATOM  =    100713.36531073
  Solvation  Ediel_sol  =         0.00000000
  ---------------------------------------------------
  free energy    TOTEN  =      -284.62538994 eV

  energy without entropy =     -284.62538994  energy(sigma->0) =     -284.62538994


--------------------------------------------------------------------------------------------------------




--------------------------------------- Iteration      1(  12)  ---------------------------------------


    POTLOK:  cpu time    0.4320: real time    0.4333
    SETDIJ:  cpu time    0.0319: real time    0.0320
    EDDIAG:  cpu time    8.6331: real time    8.6581
  RMM-DIIS:  cpu time   35.6447: real time   35.7494
    ORTHCH:  cpu time    1.1998: real time    1.2033
 BZINTS: Fermi energy:  1.670259;866.000000 electrons
         Band energy:***********;  BLOECHL correction: -0.176240
       DOS:  cpu time    0.0201: real time    0.0202
    CHARGE:  cpu time    3.0324: real time    3.0412
    MIXING:  cpu time    0.0121: real time    0.0122
    --------------------------------------------
      LOOP:  cpu time   49.0061: real time   49.1496

 eigenvalue-minimisations  :  9039
 total energy-change (2. order) : 0.1910867E+00  (-0.1548653E+00)
 number of electron     866.0000482 magnetization      35.7824234
 augmentation part      497.5861895 magnetization      21.5144945

 Broyden mixing:
  rms(total) = 0.15686E+01    rms(broyden)= 0.15686E+01
  rms(prec ) = 0.16190E+01
  weight for this iteration     100.00

 eigenvalues of (default mixing * dielectric matrix)
  average eigenvalue GAMMA=   0.7091
  1.2769  1.2769  0.7560  0.7560  0.1813  0.2990  0.4180

 Free energy of the ion-electron system (eV)
  ---------------------------------------------------
  alpha Z        PSCENC =      2356.26949328
  Ewald energy   TEWEN  =    310042.46002557
  -Hartree energ DENC   =   -408692.26507550
  -exchange      EXHF   =         0.00000000
  -V(xc)+E(xc)   XCENC  =      2945.33493415
  PAW double counting   =     97789.50457028  -104269.64489397
  entropy T*S    EENTRO =         0.00000000
  eigenvalues    EBANDS =     -1169.45866780
  atomic energy  EATOM  =    100713.36531073
  Solvation  Ediel_sol  =         0.00000000
  ---------------------------------------------------
  free energy    TOTEN  =      -284.43430328 eV

  energy without entropy =     -284.43430328  energy(sigma->0) =     -284.43430328


--------------------------------------------------------------------------------------------------------




--------------------------------------- Iteration      1(  13)  ---------------------------------------


    POTLOK:  cpu time    0.4509: real time    0.4524
    SETDIJ:  cpu time    0.0323: real time    0.0323
    EDDIAG:  cpu time    8.5959: real time    8.6207
  RMM-DIIS:  cpu time   35.9869: real time   36.0925
    ORTHCH:  cpu time    1.2033: real time    1.2066
 BZINTS: Fermi energy:  1.531021;866.000000 electrons
         Band energy:***********;  BLOECHL correction: -0.419023
       DOS:  cpu time    0.0192: real time    0.0194
    CHARGE:  cpu time    3.0325: real time    3.0414
    MIXING:  cpu time    0.0117: real time    0.0118
    --------------------------------------------
      LOOP:  cpu time   49.3327: real time   49.4771

 eigenvalue-minimisations  :  9112
 total energy-change (2. order) :-0.1761162E+02  (-0.1225012E+01)
 number of electron     866.0000486 magnetization      28.9826435
 augmentation part      501.4212173 magnetization      16.3392889

 Broyden mixing:
  rms(total) = 0.16925E+01    rms(broyden)= 0.16925E+01
  rms(prec ) = 0.20875E+01
  weight for this iteration     100.00

 eigenvalues of (default mixing * dielectric matrix)
  average eigenvalue GAMMA=   0.8213
  2.2057  1.4664  0.6853  0.6853  0.6214  0.1812  0.4213  0.3038

 Free energy of the ion-electron system (eV)
  ---------------------------------------------------
  alpha Z        PSCENC =      2356.26949328
  Ewald energy   TEWEN  =    310042.46002557
  -Hartree energ DENC   =   -408735.19312958
  -exchange      EXHF   =         0.00000000
  -V(xc)+E(xc)   XCENC  =      2926.61807758
  PAW double counting   =     98687.45604955  -105188.83649794
  entropy T*S    EENTRO =         0.00000000
  eigenvalues    EBANDS =     -1104.18524910
  atomic energy  EATOM  =    100713.36531073
  Solvation  Ediel_sol  =         0.00000000
  ---------------------------------------------------
  free energy    TOTEN  =      -302.04591992 eV

  energy without entropy =     -302.04591992  energy(sigma->0) =     -302.04591992


--------------------------------------------------------------------------------------------------------




--------------------------------------- Iteration      1(  14)  ---------------------------------------


    POTLOK:  cpu time    0.4324: real time    0.4334
    SETDIJ:  cpu time    0.0317: real time    0.0318
    EDDIAG:  cpu time    8.6149: real time    8.6403
  RMM-DIIS:  cpu time   35.6575: real time   35.7620
    ORTHCH:  cpu time    1.1969: real time    1.2003
 BZINTS: Fermi energy:  1.666627;866.000000 electrons
         Band energy:***********;  BLOECHL correction: -0.159085
       DOS:  cpu time    0.0190: real time    0.0190
    CHARGE:  cpu time    3.0282: real time    3.0371
    MIXING:  cpu time    0.0124: real time    0.0125
    --------------------------------------------
      LOOP:  cpu time   48.9930: real time   49.1364

 eigenvalue-minimisations  :  9042
 total energy-change (2. order) :-0.4356322E+01  (-0.3929078E+00)
 number of electron     866.0000485 magnetization      20.3594158
 augmentation part      500.3840526 magnetization      11.0754177

 Broyden mixing:
  rms(total) = 0.10490E+01    rms(broyden)= 0.10490E+01
  rms(prec ) = 0.11376E+01
  weight for this iteration     100.00

 eigenvalues of (default mixing * dielectric matrix)
  average eigenvalue GAMMA=   0.9003
  3.1974  1.3026  0.8499  0.6814  0.6814  0.1812  0.5218  0.3052  0.3819

 Free energy of the ion-electron system (eV)
  ---------------------------------------------------
  alpha Z        PSCENC =      2356.26949328
  Ewald energy   TEWEN  =    310042.46002557
  -Hartree energ DENC   =   -408759.93208418
  -exchange      EXHF   =         0.00000000
  -V(xc)+E(xc)   XCENC  =      2923.81834636
  PAW double counting   =     98943.76820264  -105451.07727953
  entropy T*S    EENTRO =         0.00000000
  eigenvalues    EBANDS =     -1075.07425643
  atomic energy  EATOM  =    100713.36531073
  Solvation  Ediel_sol  =         0.00000000
  ---------------------------------------------------
  free energy    TOTEN  =      -306.40224157 eV

  energy without entropy =     -306.40224157  energy(sigma->0) =     -306.40224157


--------------------------------------------------------------------------------------------------------




--------------------------------------- Iteration      1(  15)  ---------------------------------------


    POTLOK:  cpu time    0.4330: real time    0.4341
    SETDIJ:  cpu time    0.0317: real time    0.0317
    EDDIAG:  cpu time    8.5887: real time    8.6139
  RMM-DIIS:  cpu time   35.7567: real time   35.8617
    ORTHCH:  cpu time    1.1971: real time    1.2005
 BZINTS: Fermi energy:  1.697142;866.000000 electrons
         Band energy:***********;  BLOECHL correction: -0.189823
       DOS:  cpu time    0.0190: real time    0.0191
    CHARGE:  cpu time    3.0753: real time    3.0842
    MIXING:  cpu time    0.0143: real time    0.0144
    --------------------------------------------
      LOOP:  cpu time   49.1159: real time   49.2596

 eigenvalue-minimisations  :  9030
 total energy-change (2. order) :-0.7151646E+01  (-0.4631261E+00)
 number of electron     866.0000486 magnetization      12.9126866
 augmentation part      499.8848031 magnetization       6.1513165

 Broyden mixing:
  rms(total) = 0.85538E+00    rms(broyden)= 0.85537E+00
  rms(prec ) = 0.95452E+00
  weight for this iteration     100.00

 eigenvalues of (default mixing * dielectric matrix)
  average eigenvalue GAMMA=   1.0052
  4.5177  1.3365  0.7114  0.7114  0.8896  0.6620  0.1812  0.4206  0.3110  0.3110

 Free energy of the ion-electron system (eV)
  ---------------------------------------------------
  alpha Z        PSCENC =      2356.26949328
  Ewald energy   TEWEN  =    310042.46002557
  -Hartree energ DENC   =   -408809.83424318
  -exchange      EXHF   =         0.00000000
  -V(xc)+E(xc)   XCENC  =      2920.00180226
  PAW double counting   =     99076.70515939  -105592.90354379
[...]
     10.245400  3.375264  6.919623            0           0           0  
     10.247721  3.368782  0.987752            0           0           0  
     10.240290  0.325174  4.951274            0           0           0  
      8.922812  7.189178  4.946667            0           0           0  
     10.245947  4.897396  4.946556            0           0           0  
      6.281886  7.186201  4.948918            0           0           0  
      4.963044  0.325436  4.950668            0           0           0  
      4.963870  6.419733  2.976344            0           0           0  
      7.601993  0.327134  4.950366            0           0           0  
      8.920143  1.092741  6.923729            0           0           0  
     10.239588  7.949525  6.922850            0           0           0  
      8.928128  1.082181  0.988024            0           0           0  
     10.247734  7.941044  0.987266            0           0           0  
      4.960339  4.898517  4.949034            0           0           0  
     11.561924  2.611174  4.949853            0           0           0  
     14.203863  8.706121  2.976268            0           0           0  
      8.922749  2.611784  4.948943            0           0           0  
      6.280995  2.611131  4.948996            0           0           0  
     14.198600  8.716573  9.101790            0           0           0  
      3.637940  4.144001  9.100911            0           0           0  
      6.278312  8.715737  9.102241            0           0           0  
     11.557151  4.144714  9.103613            0           0           0  
      8.918570  8.715080  9.103476            0           0           0  
     10.237438  1.857520  9.102432            0           0           0  
      2.316906  1.856898  9.101660            0           0           0  
     11.557401  8.716421  9.101450            0           0           0  
     12.877647  6.429424  9.101552            0           0           0  
      4.958281  1.857188  9.100895            0           0           0  
      7.597839  6.429715  9.085316            0           0           0  
      8.918036  4.143106  9.084994            0           0           0  
      4.958400  6.428833  9.104720            0           0           0  
      7.597047  1.858141  9.104810            0           0           0  
      6.278088  4.143666  9.099043            0           0           0  
     10.237844  6.429741  9.099097            0           0           0  
      7.938634  5.079902 12.070428     0.351140   -0.599412   -0.165451  
      8.597273  5.443371 12.074840    -0.312653    0.598238    0.185449  
 
   5 f/i=    1.324757 THz     8.323691 2PiTHz   44.189121 cm-1     5.478755 meV
             X         Y         Z           dx          dy          dz
     12.880356  7.949211  6.921781            0           0           0  
      4.962424  7.947853  6.923782            0           0           0  
      3.641448  5.664243  6.923592            0           0           0  
     12.887720  7.941333  0.987864            0           0           0  
      4.968284  7.940902  0.987883            0           0           0  
      3.648115  5.654910  0.987889            0           0           0  
      7.603449  1.847659  2.976120            0           0           0  
      8.923598  8.706422  2.976146            0           0           0  
      2.320633  3.378229  6.922481            0           0           0  
      2.328399  3.368554  0.987894            0           0           0  
     10.243665  1.847492  2.976312            0           0           0  
     12.881876  4.900028  4.950675            0           0           0  
      3.641938  1.089818  6.922468            0           0           0  
      8.923699  5.664829  6.911075            0           0           0  
      4.960964  3.377042  6.921706            0           0           0  
      3.647896  1.082252  0.987910            0           0           0  
      8.928362  5.654909  0.987490            0           0           0  
      4.968684  3.368453  0.987734            0           0           0  
     11.563289  8.706198  2.976004            0           0           0  
     11.562025  7.185083  4.950546            0           0           0  
     12.883675  6.419743  2.976164            0           0           0  
      8.923477  4.133841  2.976139            0           0           0  
      7.601765  7.954306  6.919440            0           0           0  
      7.608531  7.941230  0.987539            0           0           0  
     10.243612  6.420120  2.976148            0           0           0  
      2.320890  0.326994  4.949657            0           0           0  
      7.598187  3.374731  6.918028            0           0           0  
      7.608220  3.368816  0.987541            0           0           0  
      6.282021  1.090684  6.923513            0           0           0  
      6.288209  1.082052  0.987641            0           0           0  
     11.563944  4.133428  2.976108            0           0           0  
      3.643879  4.133784  2.976377            0           0           0  
      0.999640  1.089909  6.922863            0           0           0  
      1.007995  1.082290  0.987966            0           0           0  
      6.283781  8.706163  2.976135            0           0           0  
      7.600231  4.897770  4.947607            0           0           0  
      4.963537  1.847473  2.976285            0           0           0  
      2.323737  1.847712  2.976412            0           0           0  
     14.202877  7.184628  4.950473            0           0           0  
     11.560258  5.662064  6.923046            0           0           0  
      6.277742  5.662057  6.917968            0           0           0  
     11.567787  5.654966  0.987763            0           0           0  
      6.288344  5.654902  0.987657            0           0           0  
      7.603883  6.420029  2.976043            0           0           0  
      6.283603  4.133811  2.976267            0           0           0  
      3.641995  2.612413  4.951485            0           0           0  
     10.245400  3.375264  6.919623            0           0           0  
     10.247721  3.368782  0.987752            0           0           0  
     10.240290  0.325174  4.951274            0           0           0  
      8.922812  7.189178  4.946667            0           0           0  
     10.245947  4.897396  4.946556            0           0           0  
      6.281886  7.186201  4.948918            0           0           0  
      4.963044  0.325436  4.950668            0           0           0  
      4.963870  6.419733  2.976344            0           0           0  
      7.601993  0.327134  4.950366            0           0           0  
      8.920143  1.092741  6.923729            0           0           0  
     10.239588  7.949525  6.922850            0           0           0  
      8.928128  1.082181  0.988024            0           0           0  
     10.247734  7.941044  0.987266            0           0           0  
      4.960339  4.898517  4.949034            0           0           0  
     11.561924  2.611174  4.949853            0           0           0  
     14.203863  8.706121  2.976268            0           0           0  
      8.922749  2.611784  4.948943            0           0           0  
      6.280995  2.611131  4.948996            0           0           0  
     14.198600  8.716573  9.101790            0           0           0  
      3.637940  4.144001  9.100911            0           0           0  
      6.278312  8.715737  9.102241            0           0           0  
     11.557151  4.144714  9.103613            0           0           0  
      8.918570  8.715080  9.103476            0           0           0  
     10.237438  1.857520  9.102432            0           0           0  
      2.316906  1.856898  9.101660            0           0           0  
     11.557401  8.716421  9.101450            0           0           0  
     12.877647  6.429424  9.101552            0           0           0  
      4.958281  1.857188  9.100895            0           0           0  
      7.597839  6.429715  9.085316            0           0           0  
      8.918036  4.143106  9.084994            0           0           0  
      4.958400  6.428833  9.104720            0           0           0  
      7.597047  1.858141  9.104810            0           0           0  
      6.278088  4.143666  9.099043            0           0           0  
     10.237844  6.429741  9.099097            0           0           0  
      7.938634  5.079902 12.070428     0.396281   -0.590822    0.091346  
      8.597273  5.443371 12.074840     0.388050   -0.574310   -0.071627  
 
   6 f/i=    3.538845 THz    22.235220 2PiTHz  118.043165 cm-1    14.635492 meV
             X         Y         Z           dx          dy          dz
     12.880356  7.949211  6.921781            0           0           0  
      4.962424  7.947853  6.923782            0           0           0  
      3.641448  5.664243  6.923592            0           0           0  
     12.887720  7.941333  0.987864            0           0           0  
      4.968284  7.940902  0.987883            0           0           0  
      3.648115  5.654910  0.987889            0           0           0  
      7.603449  1.847659  2.976120            0           0           0  
      8.923598  8.706422  2.976146            0           0           0  
      2.320633  3.378229  6.922481            0           0           0  
      2.328399  3.368554  0.987894            0           0           0  
     10.243665  1.847492  2.976312            0           0           0  
     12.881876  4.900028  4.950675            0           0           0  
      3.641938  1.089818  6.922468            0           0           0  
      8.923699  5.664829  6.911075            0           0           0  
      4.960964  3.377042  6.921706            0           0           0  
      3.647896  1.082252  0.987910            0           0           0  
      8.928362  5.654909  0.987490            0           0           0  
      4.968684  3.368453  0.987734            0           0           0  
     11.563289  8.706198  2.976004            0           0           0  
     11.562025  7.185083  4.950546            0           0           0  
     12.883675  6.419743  2.976164            0           0           0  
      8.923477  4.133841  2.976139            0           0           0  
      7.601765  7.954306  6.919440            0           0           0  
      7.608531  7.941230  0.987539            0           0           0  
     10.243612  6.420120  2.976148            0           0           0  
      2.320890  0.326994  4.949657            0           0           0  
      7.598187  3.374731  6.918028            0           0           0  
      7.608220  3.368816  0.987541            0           0           0  
      6.282021  1.090684  6.923513            0           0           0  
      6.288209  1.082052  0.987641            0           0           0  
     11.563944  4.133428  2.976108            0           0           0  
      3.643879  4.133784  2.976377            0           0           0  
      0.999640  1.089909  6.922863            0           0           0  
      1.007995  1.082290  0.987966            0           0           0  
      6.283781  8.706163  2.976135            0           0           0  
      7.600231  4.897770  4.947607            0           0           0  
      4.963537  1.847473  2.976285            0           0           0  
      2.323737  1.847712  2.976412            0           0           0  
     14.202877  7.184628  4.950473            0           0           0  
     11.560258  5.662064  6.923046            0           0           0  
      6.277742  5.662057  6.917968            0           0           0  
     11.567787  5.654966  0.987763            0           0           0  
      6.288344  5.654902  0.987657            0           0           0  
      7.603883  6.420029  2.976043            0           0           0  
      6.283603  4.133811  2.976267            0           0           0  
      3.641995  2.612413  4.951485            0           0           0  
     10.245400  3.375264  6.919623            0           0           0  
     10.247721  3.368782  0.987752            0           0           0  
     10.240290  0.325174  4.951274            0           0           0  
      8.922812  7.189178  4.946667            0           0           0  
     10.245947  4.897396  4.946556            0           0           0  
      6.281886  7.186201  4.948918            0           0           0  
      4.963044  0.325436  4.950668            0           0           0  
      4.963870  6.419733  2.976344            0           0           0  
      7.601993  0.327134  4.950366            0           0           0  
      8.920143  1.092741  6.923729            0           0           0  
     10.239588  7.949525  6.922850            0           0           0  
      8.928128  1.082181  0.988024            0           0           0  
     10.247734  7.941044  0.987266            0           0           0  
      4.960339  4.898517  4.949034            0           0           0  
     11.561924  2.611174  4.949853            0           0           0  
     14.203863  8.706121  2.976268            0           0           0  
      8.922749  2.611784  4.948943            0           0           0  
      6.280995  2.611131  4.948996            0           0           0  
     14.198600  8.716573  9.101790            0           0           0  
      3.637940  4.144001  9.100911            0           0           0  
      6.278312  8.715737  9.102241            0           0           0  
     11.557151  4.144714  9.103613            0           0           0  
      8.918570  8.715080  9.103476            0           0           0  
     10.237438  1.857520  9.102432            0           0           0  
      2.316906  1.856898  9.101660            0           0           0  
     11.557401  8.716421  9.101450            0           0           0  
     12.877647  6.429424  9.101552            0           0           0  
      4.958281  1.857188  9.100895            0           0           0  
      7.597839  6.429715  9.085316            0           0           0  
      8.918036  4.143106  9.084994            0           0           0  
      4.958400  6.428833  9.104720            0           0           0  
      7.597047  1.858141  9.104810            0           0           0  
      6.278088  4.143666  9.099043            0           0           0  
     10.237844  6.429741  9.099097            0           0           0  
      7.938634  5.079902 12.070428    -0.081854    0.055598   -0.679010  
      8.597273  5.443371 12.074840     0.079129   -0.252709    0.677519  
 
 Finite differences POTIM=  1.500000000000000E-002
  LATTYP: Found a hexagonal cell.
 ALAT       =    10.5600004196
 C/A-ratio  =     2.0833332505
  
  Lattice vectors:
  
 A1 = (   5.2800002098,  -9.1452286274,   0.0000000000)
 A2 = ( -10.5600004196,   0.0000000000,   0.0000000000)
 A3 = (   0.0000000000,   0.0000000000, -22.0000000000)


Analysis of symmetry for initial positions (statically):
=====================================================================
 Subroutine PRICEL returns:
 Original cell was already a primitive cell.
 

 Routine SETGRP: Setting up the symmetry group for a 
 hexagonal supercell.


 Subroutine GETGRP returns: Found  1 space group operations
 (whereof  1 operations were pure point group operations)
 out of a pool of 24 trial point group operations.


The static configuration has the point symmetry C_1 .


Analysis of symmetry for dynamics (positions and initial velocities):
=====================================================================
 Subroutine PRICEL returns:
 Original cell was already a primitive cell.
 

 Routine SETGRP: Setting up the symmetry group for a 
 hexagonal supercell.


 Subroutine GETGRP returns: Found  1 space group operations
 (whereof  1 operations were pure point group operations)
 out of a pool of 24 trial point group operations.


The dynamic configuration has the point symmetry C_1 .


Analysis of constrained symmetry for selective dynamics:
=====================================================================
 Subroutine PRICEL returns:
 Original cell was already a primitive cell.
 

 Routine SETGRP: Setting up the symmetry group for a 
 hexagonal supercell.


 Subroutine GETGRP returns: Found  1 space group operations
 (whereof  1 operations were pure point group operations)
 out of a pool of 24 trial point group operations.


The constrained configuration has the point symmetry C_1 .


Analysis of structural, dynamic, and magnetic symmetry:
=====================================================================
 Subroutine PRICEL returns:
 Original cell was already a primitive cell.
 

 Routine SETGRP: Setting up the symmetry group for a 
 hexagonal supercell.


 Subroutine GETGRP returns: Found  1 space group operations
 (whereof  1 operations were pure point group operations)
 out of a pool of 24 trial point group operations.


The magnetic configuration has the point symmetry C_1 .


 Subroutine INISYM returns: Found  1 space group operations
 (whereof  1 operations are pure point group operations),
 and found     1 'primitive' translations

 
 KPOINTS: mesh auto                               

Automatic generation of k-mesh.
Space group operators:
 irot       det(A)        alpha          n_x          n_y          n_z        tau_x        tau_y        tau_z
    1     1.000000     0.000001     1.000000     0.000000     0.000000     0.000000     0.000000     0.000000
 
 Subroutine IBZKPT returns following result:
 ===========================================
 
 Found      4 irreducible k-points:
 
 Following reciprocal coordinates:
            Coordinates               Weight
  0.000000  0.000000  0.000000      1.000000
  0.500000  0.000000  0.000000      1.000000
  0.000000  0.500000  0.000000      1.000000
  0.500000  0.500000  0.000000      1.000000
 
 Following cartesian coordinates:
            Coordinates               Weight
  0.000000  0.000000  0.000000      1.000000
  0.047348 -0.027337  0.000000      1.000000
  0.000000  0.054673  0.000000      1.000000
  0.047348  0.027337  0.000000      1.000000
 
 TETIRR: Found     12 inequivalent tetrahedra from       24
     LOOP+:  cpu time  482.7248: real time  483.9205
    4ORBIT:  cpu time    0.0000: real time    0.0000
 BZINTS: Fermi energy:  1.194445;866.000000 electrons
         Band energy:***********;  BLOECHL correction: -0.009618

 total amount of memory used by VASP MPI-rank0   387428. kBytes
=======================================================================

   base      :      30000. kBytes
   nonlr-proj:     106610. kBytes
   fftplans  :      13995. kBytes
   grid      :     120016. kBytes
   one-center:       2550. kBytes
   wavefun   :     114257. kBytes
 
  
  
 General timing and accounting informations for this job:
 ========================================================
  
                  Total CPU time used (sec):    11044.429
                            User time (sec):    11019.759
                          System time (sec):       24.670
                         Elapsed time (sec):    11075.589
  
                   Maximum memory used (kb):     1196944.
                   Average memory used (kb):           0.
  
                          Minor page faults:      4036218
                          Major page faults:            0
                 Voluntary context switches:         6761
