 vasp.5.4.4.18Apr17-6-g9f103f2a35 (build Nov 30 2020 22:55:02) complex          
  
 executed on             LinuxIFC date 2023.10.01  09:43:27
 running on   40 total cores
 distrk:  each k-point on   40 cores,    1 groups
 distr:  one band on NCORES_PER_BAND=   4 cores,   10 groups


--------------------------------------------------------------------------------------------------------


 INCAR:
 POTCAR:    PAW_PBE Pt 04Feb2005                  
 POTCAR:    PAW_PBE Pt 04Feb2005                  
   VRHFIN =Pt: s1d9                                                             
   LEXCH  = PE                                                                  
   EATOM  =   729.1176 eV,   53.5886 Ry                                         
                                                                                
   TITEL  = PAW_PBE Pt 04Feb2005                                                
   LULTRA =        F    use ultrasoft PP ?                                      
   IUNSCR =        1    unscreen: 0-lin 1-nonlin 2-no                           
   RPACOR =    2.330    partial core radius                                     
   POMASS =  195.080; ZVAL   =   10.000    mass and valenz                      
   RCORE  =    2.600    outmost cutoff radius                                   
   RWIGS  =    2.750; RWIGS  =    1.455    wigner-seitz radius (au A)           
   ENMAX  =  230.283; ENMIN  =  172.712 eV                                      
   ICORE  =        3    local potential                                         
   LCOR   =        T    correct aug charges                                     
   LPAW   =        T    paw PP                                                  
   EAUG   =  358.966                                                            
   DEXC   =    0.000                                                            
   RMAX   =    2.658    core radius for proj-oper                               
   RAUG   =    1.300    factor for augmentation sphere                          
   RDEP   =    2.761    radius for radial grids                                 
   RDEPT  =    2.203    core radius for aug-charge                              
                                                                                
   Atomic configuration                                                         
   16 entries                                                                   
     n  l   j            E        occ.                                          
     1  0  0.50    -78401.1885   2.0000                                         
     2  0  0.50    -13770.7750   2.0000                                         
     2  1  1.50    -11931.0468   6.0000                                         
     3  0  0.50     -3234.7234   2.0000                                         
     3  1  1.50     -2699.2216   6.0000                                         
     3  2  2.50     -2119.5714  10.0000                                         
     4  0  0.50      -695.1528   2.0000                                         
     4  1  1.50      -519.6034   6.0000                                         
     4  2  2.50      -306.6786  10.0000                                         
     4  3  3.50       -70.1041  14.0000                                         
     5  0  0.50      -101.7747   2.0000                                         
     5  1  1.50       -55.9873   6.0000                                         
     5  2  2.50        -6.1423   9.0000                                         
     6  0  0.50        -5.6573   1.0000                                         
     6  1  1.50        -6.8029   0.0000                                         
     5  3  2.50        -1.3606   0.0000                                         
   Description                                                                  
     l       E           TYP  RCUT    TYP  RCUT                                 
     2     -6.1423404     23  2.500                                             
     2     -7.5029230     23  2.500                                             
     0     -5.6573207     23  2.500                                             
     0      0.7416693     23  2.500                                             
     1     -2.7211652     23  2.600                                             
     1     20.4087390     23  2.600                                             
     3     -1.3605826     23  2.500                                             
  local pseudopotential read in
  partial core-charges read in
  partial kinetic energy density read in
  atomic valenz-charges read in
  non local Contribution for L=           2  read in
    real space projection operators read in
  non local Contribution for L=           2  read in
    real space projection operators read in
  non local Contribution for L=           0  read in
    real space projection operators read in
  non local Contribution for L=           0  read in
    real space projection operators read in
  non local Contribution for L=           1  read in
    real space projection operators read in
  non local Contribution for L=           1  read in
    real space projection operators read in
    PAW grid and wavefunctions read in
 
   number of l-projection  operators is LMAX  =           6
   number of lm-projection operators is LMMAX =          18
 
 Optimization of the real space projectors (new method)

 maximal supplied QI-value         = 14.36
 optimisation between [QCUT,QGAM] = [ 11.92, 23.98] = [ 39.79,161.09] Ry 
 Optimized for a Real-space Cutoff    1.49 Angstroem

   l    n(q)    QCUT    max X(q) W(low)/X(q) W(high)/X(q)  e(spline) 
   2     10    11.920    66.195    0.79E-04    0.18E-03    0.24E-06
   2     10    11.920    64.643    0.81E-04    0.19E-03    0.24E-06
   0     11    11.920    95.520    0.28E-04    0.54E-04    0.18E-06
   0     11    11.920    63.403    0.27E-04    0.52E-04    0.17E-06
   1     10    11.920    19.961    0.18E-04    0.11E-03    0.23E-06
   1     10    11.920    13.289    0.25E-04    0.87E-04    0.19E-06
  PAW_PBE Pt 04Feb2005                  :
 energy of atom  1       EATOM= -729.1176
 kinetic energy error for atom=    0.0021 (will be added to EATOM!!)
 
 
 POSCAR: Pt111\(1\1\1)\(2)                       
  positions in direct lattice
  velocities in cartesian coordinates
 exchange correlation table for  LEXCH =        8
   RHO(1)=    0.500       N(1)  =     2000
   RHO(2)=  100.500       N(2)  =     4000
 


--------------------------------------------------------------------------------------------------------


 ion  position               nearest neighbor table
   1  1.000  0.000  0.056-   5 2.64   9 2.64  13 2.64  29 2.64  57 2.64  37 2.64  54 2.87  42 2.87
                            14 2.88
   2  0.333  0.167  0.178-  14 2.63   6 2.64  42 2.64  26 2.64  38 2.64  30 2.64  11 2.83   7 2.85
                             9 2.87  13 2.88  21 2.88  15 2.88
   3  0.168  0.334  0.300-  43 2.63  15 2.63   7 2.63  39 2.63  27 2.65  31 2.65   8 2.79   6 2.82
                            10 2.88  14 2.88  48 2.96  12 2.97
   4  0.000  0.000  0.419-  12 2.62  60 2.64  32 2.64  40 2.64  16 2.64   8 2.64   7 2.85  63 2.88
                            27 2.88
   5  1.000  0.250  0.056-   1 2.64  45 2.64  33 2.64   9 2.64  29 2.64  25 2.64  18 2.87  10 2.88
                            14 2.88
   6  0.333  0.417  0.181-  14 2.64   2 2.64  62 2.64  26 2.64  34 2.64  10 2.64   3 2.82  15 2.82
                            43 2.83  49 2.92  45 2.92   9 2.92
   7  0.167  0.085  0.299-   3 2.63  15 2.63  11 2.64  27 2.64  35 2.65  63 2.65   4 2.85  16 2.85
                             2 2.85  14 2.85  42 2.87  12 2.96
   8  0.999  0.250  0.416-  28 2.63  32 2.63  36 2.64   4 2.64  48 2.66  12 2.66   3 2.79  31 2.83
                            27 2.83
   9  0.250  0.250  0.056-  21 2.64  13 2.64   1 2.64  49 2.64  45 2.64   5 2.64  14 2.87   2 2.87
                             6 2.92
  10  0.084  0.417  0.178-  34 2.63   6 2.64  46 2.64  14 2.64  22 2.64  18 2.64  31 2.83  39 2.86
                            45 2.87  33 2.87   5 2.88   3 2.88
  11  0.417  0.083  0.297-  47 2.63  35 2.64   7 2.64  23 2.64  19 2.65  15 2.65   2 2.83  30 2.83
                            38 2.83  24 2.83  16 2.88  20 2.90
  12  0.249  0.247  0.427-   4 2.62  16 2.62  24 2.66   8 2.66  52 2.68  48 2.68   7 2.96  15 2.97
                             3 2.97
  13  0.250  0.000  0.056-  21 2.64   9 2.64  17 2.64   1 2.64  37 2.64  41 2.64  38 2.87  42 2.87
                             2 2.88
  14  0.084  0.167  0.178-   2 2.63   6 2.64  42 2.64  10 2.64  54 2.64  18 2.64  27 2.83   7 2.85
                             9 2.87   1 2.88   5 2.88   3 2.88
  15  0.416  0.334  0.300-  43 2.63   3 2.63   7 2.63  55 2.63  11 2.65  19 2.65  24 2.79   6 2.82
                            26 2.88   2 2.88  52 2.96  12 2.97
  16  0.250  0.000  0.419-  12 2.62  44 2.64  20 2.64  40 2.64   4 2.64  24 2.64   7 2.85  35 2.88
                            11 2.88
  17  0.500  0.000  0.056-  29 2.64  25 2.64  13 2.64  21 2.64  41 2.64  53 2.64  38 2.87  58 2.87
                            30 2.87
  18  0.833  0.167  0.178-  58 2.64  30 2.64  22 2.64  54 2.64  10 2.64  14 2.64  27 2.83  31 2.83
                            23 2.86  25 2.87   5 2.87  29 2.87
  19  0.667  0.334  0.297-  31 2.63  59 2.64  55 2.64  23 2.64  11 2.65  15 2.65  26 2.83  30 2.83
                            22 2.83  24 2.83  64 2.88  28 2.90
  20  0.500  0.000  0.420-  56 2.63  24 2.63  44 2.64  16 2.64  32 2.64  28 2.64  23 2.87  11 2.90
                            47 2.90
  21  0.500  0.250  0.056-  25 2.64  61 2.64   9 2.64  13 2.64  49 2.64  17 2.64  30 2.87  26 2.88
                             2 2.88
  22  0.833  0.417  0.177-  50 2.64  18 2.64  46 2.64  30 2.64  26 2.64  10 2.64  19 2.83  31 2.83
                            59 2.84  61 2.87  33 2.87  25 2.87
  23  0.667  0.083  0.298-  11 2.64  27 2.64  47 2.64  51 2.64  31 2.64  19 2.64  18 2.86  30 2.86
                            58 2.86  32 2.87  20 2.87  28 2.88
  24  0.501  0.250  0.416-  28 2.63  20 2.63  64 2.64  16 2.64  52 2.66  12 2.66  15 2.79  19 2.83
                            11 2.83
  25  0.750  0.250  0.056-  17 2.64  21 2.64  29 2.64  61 2.64  33 2.64   5 2.64  22 2.87  18 2.87
                            30 2.87
  26  0.583  0.417  0.178-  62 2.63   6 2.64  50 2.64   2 2.64  22 2.64  30 2.64  19 2.83  55 2.86
                            49 2.87  61 2.87  21 2.88  15 2.88
  27  0.917  0.083  0.297-  51 2.63  63 2.64  23 2.64   7 2.64  31 2.65   3 2.65  14 2.83  18 2.83
                            54 2.83   8 2.83   4 2.88  32 2.90
  28  0.750  0.250  0.420-   8 2.63  24 2.63  64 2.64  36 2.64  20 2.64  32 2.64  23 2.88  31 2.90
                            19 2.90
  29  0.750  0.000  0.056-  17 2.64  25 2.64   5 2.64  53 2.64   1 2.64  57 2.64  54 2.87  58 2.87
                            18 2.87
  30  0.583  0.167  0.178-  58 2.64  18 2.64  22 2.64  38 2.64  26 2.64   2 2.64  11 2.83  19 2.83
                            23 2.86  25 2.87  21 2.87  17 2.87
  31  0.917  0.334  0.297-  19 2.63  59 2.64  39 2.64  23 2.64  27 2.65   3 2.65  10 2.83  18 2.83
                            22 2.83   8 2.83  36 2.88  28 2.90
  32  0.750  0.000  0.420-  56 2.63   8 2.63  60 2.64   4 2.64  20 2.64  28 2.64  23 2.87  27 2.90
                            51 2.90
  33  1.000  0.500  0.056-  37 2.64  41 2.64   5 2.64  45 2.64  25 2.64  61 2.64  46 2.87  22 2.87
                            10 2.87
  34  0.333  0.666  0.178-  10 2.63   6 2.64  46 2.64  62 2.64  38 2.64  58 2.64  47 2.83  39 2.85
                            45 2.87  41 2.88  53 2.88  43 2.88
  35  0.167  0.833  0.297-  11 2.64  47 2.64  59 2.64  63 2.64  39 2.65   7 2.65  42 2.84  38 2.84
                            46 2.84  40 2.85  44 2.87  16 2.88
  36  0.000  0.500  0.419-  48 2.62  64 2.64  40 2.64  28 2.64  44 2.64   8 2.64  39 2.85  59 2.87
                            31 2.88
  37  1.000  0.750  0.056-  33 2.64  41 2.64  61 2.64  57 2.64  13 2.64   1 2.64  50 2.87  46 2.87
                            42 2.87
  38  0.333  0.917  0.177-  42 2.64  46 2.64  30 2.64  58 2.64   2 2.64  34 2.64  47 2.83  11 2.83
                            35 2.84  13 2.87  17 2.87  41 2.87
  39  0.167  0.583  0.299-  43 2.63   3 2.63  47 2.64  31 2.64  35 2.65  59 2.65  34 2.85  36 2.85
                            44 2.86  10 2.86  46 2.87  48 2.96
  40  0.000  0.750  0.418-  36 2.64  64 2.64  44 2.64  60 2.64   4 2.64  16 2.64  35 2.85  63 2.85
                            59 2.85
  41  0.250  0.750  0.056-  45 2.64  33 2.64  37 2.64  53 2.64  17 2.64  13 2.64  46 2.87  38 2.87
                            34 2.88
  42  0.083  0.917  0.177-   2 2.64  14 2.64  38 2.64  54 2.64  46 2.64  50 2.64  63 2.84  35 2.84
                            13 2.87   1 2.87  37 2.87   7 2.87
  43  0.416  0.583  0.300-   3 2.63  15 2.63  55 2.63  39 2.63  51 2.65  47 2.65  56 2.79   6 2.83
                            62 2.88  34 2.88  48 2.96  52 2.96
  44  0.250  0.750  0.419-  48 2.62  16 2.64  20 2.64  40 2.64  36 2.64  56 2.64  39 2.86  35 2.87
                            47 2.88
  45  0.250  0.500  0.056-  41 2.64  53 2.64   5 2.64   9 2.64  49 2.64  33 2.64  10 2.87  34 2.87
                             6 2.92
  46  0.083  0.667  0.177-  10 2.64  34 2.64  38 2.64  22 2.64  42 2.64  50 2.64  59 2.84  35 2.84
                            41 2.87  33 2.87  37 2.87  39 2.87
  47  0.417  0.834  0.297-  11 2.63  35 2.64  39 2.64  23 2.64  51 2.65  43 2.65  58 2.83  34 2.83
                            38 2.83  56 2.83  44 2.88  20 2.90
  48  0.249  0.502  0.426-  44 2.62  36 2.62  56 2.65   8 2.66  12 2.68  52 2.68  39 2.96  43 2.96
                             3 2.96
  49  0.500  0.500  0.056-  61 2.64  53 2.64  57 2.64  21 2.64   9 2.64  45 2.64  26 2.87  62 2.87
                             6 2.92
  50  0.833  0.667  0.177-  62 2.64  26 2.64  54 2.64  22 2.64  42 2.64  46 2.64  59 2.84  63 2.84
                            57 2.87  61 2.87  37 2.87  55 2.87
  51  0.667  0.834  0.297-  27 2.63  63 2.64  55 2.64  23 2.64  47 2.65  43 2.65  58 2.83  62 2.83
                            54 2.83  56 2.83  60 2.88  32 2.90
  52  0.503  0.502  0.426-  60 2.62  64 2.62  56 2.65  24 2.66  12 2.68  48 2.68  55 2.96  43 2.96
                            15 2.96
  53  0.500  0.750  0.056-  49 2.64  57 2.64  45 2.64  41 2.64  29 2.64  17 2.64  58 2.87  34 2.88
                            62 2.88
  54  0.833  0.917  0.177-  42 2.64  50 2.64  58 2.64  18 2.64  62 2.64  14 2.64  51 2.83  27 2.83
                            63 2.84   1 2.87  29 2.87  57 2.87
  55  0.665  0.583  0.299-  43 2.63  15 2.63  19 2.64  51 2.64  59 2.65  63 2.65  62 2.85  64 2.85
                            60 2.86  26 2.86  50 2.87  52 2.96
  56  0.501  0.751  0.416-  20 2.63  32 2.63  44 2.64  60 2.64  48 2.65  52 2.65  43 2.79  47 2.83
                            51 2.83
  57  0.750  0.750  0.056-  61 2.64  49 2.64  53 2.64  37 2.64   1 2.64  29 2.64  50 2.87  54 2.87
                            62 2.88
  58  0.583  0.917  0.178-  18 2.64  30 2.64  38 2.64  54 2.64  34 2.64  62 2.64  47 2.83  51 2.83
                            23 2.86  17 2.87  29 2.87  53 2.87
  59  0.917  0.584  0.297-  31 2.64  19 2.64  63 2.64  35 2.64  55 2.65  39 2.65  46 2.84  50 2.84
                            22 2.84  40 2.85  36 2.87  64 2.87
  60  0.750  0.750  0.419-  52 2.62   4 2.64  32 2.64  40 2.64  64 2.64  56 2.64  55 2.86  63 2.87
                            51 2.88
  61  0.750  0.500  0.056-  49 2.64  57 2.64  21 2.64  25 2.64  37 2.64  33 2.64  50 2.87  22 2.87
                            26 2.87
  62  0.583  0.666  0.178-  26 2.63   6 2.64  50 2.64  34 2.64  54 2.64  58 2.64  51 2.83  55 2.85
                            49 2.87  57 2.88  53 2.88  43 2.88
  63  0.917  0.833  0.297-  27 2.64  51 2.64  59 2.64  35 2.64  55 2.65   7 2.65  42 2.84  54 2.84
                            50 2.84  40 2.85  60 2.87   4 2.88
  64  0.750  0.500  0.419-  52 2.62  36 2.64  40 2.64  28 2.64  60 2.64  24 2.64  55 2.85  59 2.87
                            19 2.88
 
  LATTYP: Found a hexagonal cell.
 ALAT       =    10.5600004196
 C/A-ratio  =     1.8939393187
  
  Lattice vectors:
  
 A1 = (  10.5600004196,   0.0000000000,   0.0000000000)
 A2 = (  -5.2800002098,   9.1452286274,   0.0000000000)
 A3 = (   0.0000000000,   0.0000000000,  20.0000000000)


Analysis of symmetry for initial positions (statically):
=====================================================================
 Subroutine PRICEL returns:
 Original cell was already a primitive cell.
 

 Routine SETGRP: Setting up the symmetry group for a 
 hexagonal supercell.


 Subroutine GETGRP returns: Found  1 space group operations
 (whereof  1 operations were pure point group operations)
 out of a pool of 24 trial point group operations.


The static configuration has the point symmetry C_1 .


Analysis of symmetry for dynamics (positions and initial velocities):
=====================================================================
 Subroutine PRICEL returns:
 Original cell was already a primitive cell.
 

 Routine SETGRP: Setting up the symmetry group for a 
 hexagonal supercell.


 Subroutine GETGRP returns: Found  1 space group operations
 (whereof  1 operations were pure point group operations)
 out of a pool of 24 trial point group operations.


The dynamic configuration has the point symmetry C_1 .


Analysis of constrained symmetry for selective dynamics:
=====================================================================
 Subroutine PRICEL returns:
 Original cell was already a primitive cell.
 

 Routine SETGRP: Setting up the symmetry group for a 
 hexagonal supercell.


 Subroutine GETGRP returns: Found  1 space group operations
 (whereof  1 operations were pure point group operations)
 out of a pool of 24 trial point group operations.


The constrained configuration has the point symmetry C_1 .


Analysis of structural, dynamic, and magnetic symmetry:
=====================================================================
 Subroutine PRICEL returns:
 Original cell was already a primitive cell.
 

 Routine SETGRP: Setting up the symmetry group for a 
 hexagonal supercell.


 Subroutine GETGRP returns: Found  1 space group operations
 (whereof  1 operations were pure point group operations)
 out of a pool of 24 trial point group operations.


The magnetic configuration has the point symmetry C_1 .


 Subroutine INISYM returns: Found  1 space group operations
 (whereof  1 operations are pure point group operations),
 and found     1 'primitive' translations

 
 
 KPOINTS: mesh auto                               

Automatic generation of k-mesh.
Space group operators:
 irot       det(A)        alpha          n_x          n_y          n_z        tau_x        tau_y        tau_z
    1     1.000000     0.000000     1.000000     0.000000     0.000000     0.000000     0.000000     0.000000
 
 Subroutine IBZKPT returns following result:
 ===========================================
 
 Found      4 irreducible k-points:
 
 Following reciprocal coordinates:
            Coordinates               Weight
  0.000000  0.000000  0.000000      1.000000
  0.500000 -0.000000  0.000000      1.000000
  0.000000  0.500000  0.000000      1.000000
  0.500000  0.500000  0.000000      1.000000
 
 Following cartesian coordinates:
            Coordinates               Weight
  0.000000  0.000000  0.000000      1.000000
  0.047348  0.027337  0.000000      1.000000
  0.000000  0.054673  0.000000      1.000000
  0.047348  0.082010  0.000000      1.000000
 


--------------------------------------------------------------------------------------------------------




 Dimension of arrays:
   k-points           NKPTS =      4   k-points in BZ     NKDIM =      4   number of bands    NBANDS=    420
   number of dos      NEDOS =    301   number of ions     NIONS =     64
   non local maximal  LDIM  =      6   non local SUM 2l+1 LMDIM =     18
   total plane-waves  NPLWV = ******
   max r-space proj   IRMAX =   8171   max aug-charges    IRDMAX=  35597
   dimension x,y,z NGX =    84 NGY =   84 NGZ =  160
   dimension x,y,z NGXF=   168 NGYF=  168 NGZF=  320
   support grid    NGXF=   168 NGYF=  168 NGZF=  320
   ions per type =              64
   NGX,Y,Z   is equivalent  to a cutoff of  13.22, 13.22, 13.30 a.u.
   NGXF,Y,Z  is equivalent  to a cutoff of  26.45, 26.45, 26.60 a.u.

 SYSTEM =  Pt111                                   
 POSCAR =  Pt111\(1\1\1)\(2)                       

 Startparameter for this run:
   NWRITE =      2    write-flag & timer
   PREC   = accura    normal or accurate (medium, high low for compatibility)
   ISTART =      0    job   : 0-new  1-cont  2-samecut
   ICHARG =      2    charge: 1-file 2-atom 10-const
   ISPIN  =      2    spin polarized calculation?
   LNONCOLLINEAR =      F non collinear calculations
   LSORBIT =      F    spin-orbit coupling
   INIWAV =      1    electr: 0-lowe 1-rand  2-diag
   LASPH  =      F    aspherical Exc in radial PAW
   METAGGA=      F    non-selfconsistent MetaGGA calc.

 Electronic Relaxation 1
   ENCUT  =  550.0 eV  40.42 Ry    6.36 a.u.  20.19 20.19 38.24*2*pi/ulx,y,z
   ENINI  =  550.0     initial cutoff
   ENAUG  =  359.0 eV  augmentation charge cutoff
   NELM   =    200;   NELMIN=  2; NELMDL= -5     # of ELM steps 
   EDIFF  = 0.1E-04   stopping-criterion for ELM
   LREAL  =      T    real-space projection
   NLSPLINE    = F    spline interpolate recip. space projectors
   LCOMPAT=      F    compatible to vasp.4.4
   GGA_COMPAT  = T    GGA compatible to vasp.4.4-vasp.4.6
   LMAXPAW     = -100 max onsite density
   LMAXMIX     =    2 max onsite mixed and CHGCAR
   VOSKOWN=      0    Vosko Wilk Nusair interpolation
   ROPT   =   -0.00025
 Ionic relaxation
   EDIFFG = -.5E-01   stopping-criterion for IOM
   NSW    =    300    number of steps for IOM
   NBLOCK =      1;   KBLOCK =    300    inner block; outer block 
   IBRION =      2    ionic relax: 0-MD 1-quasi-New 2-CG
   NFREE  =      1    steps in history (QN), initial steepest desc. (CG)
   ISIF   =      2    stress and relaxation
   IWAVPR =     11    prediction:  0-non 1-charg 2-wave 3-comb
   ISYM   =      2    0-nonsym 1-usesym 2-fastsym
   LCORR  =      T    Harris-Foulkes like correction to forces

   POTIM  = 0.5000    time-step for ionic-motion
   TEIN   =    0.0    initial temperature
   TEBEG  =    0.0;   TEEND  =   0.0 temperature during run
   SMASS  =  -3.00    Nose mass-parameter (am)
   estimated Nose-frequenzy (Omega)   =  0.10E-29 period in steps =****** mass=  -0.255E-26a.u.
   SCALEE = 1.0000    scale energy and forces
   NPACO  =    256;   APACO  = 16.0  distance and # of slots for P.C.
   PSTRESS=    0.0 pullay stress

  Mass of Ions in am
   POMASS = 195.08
  Ionic Valenz
   ZVAL   =  10.00
  Atomic Wigner-Seitz radii
   RWIGS  =  -1.00
  virtual crystal weights 
   VCA    =   1.00
   NELECT =     640.0000    total number of electrons
   NUPDOWN=      -1.0000    fix difference up-down

 DOS related values:
   EMIN   =  10.00;   EMAX   =-10.00  energy-range for DOS
   EFERMI =   0.00
   ISMEAR =     1;   SIGMA  =   0.10  broadening in eV -4-tet -1-fermi 0-gaus

 Electronic relaxation 2 (details)
   IALGO  =     68    algorithm
   LDIAG  =      T    sub-space diagonalisation (order eigenvalues)
   LSUBROT=      F    optimize rotation matrix (better conditioning)
   TURBO    =      0    0=normal 1=particle mesh
   IRESTART =      0    0=no restart 2=restart with 2 vectors
   NREBOOT  =      0    no. of reboots
   NMIN     =      0    reboot dimension
   EREF     =   0.00    reference energy to select bands
   IMIX   =      4    mixing-type and parameters
     AMIX     =   0.40;   BMIX     =  1.00
     AMIX_MAG =   1.60;   BMIX_MAG =  1.00
     AMIN     =   0.10
     WC   =   100.;   INIMIX=   1;  MIXPRE=   1;  MAXMIX= -45

 Intra band minimization:
   WEIMIN = 0.0010     energy-eigenvalue tresh-hold
   EBREAK =  0.60E-08  absolut break condition
   DEPER  =   0.30     relativ break condition  

   TIME   =   0.40     timestep for ELM

  volume/ion in A,a.u.               =      30.18       203.66
  Fermi-wavevector in a.u.,A,eV,Ry     =   1.132849  2.140774 17.460991  1.283347
  Thomas-Fermi vector in A             =   2.269551
 
 Write flags
   LWAVE        =      F    write WAVECAR
   LDOWNSAMPLE  =      F    k-point downsampling of WAVECAR
   LCHARG       =      F    write CHGCAR
   LVTOT        =      F    write LOCPOT, total local potential
   LVHAR        =      F    write LOCPOT, Hartree potential only
   LELF         =      F    write electronic localiz. function (ELF)
   LORBIT       =      0    0 simple, 1 ext, 2 COOP (PROOUT), +10 PAW based schemes


 Dipole corrections
   LMONO  =      F    monopole corrections only (constant potential shift)
   LDIPOL =      F    correct potential (dipole corrections)
   IDIPOL =      0    1-x, 2-y, 3-z, 4-all directions 
   EPSILON=  1.0000000 bulk dielectric constant

 Exchange correlation treatment:
   GGA     =    --    GGA type
   LEXCH   =     8    internal setting for exchange type
   VOSKOWN=      0    Vosko Wilk Nusair interpolation
   LHFCALC =     F    Hartree Fock is set to
   LHFONE  =     F    Hartree Fock one center treatment
   AEXX    =    0.0000 exact exchange contribution

 Linear response parameters
   LEPSILON=     F    determine dielectric tensor
   LRPA    =     F    only Hartree local field effects (RPA)
   LNABLA  =     F    use nabla operator in PAW spheres
   LVEL    =     F    velocity operator in full k-point grid
   LINTERFAST=   F  fast interpolation
   KINTER  =     0    interpolate to denser k-point grid
   CSHIFT  =0.1000    complex shift for real part using Kramers Kronig
   OMEGAMAX=  -1.0    maximum frequency
   DEG_THRESHOLD= 0.2000000E-02 threshold for treating states as degnerate
   RTIME   =   -0.100 relaxation time in fs
  (WPLASMAI=    0.000 imaginary part of plasma frequency in eV, 0.658/RTIME)
   DFIELD  = 0.0000000 0.0000000 0.0000000 field for delta impulse in time
 
 Orbital magnetization related:
   ORBITALMAG=     F  switch on orbital magnetization
   LCHIMAG   =     F  perturbation theory with respect to B field
   DQ        =  0.001000  dq finite difference perturbation B field
   LLRAUG    =     F  two centre corrections for induced B field



--------------------------------------------------------------------------------------------------------


 conjugate gradient relaxation of ions
   using selective dynamics as specified on POSCAR
 charge density and potential will be updated during run
 spin polarized calculation
 RMM-DIIS sequential band-by-band and
  variant of blocked Davidson during initial phase
 perform sub-space diagonalisation
    before iterative eigenvector-optimisation
 modified Broyden-mixing scheme, WC =      100.0
 initial mixing is a Kerker type mixing with AMIX =  0.4000 and BMIX =      1.0000
 Hartree-type preconditioning will be used
 using additional bands          100
 real space projection scheme for non local part
 use partial core corrections
 calculate Harris-corrections to forces 
   (improved forces if not selfconsistent)
 use gradient corrections 
 use of overlap-Matrix (Vanderbilt PP)
 Methfessel and Paxton  Order N= 1 SIGMA  =   0.10


--------------------------------------------------------------------------------------------------------


  energy-cutoff  :      550.00
  volume of cell :     1931.47
      direct lattice vectors                 reciprocal lattice vectors
    10.560000420  0.000000000  0.000000000     0.094696966  0.054673319  0.000000000
    -5.280000210  9.145228627  0.000000000     0.000000000  0.109346638  0.000000000
     0.000000000  0.000000000 20.000000000     0.000000000  0.000000000  0.050000000

  length of vectors
    10.560000420 10.560000420 20.000000000     0.109346638  0.109346638  0.050000000


 
 k-points in units of 2pi/SCALE and weight: mesh auto                               
   0.00000000  0.00000000  0.00000000       0.250
   0.04734848  0.02733666  0.00000000       0.250
   0.00000000  0.05467332  0.00000000       0.250
   0.04734848  0.08200998  0.00000000       0.250
 
 k-points in reciprocal lattice and weights: mesh auto                               
   0.00000000  0.00000000  0.00000000       0.250
   0.50000000 -0.00000000  0.00000000       0.250
   0.00000000  0.50000000  0.00000000       0.250
   0.50000000  0.50000000  0.00000000       0.250
 
 position of ions in fractional coordinates (direct lattice) 
   0.99999844  0.00000156  0.05579229
   0.33314340  0.16679443  0.17767336
   0.16761692  0.33392718  0.29971288
   0.00002391  0.00007716  0.41904677
   0.99999844  0.25000155  0.05579229
   0.33333687  0.41667657  0.18055252
   0.16749497  0.08498212  0.29863246
   0.99920069  0.24982853  0.41610707
   0.24999844  0.25000155  0.05579229
   0.08363372  0.41686078  0.17762378
   0.41652565  0.08305970  0.29668036
   0.24873798  0.24746687  0.42663545
   0.24999844  0.00000156  0.05579229
   0.08364864  0.16679475  0.17767233
   0.41631891  0.33392704  0.29971482
   0.25006385  0.00007628  0.41904817
   0.49999844  0.00000156  0.05579229
   0.83333240  0.16667990  0.17752947
   0.66720462  0.33374904  0.29670031
   0.49998975  0.00014304  0.42012091
   0.49999843  0.25000155  0.05579229
   0.83333729  0.41668042  0.17723901
   0.66674483  0.08348479  0.29830844
   0.50062980  0.24982533  0.41610853
   0.74999841  0.25000155  0.05579229
   0.58322083  0.41685789  0.17762509
   0.91653989  0.08306083  0.29668100
   0.75018552  0.25036618  0.42014643
   0.74999842  0.00000156  0.05579229
   0.58333951  0.16667936  0.17752918
   0.91654632  0.33375075  0.29670068
   0.75015714  0.00014023  0.42012005
   0.99999844  0.50000154  0.05579229
   0.33315441  0.66637972  0.17764742
   0.16665354  0.83345260  0.29713371
   0.00002107  0.50031038  0.41899824
   0.99999843  0.75000151  0.05579229
   0.33332809  0.91667735  0.17724114
   0.16748172  0.58277569  0.29857883
   0.00011076  0.75021305  0.41764999
   0.24999843  0.75000151  0.05579229
   0.08338106  0.91676406  0.17726825
   0.41630913  0.58260949  0.29971691
   0.25006054  0.75032051  0.41902881
   0.24999844  0.50000154  0.05579229
   0.08338439  0.66663200  0.17723737
   0.41651648  0.83369699  0.29669428
   0.24870559  0.50165112  0.42648984
   0.49999844  0.50000154  0.05579229
   0.83324330  0.66663050  0.17723657
   0.66718454  0.83369520  0.29669384
   0.50295130  0.50165328  0.42649204
   0.49999843  0.75000151  0.05579229
   0.83334414  0.91667596  0.17723997
   0.66529850  0.58277222  0.29857808
   0.50054387  0.75109181  0.41613113
   0.74999841  0.75000151  0.05579229
   0.58334112  0.91668820  0.17752764
   0.91681870  0.58363331  0.29713045
   0.75026754  0.75032194  0.41902628
   0.74999839  0.50000154  0.05579229
   0.58322195  0.66637754  0.17764797
   0.91680595  0.83345202  0.29713289
   0.75029620  0.50030942  0.41899975
 
 position of ions in cartesian coordinates  (Angst):
  10.55997578  0.00001422  1.11584590
   2.63731980  1.52537317  3.55346719
   0.00689916  3.05384043  5.99425754
  -0.00015492  0.00070561  8.38093534
   9.23997574  2.28632132  1.11584590
   1.31998512  3.81060251  3.61105043
   1.32004132  0.77718092  5.97264919
   9.23246498  2.28473905  8.32214143
   1.31997542  2.28632132  1.11584590
  -1.31785289  3.81228716  3.55247551
   3.95995583  0.75959994  5.93360710
   1.32004808  2.26314112  8.53270899
   2.63997547  0.00001422  1.11584590
   0.00265331  1.52537614  3.55344665
   2.63319298  3.05383914  5.99429641
   2.64027161  0.00069762  8.38096347
   5.27997557  0.00001422  1.11584590
   7.91992062  1.52432575  3.55058941
   5.28348606  3.05221127  5.93400616
   5.27913675  0.00130816  8.40241810
   3.95997540  2.28632132  1.11584590
   6.59996938  3.81063773  3.54478023
   6.60002595  0.76348754  5.96616873
   3.96757318  2.28470972  8.32217061
   6.59997527  2.28632132  1.11584590
   3.95780253  3.81226069  3.55250182
   9.24010041  0.75961028  5.93362007
   6.60002595  2.28965596  8.40292861
   7.91997543  0.00001422  1.11584590
   5.27999847  1.52432083  3.55058368
   7.91652551  3.05222695  5.93401356
   7.92091925  0.00128245  8.40240105
   7.91997567  4.57262842  1.11584590
  -0.00037438  6.09419490  3.55294833
  -2.64076842  7.62211459  5.94267416
  -2.64141639  4.57545278  8.37996482
   6.59997574  6.85893527  1.11584590
  -1.32011184  8.38322390  3.54482279
  -1.30844874  5.32961693  5.97157660
  -3.95995547  6.86086990  8.35299986
  -1.32002457  6.85893527  1.11584590
  -3.96001044  8.38401690  3.54536499
   1.32004631  5.32809702  5.99433818
  -1.32105302  6.86185265  8.38057619
  -0.00002464  4.57262842  1.11584590
  -2.63927792  6.09650207  3.54474748
  -0.00350608  7.62434960  5.93388566
  -0.02238690  4.58771419  8.52979674
   2.63997546  4.57262842  1.11584590
   5.27924037  6.09648836  3.54473131
   2.64355817  7.62433325  5.93387673
   2.66243656  4.58773392  8.52984079
   1.31997553  6.85893527  1.11584590
   3.96006517  8.38321127  3.54479934
   3.94851505  5.32958516  5.97156165
   1.31997858  6.86890634  8.32262262
   3.95997540  6.85893527  1.11584590
   1.31996864  8.38332314  3.55055283
   6.60002188  5.33746001  5.94260904
   3.96112554  6.86186569  8.38052553
   5.27997509  4.57262842  1.11584590
   2.64035050  6.09417493  3.55295948
   5.28084433  7.62210930  5.94265784
   5.28149434  4.57544406  8.37999505
 


--------------------------------------------------------------------------------------------------------


 k-point  1 :   0.0000 0.0000 0.0000  plane waves:   56579
 k-point  2 :   0.5000-0.0000 0.0000  plane waves:   56606
 k-point  3 :   0.0000 0.5000 0.0000  plane waves:   56606
 k-point  4 :   0.5000 0.5000 0.0000  plane waves:   56606

 maximum and minimum number of plane-waves per node :     14185    14108

 maximum number of plane-waves:     56606
 maximum index in each direction: 
   IXMAX=   20   IYMAX=   20   IZMAX=   38
   IXMIN=  -20   IYMIN=  -20   IZMIN=  -38


 real space projection operators:
  total allocation   :      71033.34 KBytes
  max/ min on nodes  :      17765.44      17752.22


 parallel 3D FFT for wavefunctions:
    minimum data exchange during FFTs selected (reduces bandwidth)
 parallel 3D FFT for charge:
    minimum data exchange during FFTs selected (reduces bandwidth)


 total amount of memory used by VASP MPI-rank0   198142. kBytes
=======================================================================

   base      :      30000. kBytes
   nonlr-proj:      30733. kBytes
   fftplans  :      17093. kBytes
   grid      :      42083. kBytes
   one-center:        497. kBytes
   wavefun   :      77736. kBytes
 
     INWAV:  cpu time    0.0000: real time    0.0000
 Broyden mixing: mesh for mixing (old mesh)
   NGX = 41   NGY = 41   NGZ = 77
  (NGX  =168   NGY  =168   NGZ  =320)
  gives a total of 129437 points

 initial charge density was supplied:
 charge density of overlapping atoms calculated
 number of electron     640.0000000 magnetization      64.0000000
 keeping initial charge density in first step


--------------------------------------------------------------------------------------------------------


 Maximum index for non-local projection operator         2014
 Maximum index for augmentation-charges         2180 (set IRDMAX)


--------------------------------------------------------------------------------------------------------


 First call to EWALD:  gamma=   0.142
 Maximum number of real-space cells 4x 4x 2
 Maximum number of reciprocal cells 2x 2x 4

    FEWALD:  cpu time    0.0032: real time    0.0032


--------------------------------------- Iteration      1(   1)  ---------------------------------------


    POTLOK:  cpu time    0.3486: real time    0.3534
    SETDIJ:  cpu time    0.0323: real time    0.0326
     EDDAV:  cpu time   39.8170: real time   39.9171
       DOS:  cpu time    0.0034: real time    0.0034
    --------------------------------------------
      LOOP:  cpu time   40.2013: real time   40.3066

 eigenvalue-minimisations  :  6720
 total energy-change (2. order) : 0.4495965E+04  (-0.3112982E+05)
 number of electron     640.0000000 magnetization      64.0000000
 augmentation part      640.0000000 magnetization      64.0000000

 Free energy of the ion-electron system (eV)
  ---------------------------------------------------
  alpha Z        PSCENC =      2015.86452450
  Ewald energy   TEWEN  =    125270.11727241
  -Hartree energ DENC   =   -176333.80575986
  -exchange      EXHF   =         0.00000000
  -V(xc)+E(xc)   XCENC  =       241.61397246
  PAW double counting   =     44546.96166755   -42737.10153268
  entropy T*S    EENTRO =        -0.00234457
  eigenvalues    EBANDS =      4828.92200078
  atomic energy  EATOM  =     46663.39518770
  Solvation  Ediel_sol  =         0.00000000
  ---------------------------------------------------
  free energy    TOTEN  =      4495.96498830 eV

  energy without entropy =     4495.96733287  energy(sigma->0) =     4495.96576982


--------------------------------------------------------------------------------------------------------




--------------------------------------- Iteration      1(   2)  ---------------------------------------


     EDDAV:  cpu time   43.4726: real time   43.5786
       DOS:  cpu time    0.0015: real time    0.0015
    --------------------------------------------
      LOOP:  cpu time   43.4742: real time   43.5801

 eigenvalue-minimisations  :  7510
 total energy-change (2. order) :-0.4629683E+04  (-0.4242720E+04)
 number of electron     640.0000000 magnetization      64.0000000
 augmentation part      640.0000000 magnetization      64.0000000

 Free energy of the ion-electron system (eV)
  ---------------------------------------------------
  alpha Z        PSCENC =      2015.86452450
  Ewald energy   TEWEN  =    125270.11727241
  -Hartree energ DENC   =   -176333.80575986
  -exchange      EXHF   =         0.00000000
  -V(xc)+E(xc)   XCENC  =       241.61397246
  PAW double counting   =     44546.96166755   -42737.10153268
  entropy T*S    EENTRO =        -0.00453437
  eigenvalues    EBANDS =       199.24088178
  atomic energy  EATOM  =     46663.39518770
  Solvation  Ediel_sol  =         0.00000000
  ---------------------------------------------------
  free energy    TOTEN  =      -133.71832050 eV

  energy without entropy =     -133.71378613  energy(sigma->0) =     -133.71680904


--------------------------------------------------------------------------------------------------------




--------------------------------------- Iteration      1(   3)  ---------------------------------------


     EDDAV:  cpu time   44.0967: real time   44.2150
       DOS:  cpu time    0.0016: real time    0.0016
    --------------------------------------------
      LOOP:  cpu time   44.0983: real time   44.2166

 eigenvalue-minimisations  :  7660
 total energy-change (2. order) :-0.2463556E+03  (-0.2279212E+03)
 number of electron     640.0000000 magnetization      64.0000000
 augmentation part      640.0000000 magnetization      64.0000000

 Free energy of the ion-electron system (eV)
  ---------------------------------------------------
  alpha Z        PSCENC =      2015.86452450
  Ewald energy   TEWEN  =    125270.11727241
  -Hartree energ DENC   =   -176333.80575986
  -exchange      EXHF   =         0.00000000
  -V(xc)+E(xc)   XCENC  =       241.61397246
  PAW double counting   =     44546.96166755   -42737.10153268
  entropy T*S    EENTRO =         0.01474000
  eigenvalues    EBANDS =       -47.13400999
  atomic energy  EATOM  =     46663.39518770
  Solvation  Ediel_sol  =         0.00000000
  ---------------------------------------------------
  free energy    TOTEN  =      -380.07393790 eV

  energy without entropy =     -380.08867790  energy(sigma->0) =     -380.07885123


--------------------------------------------------------------------------------------------------------




--------------------------------------- Iteration      1(   4)  ---------------------------------------


     EDDAV:  cpu time   45.1871: real time   45.3105
       DOS:  cpu time    0.0016: real time    0.0016
    --------------------------------------------
      LOOP:  cpu time   45.1887: real time   45.3120

 eigenvalue-minimisations  :  7870
 total energy-change (2. order) :-0.6363882E+01  (-0.6300580E+01)
 number of electron     640.0000000 magnetization      64.0000000
 augmentation part      640.0000000 magnetization      64.0000000

 Free energy of the ion-electron system (eV)
  ---------------------------------------------------
  alpha Z        PSCENC =      2015.86452450
  Ewald energy   TEWEN  =    125270.11727241
  -Hartree energ DENC   =   -176333.80575986
  -exchange      EXHF   =         0.00000000
  -V(xc)+E(xc)   XCENC  =       241.61397246
  PAW double counting   =     44546.96166755   -42737.10153268
  entropy T*S    EENTRO =         0.01046711
  eigenvalues    EBANDS =       -53.49361950
  atomic energy  EATOM  =     46663.39518770
  Solvation  Ediel_sol  =         0.00000000
  ---------------------------------------------------
  free energy    TOTEN  =      -386.43782031 eV

  energy without entropy =     -386.44828742  energy(sigma->0) =     -386.44130935


--------------------------------------------------------------------------------------------------------




--------------------------------------- Iteration      1(   5)  ---------------------------------------


     EDDAV:  cpu time   45.1571: real time   45.2774
       DOS:  cpu time    0.0020: real time    0.0019
    CHARGE:  cpu time    2.9233: real time    2.9314
    MIXING:  cpu time    0.0093: real time    0.0102
    --------------------------------------------
      LOOP:  cpu time   48.0917: real time   48.2210

 eigenvalue-minimisations  :  7870
 total energy-change (2. order) :-0.2239124E+00  (-0.2232243E+00)
 number of electron     640.0000091 magnetization      57.8004683
 augmentation part      185.6968649 magnetization      46.6047070

 Broyden mixing:
  rms(total) = 0.10467E+02    rms(broyden)= 0.10467E+02
  rms(prec ) = 0.10573E+02
  weight for this iteration     100.00

 Free energy of the ion-electron system (eV)
  ---------------------------------------------------
  alpha Z        PSCENC =      2015.86452450
  Ewald energy   TEWEN  =    125270.11727241
  -Hartree energ DENC   =   -176333.80575986
  -exchange      EXHF   =         0.00000000
  -V(xc)+E(xc)   XCENC  =       241.61397246
  PAW double counting   =     44546.96166755   -42737.10153268
  entropy T*S    EENTRO =         0.00934090
  eigenvalues    EBANDS =       -53.71640564
  atomic energy  EATOM  =     46663.39518770
  Solvation  Ediel_sol  =         0.00000000
  ---------------------------------------------------
  free energy    TOTEN  =      -386.66173266 eV

  energy without entropy =     -386.67107356  energy(sigma->0) =     -386.66484629


--------------------------------------------------------------------------------------------------------




--------------------------------------- Iteration      1(   6)  ---------------------------------------


    POTLOK:  cpu time    0.3528: real time    0.3539
    SETDIJ:  cpu time    0.0313: real time    0.0314
    EDDIAG:  cpu time    7.0821: real time    7.1015
  RMM-DIIS:  cpu time   25.6305: real time   25.6988
    ORTHCH:  cpu time    0.6479: real time    0.6498
       DOS:  cpu time    0.0017: real time    0.0017
    CHARGE:  cpu time    2.9272: real time    2.9350
    MIXING:  cpu time    0.0089: real time    0.0098
    --------------------------------------------
      LOOP:  cpu time   36.6824: real time   36.7818

 eigenvalue-minimisations  :  6754
 total energy-change (2. order) : 0.2704471E+02  (-0.5932832E+01)
 number of electron     640.0000099 magnetization      50.2021725
 augmentation part      195.1313472 magnetization      37.3058683

 Broyden mixing:
  rms(total) = 0.67263E+01    rms(broyden)= 0.67263E+01
  rms(prec ) = 0.70002E+01
  weight for this iteration     100.00

 eigenvalues of (default mixing * dielectric matrix)
  average eigenvalue GAMMA=   1.2915
  1.2915

 Free energy of the ion-electron system (eV)
  ---------------------------------------------------
  alpha Z        PSCENC =      2015.86452450
  Ewald energy   TEWEN  =    125270.11727241
  -Hartree energ DENC   =   -175650.49433330
  -exchange      EXHF   =         0.00000000
  -V(xc)+E(xc)   XCENC  =       230.48846581
  PAW double counting   =     50820.67546123   -49117.89888662
  entropy T*S    EENTRO =        -0.02988665
  eigenvalues    EBANDS =      -591.73483090
  atomic energy  EATOM  =     46663.39518770
  Solvation  Ediel_sol  =         0.00000000
  ---------------------------------------------------
  free energy    TOTEN  =      -359.61702583 eV

  energy without entropy =     -359.58713918  energy(sigma->0) =     -359.60706361


--------------------------------------------------------------------------------------------------------




--------------------------------------- Iteration      1(   7)  ---------------------------------------


    POTLOK:  cpu time    0.3554: real time    0.3563
    SETDIJ:  cpu time    0.0308: real time    0.0309
    EDDIAG:  cpu time    7.1615: real time    7.1786
  RMM-DIIS:  cpu time   25.2049: real time   25.2646
    ORTHCH:  cpu time    0.6837: real time    0.6853
       DOS:  cpu time    0.0019: real time    0.0019
    CHARGE:  cpu time    3.0003: real time    3.0074
    MIXING:  cpu time    0.0081: real time    0.0081
    --------------------------------------------
      LOOP:  cpu time   36.4466: real time   36.5330

 eigenvalue-minimisations  :  6730
 total energy-change (2. order) :-0.1048066E+03  (-0.1198029E+02)
 number of electron     640.0000101 magnetization      44.6218290
 augmentation part      192.7749221 magnetization      32.7907474

 Broyden mixing:
  rms(total) = 0.92664E+01    rms(broyden)= 0.92664E+01
  rms(prec ) = 0.11419E+02
  weight for this iteration     100.00

 eigenvalues of (default mixing * dielectric matrix)
  average eigenvalue GAMMA=   1.0723
  1.8066  0.3381

 Free energy of the ion-electron system (eV)
  ---------------------------------------------------
  alpha Z        PSCENC =      2015.86452450
  Ewald energy   TEWEN  =    125270.11727241
  -Hartree energ DENC   =   -176198.66617350
  -exchange      EXHF   =         0.00000000
  -V(xc)+E(xc)   XCENC  =       224.43455118
  PAW double counting   =     56450.45969905   -54810.28933070
  entropy T*S    EENTRO =        -0.00897924
  eigenvalues    EBANDS =       -79.73042351
  atomic energy  EATOM  =     46663.39518770
  Solvation  Ediel_sol  =         0.00000000
  ---------------------------------------------------
  free energy    TOTEN  =      -464.42367211 eV

  energy without entropy =     -464.41469287  energy(sigma->0) =     -464.42067903


--------------------------------------------------------------------------------------------------------




--------------------------------------- Iteration      1(   8)  ---------------------------------------


    POTLOK:  cpu time    0.3547: real time    0.3555
    SETDIJ:  cpu time    0.0309: real time    0.0310
    EDDIAG:  cpu time    7.0819: real time    7.0989
  RMM-DIIS:  cpu time   25.4436: real time   25.5038
    ORTHCH:  cpu time    0.6472: real time    0.6487
       DOS:  cpu time    0.0016: real time    0.0016
    CHARGE:  cpu time    2.9279: real time    2.9348
    MIXING:  cpu time    0.0085: real time    0.0086
    --------------------------------------------
      LOOP:  cpu time   36.4962: real time   36.5828

 eigenvalue-minimisations  :  6755
 total energy-change (2. order) : 0.1109510E+03  (-0.4983756E+01)
 number of electron     640.0000098 magnetization      41.8078620
 augmentation part      198.3711817 magnetization      30.8570923

 Broyden mixing:
  rms(total) = 0.28539E+01    rms(broyden)= 0.28539E+01
  rms(prec ) = 0.33159E+01
  weight for this iteration     100.00

 eigenvalues of (default mixing * dielectric matrix)
  average eigenvalue GAMMA=   1.0122
  2.1146  0.5931  0.3287

 Free energy of the ion-electron system (eV)
  ---------------------------------------------------
  alpha Z        PSCENC =      2015.86452450
  Ewald energy   TEWEN  =    125270.11727241
  -Hartree energ DENC   =   -175653.59721955
  -exchange      EXHF   =         0.00000000
  -V(xc)+E(xc)   XCENC  =       226.68340861
  PAW double counting   =     59873.56268691   -58275.27269179
  entropy T*S    EENTRO =        -0.00976438
  eigenvalues    EBANDS =      -474.21604681
  atomic energy  EATOM  =     46663.39518770
  Solvation  Ediel_sol  =         0.00000000
  ---------------------------------------------------
  free energy    TOTEN  =      -353.47264242 eV

  energy without entropy =     -353.46287803  energy(sigma->0) =     -353.46938762


--------------------------------------------------------------------------------------------------------




--------------------------------------- Iteration      1(   9)  ---------------------------------------


    POTLOK:  cpu time    0.3545: real time    0.3554
    SETDIJ:  cpu time    0.0310: real time    0.0310
    EDDIAG:  cpu time    7.0789: real time    7.0957
  RMM-DIIS:  cpu time   25.3708: real time   25.4307
    ORTHCH:  cpu time    0.6485: real time    0.6501
       DOS:  cpu time    0.0017: real time    0.0017
    CHARGE:  cpu time    2.9360: real time    2.9429
    MIXING:  cpu time    0.0087: real time    0.0087
    --------------------------------------------
      LOOP:  cpu time   36.4303: real time   36.5163

 eigenvalue-minimisations  :  6749
 total energy-change (2. order) :-0.1685174E+02  (-0.2048952E+01)
 number of electron     640.0000100 magnetization      40.0507714
 augmentation part      197.7153983 magnetization      32.3738260

 Broyden mixing:
  rms(total) = 0.46589E+01    rms(broyden)= 0.46589E+01
  rms(prec ) = 0.68964E+01
  weight for this iteration     100.00

 eigenvalues of (default mixing * dielectric matrix)
  average eigenvalue GAMMA=   0.8576
  2.2075  0.6894  0.3361  0.1973

 Free energy of the ion-electron system (eV)
  ---------------------------------------------------
  alpha Z        PSCENC =      2015.86452450
  Ewald energy   TEWEN  =    125270.11727241
  -Hartree energ DENC   =   -175661.49029831
  -exchange      EXHF   =         0.00000000
  -V(xc)+E(xc)   XCENC  =       225.94246475
  PAW double counting   =     60283.22073076   -58686.04916798
  entropy T*S    EENTRO =        -0.02626959
  eigenvalues    EBANDS =      -481.29882503
  atomic energy  EATOM  =     46663.39518770
  Solvation  Ediel_sol  =         0.00000000
  ---------------------------------------------------
  free energy    TOTEN  =      -370.32438080 eV

  energy without entropy =     -370.29811120  energy(sigma->0) =     -370.31562427


--------------------------------------------------------------------------------------------------------




--------------------------------------- Iteration      1(  10)  ---------------------------------------


    POTLOK:  cpu time    0.3551: real time    0.3560
    SETDIJ:  cpu time    0.0309: real time    0.0310
    EDDIAG:  cpu time    7.0810: real time    7.0977
  RMM-DIIS:  cpu time   25.4839: real time   25.5441
    ORTHCH:  cpu time    0.6496: real time    0.6511
       DOS:  cpu time    0.0016: real time    0.0016
    CHARGE:  cpu time    2.9408: real time    2.9477
    MIXING:  cpu time    0.0088: real time    0.0089
    --------------------------------------------
      LOOP:  cpu time   36.5518: real time   36.6381

 eigenvalue-minimisations  :  6761
 total energy-change (2. order) : 0.1173783E+02  (-0.5995411E+00)
 number of electron     640.0000102 magnetization      38.0528806
 augmentation part      197.6355313 magnetization      25.9756926

 Broyden mixing:
  rms(total) = 0.30930E+01    rms(broyden)= 0.30930E+01
  rms(prec ) = 0.44319E+01
  weight for this iteration     100.00

 eigenvalues of (default mixing * dielectric matrix)
  average eigenvalue GAMMA=   0.7571
  2.2604  0.7168  0.4016  0.2944  0.1121

 Free energy of the ion-electron system (eV)
  ---------------------------------------------------
  alpha Z        PSCENC =      2015.86452450
  Ewald energy   TEWEN  =    125270.11727241
  -Hartree energ DENC   =   -175690.32592999
  -exchange      EXHF   =         0.00000000
  -V(xc)+E(xc)   XCENC  =       225.85785014
  PAW double counting   =     60502.93544179   -58906.57652519
  entropy T*S    EENTRO =        -0.02065147
  eigenvalues    EBANDS =      -439.83372211
  atomic energy  EATOM  =     46663.39518770
  Solvation  Ediel_sol  =         0.00000000
  ---------------------------------------------------
  free energy    TOTEN  =      -358.58655222 eV

  energy without entropy =     -358.56590075  energy(sigma->0) =     -358.57966840


--------------------------------------------------------------------------------------------------------




--------------------------------------- Iteration      1(  11)  ---------------------------------------


    POTLOK:  cpu time    0.3553: real time    0.3561
    SETDIJ:  cpu time    0.0311: real time    0.0311
    EDDIAG:  cpu time    7.1543: real time    7.1738
  RMM-DIIS:  cpu time   25.5455: real time   25.6058
    ORTHCH:  cpu time    0.6508: real time    0.6523
       DOS:  cpu time    0.0017: real time    0.0017
    CHARGE:  cpu time    2.9516: real time    2.9586
    MIXING:  cpu time    0.0103: real time    0.0103
    --------------------------------------------
      LOOP:  cpu time   36.7007: real time   36.7900

 eigenvalue-minimisations  :  6767
 total energy-change (2. order) : 0.6122325E+01  (-0.4497664E+00)
 number of electron     640.0000097 magnetization      36.1594591
 augmentation part      197.4427576 magnetization      24.9611457

 Broyden mixing:
  rms(total) = 0.11524E+01    rms(broyden)= 0.11524E+01
  rms(prec ) = 0.14247E+01
  weight for this iteration     100.00

 eigenvalues of (default mixing * dielectric matrix)
  average eigenvalue GAMMA=   0.7462
  2.1970  0.7853  0.7853  0.3001  0.3001  0.1092

 Free energy of the ion-electron system (eV)
  ---------------------------------------------------
  alpha Z        PSCENC =      2015.86452450
  Ewald energy   TEWEN  =    125270.11727241
  -Hartree energ DENC   =   -175704.97067854
  -exchange      EXHF   =         0.00000000
  -V(xc)+E(xc)   XCENC  =       225.29168925
  PAW double counting   =     60721.14706950   -59126.15573658
  entropy T*S    EENTRO =         0.01212125
  eigenvalues    EBANDS =      -417.16567685
  atomic energy  EATOM  =     46663.39518770
  Solvation  Ediel_sol  =         0.00000000
  ---------------------------------------------------
  free energy    TOTEN  =      -352.46422736 eV

  energy without entropy =     -352.47634862  energy(sigma->0) =     -352.46826778


--------------------------------------------------------------------------------------------------------




--------------------------------------- Iteration      1(  12)  ---------------------------------------


    POTLOK:  cpu time    0.3564: real time    0.3572
    SETDIJ:  cpu time    0.0311: real time    0.0311
    EDDIAG:  cpu time    7.0858: real time    7.1028
  RMM-DIIS:  cpu time   25.5521: real time   25.6145
    ORTHCH:  cpu time    0.6480: real time    0.6499
       DOS:  cpu time    0.0018: real time    0.0018
    CHARGE:  cpu time    2.9367: real time    2.9446
    MIXING:  cpu time    0.0105: real time    0.0106
    --------------------------------------------
      LOOP:  cpu time   36.6224: real time   36.7125

 eigenvalue-minimisations  :  6765
 total energy-change (2. order) :-0.2398832E+01  (-0.1665444E+00)
 number of electron     640.0000098 magnetization      34.6336216
 augmentation part      197.2833641 magnetization      24.8310904

 Broyden mixing:
  rms(total) = 0.12193E+01    rms(broyden)= 0.12193E+01
  rms(prec ) = 0.13238E+01
  weight for this iteration     100.00

 eigenvalues of (default mixing * dielectric matrix)
  average eigenvalue GAMMA=   0.7057
  2.1926  0.8279  0.8279  0.4388  0.2721  0.2721  0.1083

 Free energy of the ion-electron system (eV)
  ---------------------------------------------------
  alpha Z        PSCENC =      2015.86452450
  Ewald energy   TEWEN  =    125270.11727241
  -Hartree energ DENC   =   -175698.32380851
  -exchange      EXHF   =         0.00000000
  -V(xc)+E(xc)   XCENC  =       224.08394766
  PAW double counting   =     60621.16821658   -59025.17147171
  entropy T*S    EENTRO =         0.04000618
  eigenvalues    EBANDS =      -426.03693402
  atomic energy  EATOM  =     46663.39518770
  Solvation  Ediel_sol  =         0.00000000
  ---------------------------------------------------
  free energy    TOTEN  =      -354.86305921 eV

  energy without entropy =     -354.90306539  energy(sigma->0) =     -354.87639460


--------------------------------------------------------------------------------------------------------




--------------------------------------- Iteration      1(  13)  ---------------------------------------


    POTLOK:  cpu time    0.3544: real time    0.3552
    SETDIJ:  cpu time    0.0311: real time    0.0311
    EDDIAG:  cpu time    7.0770: real time    7.0962
  RMM-DIIS:  cpu time   25.5367: real time   25.6049
    ORTHCH:  cpu time    0.6481: real time    0.6500
       DOS:  cpu time    0.0017: real time    0.0017
    CHARGE:  cpu time    2.9361: real time    2.9437
    MIXING:  cpu time    0.0114: real time    0.0114
    --------------------------------------------
      LOOP:  cpu time   36.5964: real time   36.6944

 eigenvalue-minimisations  :  6763
 total energy-change (2. order) :-0.4964856E+00  (-0.4631470E-01)
 number of electron     640.0000098 magnetization      32.1001963
 augmentation part      197.2729695 magnetization      22.5259685

 Broyden mixing:
  rms(total) = 0.90760E+00    rms(broyden)= 0.90760E+00
  rms(prec ) = 0.95622E+00
  weight for this iteration     100.00

 eigenvalues of (default mixing * dielectric matrix)
  average eigenvalue GAMMA=   0.7193
  2.2508  0.8347  0.8347  0.8414  0.3149  0.3149  0.2550  0.1084

 Free energy of the ion-electron system (eV)
  ---------------------------------------------------
  alpha Z        PSCENC =      2015.86452450
  Ewald energy   TEWEN  =    125270.11727241
  -Hartree energ DENC   =   -175697.00118761
  -exchange      EXHF   =         0.00000000
  -V(xc)+E(xc)   XCENC  =       223.47920875
  PAW double counting   =     60612.81703389   -59016.93008685
  entropy T*S    EENTRO =         0.03512512
  eigenvalues    EBANDS =      -427.13662268
  atomic energy  EATOM  =     46663.39518770
  Solvation  Ediel_sol  =         0.00000000
  ---------------------------------------------------
  free energy    TOTEN  =      -355.35954477 eV

  energy without entropy =     -355.39466989  energy(sigma->0) =     -355.37125314


--------------------------------------------------------------------------------------------------------




--------------------------------------- Iteration      1(  14)  ---------------------------------------


    POTLOK:  cpu time    0.3556: real time    0.3567
    SETDIJ:  cpu time    0.0311: real time    0.0311
    EDDIAG:  cpu time    7.0956: real time    7.1148
  RMM-DIIS:  cpu time   25.5320: real time   25.6003
    ORTHCH:  cpu time    0.6494: real time    0.6509
       DOS:  cpu time    0.0017: real time    0.0017
    CHARGE:  cpu time    2.9179: real time    2.9258
    MIXING:  cpu time    0.0117: real time    0.0117
    --------------------------------------------
      LOOP:  cpu time   36.5949: real time   36.6931

 eigenvalue-minimisations  :  6757
 total energy-change (2. order) :-0.1360336E+01  (-0.3842632E-01)
 number of electron     640.0000098 magnetization      25.5908481
 augmentation part      197.2541634 magnetization      15.8463361

 Broyden mixing:
  rms(total) = 0.77070E+00    rms(broyden)= 0.77070E+00
  rms(prec ) = 0.82904E+00
  weight for this iteration     100.00

 eigenvalues of (default mixing * dielectric matrix)
  average eigenvalue GAMMA=   0.7820
  2.3195  1.3028  1.3028  0.7089  0.4269  0.1084  0.3084  0.3084  0.2523

 Free energy of the ion-electron system (eV)
  ---------------------------------------------------
  alpha Z        PSCENC =      2015.86452450
  Ewald energy   TEWEN  =    125270.11727241
  -Hartree energ DENC   =   -175698.69795103
  -exchange      EXHF   =         0.00000000
  -V(xc)+E(xc)   XCENC  =       222.49332036
  PAW double counting   =     60663.03155638   -59068.01748770
  entropy T*S    EENTRO =         0.03515051
  eigenvalues    EBANDS =      -424.94145427
  atomic energy  EATOM  =     46663.39518770
  Solvation  Ediel_sol  =         0.00000000
  ---------------------------------------------------
  free energy    TOTEN  =      -356.71988115 eV

  energy without entropy =     -356.75503166  energy(sigma->0) =     -356.73159799


--------------------------------------------------------------------------------------------------------




--------------------------------------- Iteration      1(  15)  ---------------------------------------


    POTLOK:  cpu time    0.3558: real time    0.3569
    SETDIJ:  cpu time    0.0312: real time    0.0313
    EDDIAG:  cpu time    7.0818: real time    7.1009
  RMM-DIIS:  cpu time   25.6701: real time   25.7368
    ORTHCH:  cpu time    0.6524: real time    0.6540
       DOS:  cpu time    0.0017: real time    0.0017
    CHARGE:  cpu time    2.8796: real time    2.8864
    MIXING:  cpu time    0.0116: real time    0.0116
    --------------------------------------------
      LOOP:  cpu time   36.6844: real time   36.7796

 eigenvalue-minimisations  :  6750
 total energy-change (2. order) :-0.4159641E+01  (-0.1770418E+00)
 number of electron     640.0000098 magnetization      22.4102568
 augmentation part      197.2183064 magnetization      12.5817621

 Broyden mixing:
  rms(total) = 0.75338E+00    rms(broyden)= 0.75338E+00
  rms(prec ) = 0.84402E+00
  weight for this iteration     100.00

 eigenvalues of (default mixing * dielectric matrix)
  average eigenvalue GAMMA=   0.8152
  2.2639  2.2639  1.1604  0.6121  0.6121  0.1084  0.3094  0.3094  0.2845  0.2280

 Free energy of the ion-electron system (eV)
  ---------------------------------------------------
  alpha Z        PSCENC =      2015.86452450
  Ewald energy   TEWEN  =    125270.11727241
  -Hartree energ DENC   =   -175709.84064042
  -exchange      EXHF   =         0.00000000
  -V(xc)+E(xc)   XCENC  =       219.74522235
  PAW double counting   =     60662.43652824   -59068.22311899
  entropy T*S    EENTRO =        -0.01784197
  eigenvalues    EBANDS =      -414.35665568
  atomic energy  EATOM  =     46663.39518770
  Solvation  Ediel_sol  =         0.00000000
  ---------------------------------------------------
  free energy    TOTEN  =      -360.87952187 eV

  energy without entropy =     -360.86167990  energy(sigma->0) =     -360.87357455


--------------------------------------------------------------------------------------------------------




--------------------------------------- Iteration      1(  16)  ---------------------------------------


    POTLOK:  cpu time    0.3552: real time    0.3561
    SETDIJ:  cpu time    0.0321: real time    0.0321
    EDDIAG:  cpu time    7.1480: real time    7.1650
  RMM-DIIS:  cpu time   25.6424: real time   25.7079
    ORTHCH:  cpu time    0.6698: real time    0.6717
       DOS:  cpu time    0.0018: real time    0.0018
    CHARGE:  cpu time    2.8812: real time    2.8890
    MIXING:  cpu time    0.0111: real time    0.0111
    --------------------------------------------
      LOOP:  cpu time   36.7416: real time   36.8348

 eigenvalue-minimisations  :  6755
 total energy-change (2. order) :-0.2462932E+01  (-0.1229986E+00)
 number of electron     640.0000098 magnetization      21.0267730
 augmentation part      197.0989692 magnetization      11.6612035

 Broyden mixing:
  rms(total) = 0.46215E+00    rms(broyden)= 0.46215E+00
  rms(prec ) = 0.50790E+00
  weight for this iteration     100.00

 eigenvalues of (default mixing * dielectric matrix)
  average eigenvalue GAMMA=   0.8813
  2.9412  2.5062  0.8852  0.7374  0.7374  0.6427  0.1084  0.3114  0.3114  0.2821
  0.2307

 Free energy of the ion-electron system (eV)
  ---------------------------------------------------
  alpha Z        PSCENC =      2015.86452450
  Ewald energy   TEWEN  =    125270.11727241
  -Hartree energ DENC   =   -175711.97799437
  -exchange      EXHF   =         0.00000000
  -V(xc)+E(xc)   XCENC  =       218.21095772
  PAW double counting   =     60538.24652026   -58942.67424425
  entropy T*S    EENTRO =         0.00290402
  eigenvalues    EBANDS =      -414.52758143
  atomic energy  EATOM  =     46663.39518770
  Solvation  Ediel_sol  =         0.00000000
  ---------------------------------------------------
  free energy    TOTEN  =      -363.34245344 eV

  energy without entropy =     -363.34535746  energy(sigma->0) =     -363.34342144


--------------------------------------------------------------------------------------------------------




--------------------------------------- Iteration      1(  17)  ---------------------------------------


    POTLOK:  cpu time    0.3552: real time    0.3560
    SETDIJ:  cpu time    0.0319: real time    0.0320
    EDDIAG:  cpu time    7.0682: real time    7.0874
  RMM-DIIS:  cpu time   25.6031: real time   25.6715
    ORTHCH:  cpu time    0.6475: real time    0.6494
       DOS:  cpu time    0.0018: real time    0.0018
    CHARGE:  cpu time    2.8821: real time    2.8896
    MIXING:  cpu time    0.0107: real time    0.0108
    --------------------------------------------
      LOOP:  cpu time   36.6005: real time   36.6984

 eigenvalue-minimisations  :  6758
 total energy-change (2. order) :-0.1331097E+01  (-0.7063174E-01)
 number of electron     640.0000098 magnetization      20.1071158
 augmentation part      197.0210851 magnetization      11.3364671

 Broyden mixing:
  rms(total) = 0.34108E+00    rms(broyden)= 0.34108E+00
  rms(prec ) = 0.38224E+00
  weight for this iteration     100.00

 eigenvalues of (default mixing * dielectric matrix)
  average eigenvalue GAMMA=   0.9137
  3.5104  2.4540  1.0255  1.0255  0.6857  0.6857  0.1084  0.3243  0.3243  0.3217
  0.2730  0.2263

 Free energy of the ion-electron system (eV)
  ---------------------------------------------------
  alpha Z        PSCENC =      2015.86452450
  Ewald energy   TEWEN  =    125270.11727241
  -Hartree energ DENC   =   -175708.50226821
  -exchange      EXHF   =         0.00000000
  -V(xc)+E(xc)   XCENC  =       217.39905840
  PAW double counting   =     60461.17657084   -58864.55188714
  entropy T*S    EENTRO =         0.01374751
  eigenvalues    EBANDS =      -419.58575675
  atomic energy  EATOM  =     46663.39518770
  Solvation  Ediel_sol  =         0.00000000
  ---------------------------------------------------
  free energy    TOTEN  =      -364.67355074 eV

  energy without entropy =     -364.68729825  energy(sigma->0) =     -364.67813325


--------------------------------------------------------------------------------------------------------




--------------------------------------- Iteration      1(  18)  ---------------------------------------


    POTLOK:  cpu time    0.3537: real time    0.3549
    SETDIJ:  cpu time    0.0318: real time    0.0319
    EDDIAG:  cpu time    7.0773: real time    7.0964
  RMM-DIIS:  cpu time   25.6041: real time   25.6726
    ORTHCH:  cpu time    0.6487: real time    0.6503
       DOS:  cpu time    0.0017: real time    0.0017
    CHARGE:  cpu time    2.8851: real time    2.8928
    MIXING:  cpu time    0.0120: real time    0.0121
    --------------------------------------------
      LOOP:  cpu time   36.6145: real time   36.7127

 eigenvalue-minimisations  :  6752
 total energy-change (2. order) :-0.7490476E+00  (-0.3667595E-01)
 number of electron     640.0000098 magnetization      19.2590510
 augmentation part      196.9931551 magnetization      10.9330236

 Broyden mixing:
  rms(total) = 0.25884E+00    rms(broyden)= 0.25884E+00
  rms(prec ) = 0.28649E+00
  weight for this iteration     100.00

 eigenvalues of (default mixing * dielectric matrix)
  average eigenvalue GAMMA=   0.9075
  3.7640  2.3895  1.1511  1.1511  0.6504  0.6504  0.5003  0.1084  0.3248  0.3061
  0.3061  0.2684  0.2264

 Free energy of the ion-electron system (eV)
  ---------------------------------------------------
  alpha Z        PSCENC =      2015.86452450
  Ewald energy   TEWEN  =    125270.11727241
  -Hartree energ DENC   =   -175698.99211311
  -exchange      EXHF   =         0.00000000
  -V(xc)+E(xc)   XCENC  =       216.76211852
  PAW double counting   =     60447.81758255   -58850.84216916
  entropy T*S    EENTRO =         0.02438864
  eigenvalues    EBANDS =      -429.56939036
  atomic energy  EATOM  =     46663.39518770
  Solvation  Ediel_sol  =         0.00000000
  ---------------------------------------------------
  free energy    TOTEN  =      -365.42259832 eV

  energy without entropy =     -365.44698695  energy(sigma->0) =     -365.43072786


--------------------------------------------------------------------------------------------------------




--------------------------------------- Iteration      1(  19)  ---------------------------------------


    POTLOK:  cpu time    0.3550: real time    0.3561
    SETDIJ:  cpu time    0.0318: real time    0.0319
    EDDIAG:  cpu time    7.0678: real time    7.0868
  RMM-DIIS:  cpu time   25.4993: real time   25.5674
    ORTHCH:  cpu time    0.6495: real time    0.6514
       DOS:  cpu time    0.0016: real time    0.0016
    CHARGE:  cpu time    2.8853: real time    2.8930
    MIXING:  cpu time    0.0123: real time    0.0124
    --------------------------------------------
      LOOP:  cpu time   36.5027: real time   36.6006

 eigenvalue-minimisations  :  6754
 total energy-change (2. order) :-0.2977194E+00  (-0.1211387E-01)
 number of electron     640.0000098 magnetization      17.7508515
 augmentation part      197.0134827 magnetization       9.6066294

 Broyden mixing:
  rms(total) = 0.23109E+00    rms(broyden)= 0.23109E+00
  rms(prec ) = 0.25234E+00
  weight for this iteration     100.00

 eigenvalues of (default mixing * dielectric matrix)
  average eigenvalue GAMMA=   0.9211
  4.1665  2.2817  1.2598  1.2598  0.7039  0.7039  0.6686  0.1084  0.3784  0.3092
  0.3092  0.2803  0.2330  0.2330

 Free energy of the ion-electron system (eV)
  ---------------------------------------------------
  alpha Z        PSCENC =      2015.86452450
  Ewald energy   TEWEN  =    125270.11727241
  -Hartree energ DENC   =   -175690.51903023
  -exchange      EXHF   =         0.00000000
  -V(xc)+E(xc)   XCENC  =       216.41572184
  PAW double counting   =     60461.22680451   -58864.42079873
  entropy T*S    EENTRO =         0.02150201
  eigenvalues    EBANDS =      -437.82150173
  atomic energy  EATOM  =     46663.39518770
  Solvation  Ediel_sol  =         0.00000000
  ---------------------------------------------------
  free energy    TOTEN  =      -365.72031772 eV

  energy without entropy =     -365.74181973  energy(sigma->0) =     -365.72748506


--------------------------------------------------------------------------------------------------------




--------------------------------------- Iteration      1(  20)  ---------------------------------------


    POTLOK:  cpu time    0.3550: real time    0.3558
    SETDIJ:  cpu time    0.0322: real time    0.0322
    EDDIAG:  cpu time    7.1667: real time    7.1860
  RMM-DIIS:  cpu time   25.5511: real time   25.6195
    ORTHCH:  cpu time    0.6482: real time    0.6501
       DOS:  cpu time    0.0018: real time    0.0018
    CHARGE:  cpu time    2.9186: real time    2.9263
    MIXING:  cpu time    0.0145: real time    0.0146
    --------------------------------------------
      LOOP:  cpu time   36.6881: real time   36.7864

 eigenvalue-minimisations  :  6744
 total energy-change (2. order) :-0.1821811E+00  (-0.1006506E-01)
 number of electron     640.0000098 magnetization      16.2213846
 augmentation part      197.0778593 magnetization       8.2458986

 Broyden mixing:
  rms(total) = 0.16450E+00    rms(broyden)= 0.16450E+00
  rms(prec ) = 0.18472E+00
  weight for this iteration     100.00

 eigenvalues of (default mixing * dielectric matrix)
  average eigenvalue GAMMA=   1.0221
  5.4535  2.1753  1.4885  1.4885  0.8423  0.7711  0.7711  0.5461  0.1084  0.3472
  0.3096  0.3096  0.2734  0.2292  0.2179

 Free energy of the ion-electron system (eV)
  ---------------------------------------------------
  alpha Z        PSCENC =      2015.86452450
  Ewald energy   TEWEN  =    125270.11727241
  -Hartree energ DENC   =   -175675.82167732
  -exchange      EXHF   =         0.00000000
  -V(xc)+E(xc)   XCENC  =       216.06409197
  PAW double counting   =     60486.67024077   -58890.25940589
  entropy T*S    EENTRO =         0.00975161
  eigenvalues    EBANDS =      -451.94248458
  atomic energy  EATOM  =     46663.39518770
  Solvation  Ediel_sol  =         0.00000000
  ---------------------------------------------------
  free energy    TOTEN  =      -365.90249883 eV

  energy without entropy =     -365.91225044  energy(sigma->0) =     -365.90574937


--------------------------------------------------------------------------------------------------------




--------------------------------------- Iteration      1(  21)  ---------------------------------------


    POTLOK:  cpu time    0.3652: real time    0.3661
    SETDIJ:  cpu time    0.0326: real time    0.0326
    EDDIAG:  cpu time    7.0555: real time    7.0745
  RMM-DIIS:  cpu time   25.5710: real time   25.6393
    ORTHCH:  cpu time    0.6467: real time    0.6482
       DOS:  cpu time    0.0018: real time    0.0018
    CHARGE:  cpu time    2.8692: real time    2.8768
    MIXING:  cpu time    0.0127: real time    0.0128
    --------------------------------------------
      LOOP:  cpu time   36.5546: real time   36.6520

 eigenvalue-minimisations  :  6758
 total energy-change (2. order) :-0.7993996E-01  (-0.6671831E-02)
 number of electron     640.0000098 magnetization      15.4056671
 augmentation part      197.1254588 magnetization       7.7343880

 Broyden mixing:
  rms(total) = 0.13055E+00    rms(broyden)= 0.13055E+00
  rms(prec ) = 0.14351E+00
  weight for this iteration     100.00

 eigenvalues of (default mixing * dielectric matrix)
  average eigenvalue GAMMA=   1.0490
  6.1812  2.1705  1.6479  1.6479  0.8065  0.8065  0.8230  0.5284  0.1084  0.4120
  0.3148  0.3148  0.3017  0.2752  0.2288  0.2163

 Free energy of the ion-electron system (eV)
  ---------------------------------------------------
  alpha Z        PSCENC =      2015.86452450
  Ewald energy   TEWEN  =    125270.11727241
  -Hartree energ DENC   =   -175660.98121696
  -exchange      EXHF   =         0.00000000
  -V(xc)+E(xc)   XCENC  =       215.84309183
  PAW double counting   =     60490.25327828   -58893.86085886
  entropy T*S    EENTRO =        -0.00594501
  eigenvalues    EBANDS =      -466.60777268
  atomic energy  EATOM  =     46663.39518770
  Solvation  Ediel_sol  =         0.00000000
  ---------------------------------------------------
  free energy    TOTEN  =      -365.98243879 eV

  energy without entropy =     -365.97649378  energy(sigma->0) =     -365.98045712


--------------------------------------------------------------------------------------------------------




--------------------------------------- Iteration      1(  22)  ---------------------------------------


    POTLOK:  cpu time    0.3536: real time    0.3547
    SETDIJ:  cpu time    0.0326: real time    0.0327
    EDDIAG:  cpu time    7.0638: real time    7.0828
  RMM-DIIS:  cpu time   25.6249: real time   25.6932
    ORTHCH:  cpu time    0.6463: real time    0.6481
       DOS:  cpu time    0.0017: real time    0.0017
    CHARGE:  cpu time    2.8980: real time    2.9057
    MIXING:  cpu time    0.0144: real time    0.0144
    --------------------------------------------
      LOOP:  cpu time   36.6353: real time   36.7333

 eigenvalue-minimisations  :  6761
 total energy-change (2. order) :-0.2741879E-01  (-0.1846065E-02)
 number of electron     640.0000098 magnetization      14.9573922
 augmentation part      197.1361164 magnetization       7.4216119

 Broyden mixing:
  rms(total) = 0.86692E-01    rms(broyden)= 0.86692E-01
  rms(prec ) = 0.92372E-01
  weight for this iteration     100.00

 eigenvalues of (default mixing * dielectric matrix)
  average eigenvalue GAMMA=   1.0585
  6.6297  2.1092  1.7368  1.7368  0.9228  0.9228  0.6341  0.6116  0.6116  0.1084
  0.3347  0.3135  0.3135  0.2919  0.2727  0.2280  0.2155

 Free energy of the ion-electron system (eV)
  ---------------------------------------------------
  alpha Z        PSCENC =      2015.86452450
  Ewald energy   TEWEN  =    125270.11727241
  -Hartree energ DENC   =   -175654.20861602
  -exchange      EXHF   =         0.00000000
  -V(xc)+E(xc)   XCENC  =       215.74639273
  PAW double counting   =     60492.55529695   -58896.10335146
  entropy T*S    EENTRO =        -0.01082988
  eigenvalues    EBANDS =      -473.36573452
  atomic energy  EATOM  =     46663.39518770
  Solvation  Ediel_sol  =         0.00000000
  ---------------------------------------------------
  free energy    TOTEN  =      -366.00985758 eV

  energy without entropy =     -365.99902771  energy(sigma->0) =     -366.00624762


--------------------------------------------------------------------------------------------------------




--------------------------------------- Iteration      1(  23)  ---------------------------------------


    POTLOK:  cpu time    0.3541: real time    0.3550
    SETDIJ:  cpu time    0.0327: real time    0.0327
    EDDIAG:  cpu time    7.0669: real time    7.0858
  RMM-DIIS:  cpu time   25.5677: real time   25.6360
    ORTHCH:  cpu time    0.6474: real time    0.6492
       DOS:  cpu time    0.0018: real time    0.0018
    CHARGE:  cpu time    2.8662: real time    2.8738
    MIXING:  cpu time    0.0138: real time    0.0139
    --------------------------------------------
      LOOP:  cpu time   36.5507: real time   36.6484

 eigenvalue-minimisations  :  6763
 total energy-change (2. order) :-0.4532328E-01  (-0.7178216E-03)
 number of electron     640.0000098 magnetization      14.4164837
 augmentation part      197.1342661 magnetization       7.0041241

 Broyden mixing:
  rms(total) = 0.63360E-01    rms(broyden)= 0.63360E-01
  rms(prec ) = 0.69104E-01
  weight for this iteration     100.00

 eigenvalues of (default mixing * dielectric matrix)
  average eigenvalue GAMMA=   1.0781
  7.1482  1.9276  1.9276  1.8953  1.0362  1.0362  0.6788  0.6788  0.6149  0.1084
  0.4156  0.3385  0.3122  0.3122  0.2665  0.2665  0.2274  0.2147

 Free energy of the ion-electron system (eV)
  ---------------------------------------------------
  alpha Z        PSCENC =      2015.86452450
  Ewald energy   TEWEN  =    125270.11727241
  -Hartree energ DENC   =   -175648.81603633
  -exchange      EXHF   =         0.00000000
  -V(xc)+E(xc)   XCENC  =       215.65371043
  PAW double counting   =     60499.36786750   -58902.84976817
  entropy T*S    EENTRO =        -0.01243424
  eigenvalues    EBANDS =      -478.77550467
  atomic energy  EATOM  =     46663.39518770
  Solvation  Ediel_sol  =         0.00000000
  ---------------------------------------------------
  free energy    TOTEN  =      -366.05518086 eV

  energy without entropy =     -366.04274662  energy(sigma->0) =     -366.05103612


--------------------------------------------------------------------------------------------------------




--------------------------------------- Iteration      1(  24)  ---------------------------------------


[...]
  0.000  -0.000  -0.000  -0.000  -0.000  -0.000   0.000  -0.000   0.000  -0.000   0.000  -0.000   0.000  -0.000   0.000  -0.000
 -0.000  -0.000   0.000   0.000  -0.000   0.000   0.000   0.000  -0.000   0.000  -0.000   0.000   0.000   0.000   0.000  -0.000


------------------------ aborting loop because EDIFF is reached ----------------------------------------


    CHARGE:  cpu time    2.8793: real time    2.8871
    FORLOC:  cpu time    0.0635: real time    0.0636
    FORNL :  cpu time   11.3768: real time   11.4073
    STRESS:  cpu time   34.0293: real time   34.1195
    FORCOR:  cpu time    0.3846: real time    0.3855
    FORHAR:  cpu time    0.0963: real time    0.0965
    MIXING:  cpu time    0.0103: real time    0.0103
    OFIELD:  cpu time    0.0001: real time    0.0001

 ---------------------------------------------------------------------------------------------

         DFTD3 V3.0 Rev 1        
 Edisp (eV)  -38.63654

 E6    (eV) :   -14.2372
 E8    (eV) :   -24.3993
 % E8        : 63.15
    FORVDW:  cpu time    0.2967: real time    0.2986

  FORCE on cell =-STRESS in cart. coord.  units (eV):
  Direction    XX          YY          ZZ          XY          YZ          ZX
  --------------------------------------------------------------------------------------
  Alpha Z  2015.86452  2015.86452  2015.86452
  Ewald  162633.25146162631.92155************     0.02624    -0.67850    -0.02690
  Hartree173517.05803173516.68305************     0.00738    -0.13818    -0.00549
  E(xc)   -2855.78511 -2855.79710 -2881.49931     0.00024    -0.00806    -0.00032
  Local  ************************358283.65021    -0.02700     0.55423     0.02204
  n-local   577.78072   577.66187   312.10941     0.00184    -0.00037    -0.00016
  augment  3252.29775  3252.45174  3534.81682    -0.00344     0.09856     0.00387
  Kinetic  9148.26812  9148.61806  9744.05953    -0.00704     0.20908     0.00833
  Fock        0.00000     0.00000     0.00000     0.00000     0.00000     0.00000
  vdW       -53.50229   -53.48141   -28.75615    -0.00040    -0.00368    -0.00014
  -------------------------------------------------------------------------------------
  Total      80.88514    80.96709    -1.90290    -0.00219     0.03307     0.00123
  in kB      67.09510    67.16308    -1.57848    -0.00181     0.02744     0.00102
  external pressure =       44.23 kB  Pullay stress =        0.00 kB


 VOLUME and BASIS-vectors are now :
 -----------------------------------------------------------------------------
  energy-cutoff  :      550.00
  volume of cell :     1931.47
      direct lattice vectors                 reciprocal lattice vectors
    10.560000420  0.000000000  0.000000000     0.094696966  0.054673319  0.000000000
    -5.280000210  9.145228627  0.000000000     0.000000000  0.109346638  0.000000000
     0.000000000  0.000000000 20.000000000     0.000000000  0.000000000  0.050000000

  length of vectors
    10.560000420 10.560000420 20.000000000     0.109346638  0.109346638  0.050000000


 FORCES acting on ions
    electron-ion (+dipol)            ewald-force                    non-local-force                 convergence-correction
 -----------------------------------------------------------------------------------------------
   -.922E+00 -.386E+01 0.231E+04   0.933E+00 0.386E+01 -.231E+04   0.152E-02 0.237E-01 -.115E+00   0.467E-02 -.278E-02 0.190E-01
   0.261E+01 -.485E+01 0.774E+03   -.265E+01 0.491E+01 -.774E+03   0.414E-01 -.703E-01 -.417E+00   -.380E-02 0.526E-02 0.239E-01
   -.591E+00 -.293E+00 -.805E+03   0.599E+00 0.296E+00 0.805E+03   0.985E-02 0.683E-02 0.260E+00   -.265E-02 -.128E-02 -.274E-01
   0.157E+01 0.527E+01 -.230E+04   -.153E+01 -.520E+01 0.230E+04   -.364E-01 -.407E-01 0.868E-01   -.695E-02 -.121E-01 -.184E-01
   -.405E+01 -.232E+01 0.231E+04   0.410E+01 0.235E+01 -.231E+04   -.145E-01 -.773E-02 -.726E-01   0.607E-02 0.317E-02 0.183E-01
   -.210E-02 -.185E-01 0.750E+03   0.212E-02 0.165E-01 -.750E+03   -.118E-03 0.378E-02 -.662E+00   0.369E-04 -.143E-03 0.334E-01
   0.818E-02 -.258E+00 -.781E+03   -.842E-02 0.306E+00 0.781E+03   -.231E-03 -.374E-01 0.395E+00   0.248E-03 -.814E-03 -.293E-01
   0.686E+01 0.389E+01 -.230E+04   -.675E+01 -.383E+01 0.230E+04   -.738E-01 -.412E-01 0.873E-01   -.198E-01 -.962E-02 -.567E-01
   -.233E-02 -.558E+01 0.230E+04   0.234E-02 0.561E+01 -.230E+04   -.152E-04 0.240E-01 -.228E-01   -.361E-04 0.284E-03 0.190E-01
   -.550E+01 0.157E+00 0.775E+03   0.557E+01 -.151E+00 -.774E+03   -.834E-01 0.251E-02 -.415E+00   0.692E-02 -.196E-04 0.242E-01
   0.281E+00 0.963E+00 -.769E+03   -.285E+00 -.972E+00 0.769E+03   0.365E-02 -.441E-02 0.419E+00   0.267E-02 0.463E-02 -.171E-01
   0.993E-03 0.722E+01 -.233E+04   -.113E-02 -.715E+01 0.233E+04   0.233E-03 -.538E-01 0.164E+00   0.191E-03 -.689E-02 0.184E-01
   0.920E+00 -.386E+01 0.231E+04   -.931E+00 0.386E+01 -.231E+04   -.157E-02 0.237E-01 -.115E+00   -.473E-02 -.280E-02 0.190E-01
   -.261E+01 -.484E+01 0.774E+03   0.265E+01 0.490E+01 -.774E+03   -.411E-01 -.706E-01 -.417E+00   0.378E-02 0.531E-02 0.238E-01
   0.591E+00 -.301E+00 -.805E+03   -.599E+00 0.304E+00 0.805E+03   -.990E-02 0.711E-02 0.260E+00   0.253E-02 -.136E-02 -.274E-01
   -.156E+01 0.527E+01 -.230E+04   0.152E+01 -.520E+01 0.230E+04   0.364E-01 -.409E-01 0.869E-01   0.688E-02 -.120E-01 -.185E-01
   -.652E-01 -.410E-01 0.231E+04   0.608E-01 0.375E-01 -.231E+04   0.108E-01 0.673E-02 -.142E+00   -.688E-02 -.374E-02 0.154E-01
   -.138E+01 -.772E+00 0.782E+03   0.139E+01 0.775E+00 -.782E+03   -.236E-01 -.132E-01 -.381E+00   0.144E-01 0.810E-02 0.158E-01
   -.668E+00 -.706E+00 -.769E+03   0.675E+00 0.714E+00 0.769E+03   0.549E-02 0.463E-03 0.421E+00   -.262E-02 -.400E-02 -.166E-01
   0.114E+00 0.153E+00 -.231E+04   -.121E+00 -.154E+00 0.231E+04   0.377E-02 0.156E-02 0.103E+00   -.259E-02 -.267E-02 -.169E-01
   0.405E+01 -.232E+01 0.231E+04   -.410E+01 0.235E+01 -.231E+04   0.144E-01 -.772E-02 -.725E-01   -.605E-02 0.321E-02 0.183E-01
   -.320E-02 0.332E+00 0.788E+03   0.328E-02 -.327E+00 -.788E+03   0.151E-03 -.190E-01 -.342E+00   -.140E-03 0.930E-02 0.911E-02
   0.266E-02 0.192E-01 -.778E+03   -.270E-02 -.178E-01 0.778E+03   0.965E-04 0.141E-02 0.332E+00   -.587E-04 -.919E-03 0.201E-01
   -.686E+01 0.390E+01 -.230E+04   0.675E+01 -.383E+01 0.230E+04   0.739E-01 -.412E-01 0.872E-01   0.198E-01 -.969E-02 -.567E-01
   0.543E-03 0.865E-01 0.231E+04   -.603E-03 -.825E-01 -.231E+04   -.182E-04 -.114E-01 -.142E+00   0.253E-04 0.763E-02 0.153E-01
   0.551E+01 0.158E+00 0.775E+03   -.558E+01 -.152E+00 -.774E+03   0.833E-01 0.260E-02 -.415E+00   -.673E-02 -.521E-04 0.243E-01
   -.292E+00 0.961E+00 -.769E+03   0.296E+00 -.970E+00 0.769E+03   -.330E-02 -.414E-02 0.419E+00   -.284E-02 0.462E-02 -.171E-01
   0.174E-02 -.224E+00 -.231E+04   -.156E-02 0.230E+00 0.231E+04   -.107E-03 -.126E-02 0.104E+00   -.129E-03 0.463E-02 -.164E-01
   0.673E-01 -.419E-01 0.231E+04   -.630E-01 0.384E-01 -.231E+04   -.109E-01 0.677E-02 -.142E+00   0.694E-02 -.373E-02 0.154E-01
   0.138E+01 -.775E+00 0.782E+03   -.139E+01 0.778E+00 -.782E+03   0.238E-01 -.129E-01 -.381E+00   -.145E-01 0.835E-02 0.159E-01
   0.666E+00 -.714E+00 -.769E+03   -.673E+00 0.722E+00 0.769E+03   -.521E-02 0.752E-03 0.421E+00   0.257E-02 -.406E-02 -.165E-01
   -.123E+00 0.160E+00 -.231E+04   0.130E+00 -.161E+00 0.231E+04   -.321E-02 0.113E-02 0.103E+00   0.251E-02 -.271E-02 -.169E-01
   -.380E+01 0.112E+01 0.231E+04   0.380E+01 -.111E+01 -.231E+04   0.212E-01 -.946E-02 -.115E+00   -.218E-03 0.536E-02 0.186E-01
   -.290E+01 0.464E+01 0.775E+03   0.293E+01 -.471E+01 -.774E+03   -.414E-01 0.735E-01 -.416E+00   0.314E-02 -.621E-02 0.239E-01
   -.559E+00 -.257E+00 -.766E+03   0.586E+00 0.275E+00 0.766E+03   -.129E-01 -.890E-02 0.394E+00   -.974E-02 -.598E-02 -.547E-02
   0.523E+01 -.122E+01 -.230E+04   -.516E+01 0.122E+01 0.230E+04   -.540E-01 -.121E-01 0.880E-01   -.128E-01 -.102E-02 -.194E-01
   -.232E-03 -.133E-01 0.231E+04   0.244E-03 0.115E-01 -.231E+04   -.525E-04 0.101E-02 -.116E+00   -.137E-04 0.317E-03 0.191E-01
   -.303E+00 -.198E+00 0.788E+03   0.299E+00 0.194E+00 -.787E+03   0.172E-01 0.115E-01 -.344E+00   -.874E-02 -.444E-02 0.818E-02
   -.187E+00 0.769E-01 -.780E+03   0.228E+00 -.985E-01 0.780E+03   -.331E-01 0.185E-01 0.397E+00   -.120E-02 0.326E-03 -.282E-01
   -.455E-02 -.590E-01 -.229E+04   0.439E-02 0.597E-01 0.229E+04   0.312E-03 0.264E-02 0.882E-01   0.163E-03 0.293E-03 -.399E-01
   -.287E+01 0.271E+01 0.231E+04   0.287E+01 -.272E+01 -.231E+04   0.193E-01 -.123E-01 -.115E+00   -.498E-02 -.230E-02 0.188E-01
   -.207E-02 -.294E+01 0.783E+03   0.196E-02 0.297E+01 -.783E+03   0.224E-04 -.209E-01 -.329E+00   0.480E-04 -.110E-02 0.176E-01
   -.386E-02 0.587E+00 -.805E+03   0.410E-02 -.595E+00 0.805E+03   0.645E-04 -.113E-01 0.259E+00   -.901E-04 0.289E-02 -.266E-01
   0.371E+01 -.390E+01 -.230E+04   -.367E+01 0.384E+01 0.231E+04   -.192E-01 0.536E-01 0.884E-01   -.517E-02 0.973E-02 -.190E-01
   -.485E+01 0.280E+01 0.230E+04   0.487E+01 -.281E+01 -.230E+04   0.205E-01 -.111E-01 -.224E-01   0.530E-03 -.506E-03 0.189E-01
   -.253E+01 0.144E+01 0.783E+03   0.256E+01 -.146E+01 -.783E+03   -.183E-01 0.118E-01 -.330E+00   -.137E-02 0.121E-02 0.178E-01
   0.942E+00 -.173E+00 -.769E+03   -.953E+00 0.177E+00 0.769E+03   -.674E-03 0.485E-02 0.421E+00   0.559E-02 -.349E-03 -.163E-01
   0.633E+01 -.371E+01 -.233E+04   -.626E+01 0.367E+01 0.233E+04   -.501E-01 0.308E-01 0.161E+00   -.726E-02 0.420E-02 0.172E-01
   0.485E+01 0.280E+01 0.230E+04   -.487E+01 -.281E+01 -.230E+04   -.205E-01 -.111E-01 -.224E-01   -.542E-03 -.472E-03 0.189E-01
   0.253E+01 0.144E+01 0.783E+03   -.256E+01 -.146E+01 -.783E+03   0.183E-01 0.119E-01 -.330E+00   0.132E-02 0.118E-02 0.179E-01
   -.941E+00 -.168E+00 -.769E+03   0.953E+00 0.172E+00 0.769E+03   0.710E-03 0.459E-02 0.421E+00   -.559E-02 -.220E-03 -.165E-01
   -.632E+01 -.371E+01 -.233E+04   0.625E+01 0.368E+01 0.233E+04   0.500E-01 0.309E-01 0.161E+00   0.712E-02 0.408E-02 0.173E-01
   0.880E-04 0.465E+01 0.231E+04   -.163E-03 -.471E+01 -.231E+04   -.416E-04 0.176E-01 -.729E-01   0.295E-04 -.677E-02 0.182E-01
   0.301E+00 -.199E+00 0.788E+03   -.297E+00 0.195E+00 -.788E+03   -.170E-01 0.116E-01 -.344E+00   0.861E-02 -.446E-02 0.819E-02
   0.198E+00 0.778E-01 -.780E+03   -.239E+00 -.994E-01 0.780E+03   0.329E-01 0.184E-01 0.397E+00   0.141E-02 0.270E-03 -.283E-01
   0.754E-03 -.783E+01 -.230E+04   -.568E-03 0.770E+01 0.230E+04   -.493E-03 0.795E-01 0.865E-01   -.310E-04 0.230E-01 -.564E-01
   0.287E+01 0.271E+01 0.231E+04   -.287E+01 -.272E+01 -.231E+04   -.194E-01 -.123E-01 -.115E+00   0.496E-02 -.225E-02 0.188E-01
   -.386E-03 0.157E+01 0.782E+03   0.214E-03 -.158E+01 -.782E+03   0.160E-03 0.285E-01 -.380E+00   0.866E-04 -.159E-01 0.161E-01
   -.239E-02 0.601E+00 -.766E+03   0.257E-02 -.631E+00 0.765E+03   -.494E-05 0.161E-01 0.391E+00   -.878E-04 0.103E-01 -.464E-02
   -.370E+01 -.391E+01 -.230E+04   0.366E+01 0.385E+01 0.230E+04   0.189E-01 0.537E-01 0.883E-01   0.511E-02 0.983E-02 -.190E-01
   0.380E+01 0.112E+01 0.231E+04   -.381E+01 -.111E+01 -.231E+04   -.213E-01 -.947E-02 -.115E+00   0.228E-03 0.537E-02 0.186E-01
   0.290E+01 0.465E+01 0.775E+03   -.293E+01 -.472E+01 -.774E+03   0.422E-01 0.733E-01 -.416E+00   -.314E-02 -.610E-02 0.239E-01
   0.562E+00 -.263E+00 -.766E+03   -.589E+00 0.281E+00 0.766E+03   0.127E-01 -.883E-02 0.394E+00   0.975E-02 -.618E-02 -.548E-02
   -.524E+01 -.122E+01 -.230E+04   0.517E+01 0.122E+01 0.230E+04   0.543E-01 -.119E-01 0.880E-01   0.128E-01 -.115E-02 -.194E-01
 -----------------------------------------------------------------------------------------------
   0.444E-03 0.502E-02 0.119E+00   -.517E-12 0.487E-12 -.182E-11   0.191E-02 0.498E-01 -.163E+00   -.319E-03 -.393E-02 0.987E-02
 
 
 POSITION                                       TOTAL-FORCE (eV/Angst)
 -----------------------------------------------------------------------------------
     10.55998      0.00001      1.11585         0.018210      0.017053     -0.023913
      2.63839      1.52894      3.56403        -0.009266     -0.005764     -0.020450
      0.00180      3.05101      6.01003         0.019633      0.010625     -0.039948
      0.00057      0.00181      8.38261        -0.006202      0.011066     -0.005136
      9.23998      2.28632      1.11585         0.045961      0.025386      0.035317
      1.31999      3.81054      3.61250        -0.000078      0.000843     -0.048616
      1.32005      0.76931      5.96284        -0.000251      0.004273      0.005699
     -1.32162      2.28761      8.38304         0.022029      0.014163      0.022104
      1.31998      2.28632      1.11585        -0.000067      0.050830      0.103951
     -1.31518      3.80978      3.56386        -0.000653      0.010676     -0.021250
      3.96011      0.76436      5.94193        -0.002260     -0.008454      0.012168
      1.32004      2.28730      8.45701         0.000250      0.009490     -0.006359
      2.63998      0.00001      1.11585        -0.018411      0.017034     -0.023866
      0.00158      1.52895      3.56401         0.009456     -0.006085     -0.020248
      2.63826      3.05102      6.01004        -0.019772      0.011015     -0.039554
      2.63954      0.00182      8.38260         0.006349      0.010997     -0.005010
      5.27998      0.00001      1.11585        -0.001994     -0.002118     -0.020164
      7.92039      1.52472      3.54793         0.002019     -0.000059      0.001367
      5.27968      3.04979      5.94162         0.006383      0.007442      0.013024
      5.27922      0.00196      8.38330        -0.006477     -0.003255      0.001045
      3.95998      2.28632      1.11585        -0.046172      0.025394      0.035377
      6.59997      3.81118      3.53703         0.000069     -0.004277      0.021447
      6.60002      0.76381      5.95588        -0.000040      0.001096     -0.048924
      3.96173      2.28762      8.38311        -0.021942      0.014277      0.021900
      6.59998      2.28632      1.11585        -0.000085      0.001096     -0.020797
      3.95516      3.80978      3.56389         0.000389      0.010774     -0.021535
      9.23995      0.76434      5.94190         0.002693     -0.008293      0.012197
      6.60006      2.28950      8.38357        -0.000086      0.009825      0.001130
      7.91998      0.00001      1.11585         0.001790     -0.002088     -0.020152
      5.27957      1.52471      3.54793        -0.001901      0.000122      0.001261
      7.92037      3.04977      5.94161        -0.006151      0.007748      0.012949
      7.92088      0.00198      8.38329         0.006913     -0.003608      0.001013
      7.91998      4.57263      1.11585         0.024630      0.005899     -0.024226
      0.00318      6.09328      3.56386        -0.009357     -0.005493     -0.020155
     -2.63826      7.62382      5.93610         0.003063      0.000984     -0.009633
     -2.63994      4.57553      8.38219         0.005693     -0.011686     -0.003953
      6.59998      6.85894      1.11585        -0.000085     -0.001270     -0.038915
     -1.32031      8.38316      3.53714         0.002906      0.001866      0.020871
     -1.31520      5.33373      5.96215         0.002506     -0.001266      0.006794
     -3.95995      6.86085      8.35040         0.000284      0.002725      0.033508
     -1.32002      6.85894      1.11585         0.006232     -0.026097     -0.024450
     -3.96003      8.38571      3.54339        -0.000069      0.010721     -0.007004
      1.32005      5.33437      6.00965         0.000173     -0.022286     -0.039955
     -1.32039      6.86087      8.38314         0.011240      0.003923     -0.005341
     -0.00002      4.57263      1.11585         0.044901     -0.027262      0.104163
     -2.63804      6.09596      3.54337         0.009789     -0.006030     -0.006869
      0.00040      7.62262      5.94171        -0.008333      0.002293      0.013532
     -0.00076      4.57536      8.45490         0.005667     -0.001975     -0.005723
      2.63998      4.57263      1.11585        -0.045058     -0.027286      0.104201
      5.27798      6.09596      3.54337        -0.009890     -0.005955     -0.006943
      2.63969      7.62264      5.94170         0.008353      0.002029      0.013478
      2.64089      4.57536      8.45498        -0.005591     -0.002007     -0.005681
      1.31998      6.85894      1.11585        -0.000121     -0.054201      0.035404
      3.96025      8.38316      3.53712        -0.002935      0.001924      0.020798
      3.95530      5.33375      5.96217        -0.002777     -0.001323      0.006756
      1.32008      6.86335      8.38276        -0.000369     -0.028113      0.021151
      3.95998      6.85894      1.11585        -0.006435     -0.026127     -0.024438
      1.31997      8.38285      3.54796         0.000041     -0.002479      0.001617
      6.60005      5.33448      5.93603         0.000056     -0.002539     -0.011759
      3.96055      6.86087      8.38309        -0.011418      0.004070     -0.005368
      5.27998      4.57263      1.11585        -0.024834      0.005906     -0.024216
      2.63675      6.09328      3.56386         0.009901     -0.005658     -0.020217
      5.27838      7.62381      5.93604        -0.003109      0.001168     -0.009531
      5.28005      4.57551      8.38219        -0.005390     -0.011680     -0.003921
 -----------------------------------------------------------------------------------
    total drift:                                0.002031      0.050908     -0.033932


--------------------------------------------------------------------------------------------------------



  FREE ENERGIE OF THE ION-ELECTRON SYSTEM (eV)
  ---------------------------------------------------
  free  energy   TOTEN  =      -405.07985882 eV

  energy  without entropy=     -405.06039961  energy(sigma->0) =     -405.07337242
 
 d Force = 0.1404968E-02[ 0.111E-02, 0.170E-02]  d Energy = 0.1427759E-02-0.228E-04
 d Force =-0.1783013E+01[-0.177E+01,-0.180E+01]  d Ewald  =-0.1783021E+01 0.816E-05


--------------------------------------------------------------------------------------------------------


    POTLOK:  cpu time    0.3832: real time    0.3842


--------------------------------------------------------------------------------------------------------


 Conjugate gradient step on ions:
 trial-energy change:   -0.001428  1 .order   -0.001405   -0.001702   -0.001108
  (g-gl).g = 0.227E-02      g.g   = 0.246E-02  gl.gl    = 0.732E-02
 g(Force)  = 0.246E-02   g(Stress)= 0.000E+00 ortho     =-0.193E-03
 gamma     =   0.30986
 trial     =   0.70789
 opt step  =   2.02728  (harmonic =   2.02728) maximal distance =0.01044797
 next E    =  -405.080868   (d E  =  -0.00244)


--------------------------------------------------------------------------------------------------------


  
 reached required accuracy - stopping structural energy minimisation
     LOOP+:  cpu time  359.7914: real time  360.7614
    4ORBIT:  cpu time    0.0000: real time    0.0000

 total amount of memory used by VASP MPI-rank0   198142. kBytes
=======================================================================

   base      :      30000. kBytes
   nonlr-proj:      30733. kBytes
   fftplans  :      17093. kBytes
   grid      :      42083. kBytes
   one-center:        497. kBytes
   wavefun   :      77736. kBytes
 
  
  
 General timing and accounting informations for this job:
 ========================================================
  
                  Total CPU time used (sec):     5862.145
                            User time (sec):     5854.251
                          System time (sec):        7.893
                         Elapsed time (sec):     5879.417
  
                   Maximum memory used (kb):      659852.
                   Average memory used (kb):           0.
  
                          Minor page faults:      1961447
                          Major page faults:            0
                 Voluntary context switches:         7056
