 vasp.5.4.4.18Apr17-6-g9f103f2a35 (build Nov 30 2020 22:55:02) complex          
  
 executed on             LinuxIFC date 2023.07.28  22:34:36
 running on   40 total cores
 distrk:  each k-point on   40 cores,    1 groups
 distr:  one band on NCORES_PER_BAND=   4 cores,   10 groups


--------------------------------------------------------------------------------------------------------


 INCAR:
 POTCAR:    PAW_PBE Pt 04Feb2005                  
 POTCAR:    PAW_PBE H 15Jun2001                   
 POTCAR:    PAW_PBE Pt 04Feb2005                  
   VRHFIN =Pt: s1d9                                                             
   LEXCH  = PE                                                                  
   EATOM  =   729.1176 eV,   53.5886 Ry                                         
                                                                                
   TITEL  = PAW_PBE Pt 04Feb2005                                                
   LULTRA =        F    use ultrasoft PP ?                                      
   IUNSCR =        1    unscreen: 0-lin 1-nonlin 2-no                           
   RPACOR =    2.330    partial core radius                                     
   POMASS =  195.080; ZVAL   =   10.000    mass and valenz                      
   RCORE  =    2.600    outmost cutoff radius                                   
   RWIGS  =    2.750; RWIGS  =    1.455    wigner-seitz radius (au A)           
   ENMAX  =  230.283; ENMIN  =  172.712 eV                                      
   ICORE  =        3    local potential                                         
   LCOR   =        T    correct aug charges                                     
   LPAW   =        T    paw PP                                                  
   EAUG   =  358.966                                                            
   DEXC   =    0.000                                                            
   RMAX   =    2.658    core radius for proj-oper                               
   RAUG   =    1.300    factor for augmentation sphere                          
   RDEP   =    2.761    radius for radial grids                                 
   RDEPT  =    2.203    core radius for aug-charge                              
                                                                                
   Atomic configuration                                                         
   16 entries                                                                   
     n  l   j            E        occ.                                          
     1  0  0.50    -78401.1885   2.0000                                         
     2  0  0.50    -13770.7750   2.0000                                         
     2  1  1.50    -11931.0468   6.0000                                         
     3  0  0.50     -3234.7234   2.0000                                         
     3  1  1.50     -2699.2216   6.0000                                         
     3  2  2.50     -2119.5714  10.0000                                         
     4  0  0.50      -695.1528   2.0000                                         
     4  1  1.50      -519.6034   6.0000                                         
     4  2  2.50      -306.6786  10.0000                                         
     4  3  3.50       -70.1041  14.0000                                         
     5  0  0.50      -101.7747   2.0000                                         
     5  1  1.50       -55.9873   6.0000                                         
     5  2  2.50        -6.1423   9.0000                                         
     6  0  0.50        -5.6573   1.0000                                         
     6  1  1.50        -6.8029   0.0000                                         
     5  3  2.50        -1.3606   0.0000                                         
   Description                                                                  
     l       E           TYP  RCUT    TYP  RCUT                                 
     2     -6.1423404     23  2.500                                             
     2     -7.5029230     23  2.500                                             
     0     -5.6573207     23  2.500                                             
     0      0.7416693     23  2.500                                             
     1     -2.7211652     23  2.600                                             
     1     20.4087390     23  2.600                                             
     3     -1.3605826     23  2.500                                             
  local pseudopotential read in
  partial core-charges read in
  partial kinetic energy density read in
  atomic valenz-charges read in
  non local Contribution for L=           2  read in
    real space projection operators read in
  non local Contribution for L=           2  read in
    real space projection operators read in
  non local Contribution for L=           0  read in
    real space projection operators read in
  non local Contribution for L=           0  read in
    real space projection operators read in
  non local Contribution for L=           1  read in
    real space projection operators read in
  non local Contribution for L=           1  read in
    real space projection operators read in
    PAW grid and wavefunctions read in
 
   number of l-projection  operators is LMAX  =           6
   number of lm-projection operators is LMMAX =          18
 
 POTCAR:    PAW_PBE H 15Jun2001                   
   VRHFIN =H: ultrasoft test                                                    
   LEXCH  = PE                                                                  
   EATOM  =    12.4884 eV,    0.9179 Ry                                         
                                                                                
   TITEL  = PAW_PBE H 15Jun2001                                                 
   LULTRA =        F    use ultrasoft PP ?                                      
   IUNSCR =        0    unscreen: 0-lin 1-nonlin 2-no                           
   RPACOR =    0.000    partial core radius                                     
   POMASS =    1.000; ZVAL   =    1.000    mass and valenz                      
   RCORE  =    1.100    outmost cutoff radius                                   
   RWIGS  =    0.700; RWIGS  =    0.370    wigner-seitz radius (au A)           
   ENMAX  =  250.000; ENMIN  =  200.000 eV                                      
   RCLOC  =    0.701    cutoff for local pot                                    
   LCOR   =        T    correct aug charges                                     
   LPAW   =        T    paw PP                                                  
   EAUG   =  400.000                                                            
   RMAX   =    1.123    core radius for proj-oper                               
   RAUG   =    1.200    factor for augmentation sphere                          
   RDEP   =    1.112    radius for radial grids                                 
   RDEPT  =    0.926    core radius for aug-charge                              
                                                                                
   Atomic configuration                                                         
    2 entries                                                                   
     n  l   j            E        occ.                                          
     1  0  0.50        -6.4927   1.0000                                         
     2  1  0.50        -3.4015   0.0000                                         
   Description                                                                  
     l       E           TYP  RCUT    TYP  RCUT                                 
     0     -6.4927494     23  1.100                                             
     0      6.8029130     23  1.100                                             
     1     -4.0817478     23  1.100                                             
  local pseudopotential read in
  atomic valenz-charges read in
  non local Contribution for L=           0  read in
    real space projection operators read in
  non local Contribution for L=           0  read in
    real space projection operators read in
  non local Contribution for L=           1  read in
    real space projection operators read in
    PAW grid and wavefunctions read in
 
   number of l-projection  operators is LMAX  =           3
   number of lm-projection operators is LMMAX =           5
 
 Optimization of the real space projectors (new method)

 maximal supplied QI-value         = 14.36
 optimisation between [QCUT,QGAM] = [ 11.92, 23.98] = [ 39.79,161.09] Ry 
 Optimized for a Real-space Cutoff    1.49 Angstroem

   l    n(q)    QCUT    max X(q) W(low)/X(q) W(high)/X(q)  e(spline) 
   2     10    11.920    66.195    0.79E-04    0.18E-03    0.24E-06
   2     10    11.920    64.643    0.81E-04    0.19E-03    0.24E-06
   0     11    11.920    95.520    0.28E-04    0.54E-04    0.18E-06
   0     11    11.920    63.403    0.27E-04    0.52E-04    0.17E-06
   1     10    11.920    19.961    0.18E-04    0.11E-03    0.23E-06
   1     10    11.920    13.289    0.25E-04    0.87E-04    0.19E-06
 Optimization of the real space projectors (new method)

 maximal supplied QI-value         = 34.20
 optimisation between [QCUT,QGAM] = [ 11.97, 23.94] = [ 40.13,160.53] Ry 
 Optimized for a Real-space Cutoff    1.18 Angstroem

   l    n(q)    QCUT    max X(q) W(low)/X(q) W(high)/X(q)  e(spline) 
   0      8    11.971    19.460    0.15E-03    0.31E-03    0.25E-06
   0      8    11.971    12.209    0.13E-03    0.29E-03    0.25E-06
   1      8    11.971     4.655    0.22E-03    0.24E-03    0.21E-06
  PAW_PBE Pt 04Feb2005                  :
 energy of atom  1       EATOM= -729.1176
 kinetic energy error for atom=    0.0021 (will be added to EATOM!!)
  PAW_PBE H 15Jun2001                   :
 energy of atom  2       EATOM=  -12.4884
 kinetic energy error for atom=    0.0008 (will be added to EATOM!!)
 
 
 POSCAR: Pt111\(1\1\1)\(2)                       
  positions in cartesian coordinates
  No initial velocities read in
 exchange correlation table for  LEXCH =        8
   RHO(1)=    0.500       N(1)  =     2000
   RHO(2)=  100.500       N(2)  =     4000
 


--------------------------------------------------------------------------------------------------------


 ion  position               nearest neighbor table
   1  1.000  0.000  0.056-   5 2.64   9 2.64  13 2.64  29 2.64  57 2.64  37 2.64  42 2.87  14 2.87
                            54 2.87
   2  0.333  0.167  0.178-  30 2.64  26 2.64  38 2.64  42 2.64  14 2.64   6 2.64  15 2.84   7 2.84
                            11 2.84   9 2.87  21 2.87  13 2.87
   3  0.167  0.333  0.297-  39 2.64  27 2.64  43 2.64   7 2.64  15 2.64  31 2.64  14 2.84   6 2.84
                            10 2.84  12 2.87   8 2.87  48 2.87
   4  0.000  1.000  0.419-   8 2.64  12 2.64  16 2.64  32 2.64  40 2.64  60 2.64  27 2.87   7 2.87
                            63 2.87
   5  1.000  0.250  0.056-   1 2.64  45 2.64  33 2.64   9 2.64  29 2.64  25 2.64  14 2.87  10 2.87
                            18 2.87
   6  0.333  0.417  0.178-  26 2.64  62 2.64  10 2.64  34 2.64  14 2.64   2 2.64  43 2.84   3 2.84
                            15 2.84  45 2.87  49 2.87   9 2.87
   7  0.167  0.083  0.297-  27 2.64  15 2.64   3 2.64  63 2.64  11 2.64  35 2.64  42 2.84   2 2.84
                            14 2.84  16 2.87   4 2.87  12 2.87
   8  0.000  0.250  0.419-   4 2.64  48 2.64  36 2.64  12 2.64  32 2.64  28 2.64  31 2.87   3 2.87
                            27 2.87
   9  0.250  0.250  0.056-  21 2.64  13 2.64   1 2.64  49 2.64  45 2.64   5 2.64   2 2.87  14 2.87
                             6 2.87
  10  0.083  0.417  0.178-  34 2.64   6 2.64  46 2.64  14 2.64  18 2.64  22 2.64  39 2.84  31 2.84
                             3 2.84  33 2.87  45 2.87   5 2.87
  11  0.417  0.083  0.297-  19 2.64  15 2.64   7 2.64  47 2.64  35 2.64  23 2.64  30 2.84  38 2.84
                             2 2.84  20 2.87  16 2.87  24 2.87
  12  0.250  0.250  0.419-  65 1.73  24 2.64  16 2.64   4 2.64  52 2.64  48 2.64   8 2.64   3 2.87
                            15 2.87   7 2.87
  13  0.250  0.000  0.056-  21 2.64   9 2.64  17 2.64   1 2.64  37 2.64  41 2.64  38 2.87   2 2.87
                            42 2.87
  14  0.083  0.167  0.178-  42 2.64  54 2.64   6 2.64   2 2.64  10 2.64  18 2.64  27 2.84   3 2.84
                             7 2.84   5 2.87   1 2.87   9 2.87
  15  0.417  0.333  0.297-  43 2.64   7 2.64   3 2.64  11 2.64  55 2.64  19 2.64  26 2.84   2 2.84
                             6 2.84  24 2.87  12 2.87  52 2.87
  16  0.250  1.000  0.419-  24 2.64  12 2.64  20 2.64   4 2.64  40 2.64  44 2.64   7 2.87  11 2.87
                            35 2.87
  17  0.500  0.000  0.056-  29 2.64  25 2.64  13 2.64  21 2.64  41 2.64  53 2.64  58 2.87  30 2.87
                            38 2.87
  18  0.833  0.167  0.178-  54 2.64  58 2.64  22 2.64  10 2.64  30 2.64  14 2.64  23 2.84  31 2.84
                            27 2.84  25 2.87  29 2.87   5 2.87
  19  0.667  0.333  0.297-  55 2.64  31 2.64  59 2.64  11 2.64  23 2.64  15 2.64  22 2.84  30 2.84
                            26 2.84  28 2.87  64 2.87  24 2.87
  20  0.500  1.000  0.419-  32 2.64  28 2.64  16 2.64  24 2.64  44 2.64  56 2.64  11 2.87  23 2.87
                            47 2.87
  21  0.500  0.250  0.056-  25 2.64  61 2.64   9 2.64  13 2.64  49 2.64  17 2.64  30 2.87   2 2.87
                            26 2.87
  22  0.833  0.417  0.178-  50 2.64  26 2.64  30 2.64  18 2.64  46 2.64  10 2.64  19 2.84  59 2.84
                            31 2.84  61 2.87  25 2.87  33 2.87
  23  0.667  0.083  0.297-  27 2.64  31 2.64  19 2.64  51 2.64  47 2.64  11 2.64  18 2.84  58 2.84
                            30 2.84  32 2.87  28 2.87  20 2.87
  24  0.500  0.250  0.419-  28 2.64  64 2.64  12 2.64  16 2.64  52 2.64  20 2.64  15 2.87  11 2.87
                            19 2.87
  25  0.750  0.250  0.056-  17 2.64  21 2.64  29 2.64  61 2.64  33 2.64   5 2.64  18 2.87  22 2.87
                            30 2.87
  26  0.583  0.417  0.178-   6 2.64   2 2.64  22 2.64  30 2.64  62 2.64  50 2.64  55 2.84  15 2.84
                            19 2.84  49 2.87  61 2.87  21 2.87
  27  0.917  0.083  0.297-  23 2.64   7 2.64   3 2.64  51 2.64  31 2.64  63 2.64  54 2.84  14 2.84
                            18 2.84   4 2.87   8 2.87  32 2.87
  28  0.750  0.250  0.419-  20 2.64  24 2.64  32 2.64  64 2.64  36 2.64   8 2.64  19 2.87  23 2.87
                            31 2.87
  29  0.750  0.000  0.056-  17 2.64  25 2.64   5 2.64  53 2.64   1 2.64  57 2.64  54 2.87  18 2.87
                            58 2.87
  30  0.583  0.167  0.178-   2 2.64  38 2.64  58 2.64  26 2.64  22 2.64  18 2.64  11 2.84  19 2.84
                            23 2.84  21 2.87  17 2.87  25 2.87
  31  0.917  0.333  0.297-  59 2.64  19 2.64  23 2.64  39 2.64   3 2.64  27 2.64  18 2.84  10 2.84
                            22 2.84   8 2.87  36 2.87  28 2.87
  32  0.750  1.000  0.419-  20 2.64  28 2.64   8 2.64  56 2.64   4 2.64  60 2.64  23 2.87  27 2.87
                            51 2.87
  33  1.000  0.500  0.056-  37 2.64  41 2.64   5 2.64  45 2.64  25 2.64  61 2.64  10 2.87  46 2.87
                            22 2.87
  34  0.333  0.667  0.178-  62 2.64  10 2.64  58 2.64  46 2.64   6 2.64  38 2.64  47 2.84  39 2.84
                            43 2.84  41 2.87  45 2.87  53 2.87
  35  0.167  0.833  0.297-  63 2.64  59 2.64   7 2.64  11 2.64  47 2.64  39 2.64  46 2.84  38 2.84
                            42 2.84  44 2.87  40 2.87  16 2.87
  36  0.000  0.500  0.419-  40 2.64  44 2.64   8 2.64  48 2.64  28 2.64  64 2.64  59 2.87  39 2.87
                            31 2.87
  37  1.000  0.750  0.056-  33 2.64  41 2.64  61 2.64  57 2.64  13 2.64   1 2.64  46 2.87  50 2.87
                            42 2.87
  38  0.333  0.917  0.178-  58 2.64  30 2.64   2 2.64  42 2.64  34 2.64  46 2.64  11 2.84  35 2.84
                            47 2.84  13 2.87  17 2.87  41 2.87
  39  0.167  0.583  0.297-   3 2.64  31 2.64  59 2.64  43 2.64  47 2.64  35 2.64  10 2.84  34 2.84
                            46 2.84  48 2.87  36 2.87  44 2.87
  40  0.000  0.750  0.419-  36 2.64  44 2.64  64 2.64  60 2.64  16 2.64   4 2.64  63 2.87  35 2.87
                            59 2.87
  41  0.250  0.750  0.056-  45 2.64  33 2.64  37 2.64  53 2.64  17 2.64  13 2.64  34 2.87  46 2.87
                            38 2.87
  42  0.083  0.917  0.178-  14 2.64   2 2.64  38 2.64  46 2.64  50 2.64  54 2.64   7 2.84  63 2.84
                            35 2.84   1 2.87  13 2.87  37 2.87
  43  0.417  0.583  0.297-  15 2.64   3 2.64  39 2.64  51 2.64  47 2.64  55 2.64  62 2.84   6 2.84
                            34 2.84  52 2.87  56 2.87  48 2.87
  44  0.250  0.750  0.419-  48 2.64  36 2.64  40 2.64  56 2.64  20 2.64  16 2.64  35 2.87  39 2.87
                            47 2.87
  45  0.250  0.500  0.056-  41 2.64  53 2.64   5 2.64   9 2.64  49 2.64  33 2.64   6 2.87  10 2.87
                            34 2.87
  46  0.083  0.667  0.178-  34 2.64  50 2.64  10 2.64  42 2.64  22 2.64  38 2.64  59 2.84  35 2.84
                            39 2.84  37 2.87  33 2.87  41 2.87
  47  0.417  0.833  0.297-  39 2.64  43 2.64  11 2.64  23 2.64  35 2.64  51 2.64  58 2.84  34 2.84
                            38 2.84  56 2.87  44 2.87  20 2.87
  48  0.250  0.500  0.419-  65 1.66  44 2.64  56 2.64   8 2.64  12 2.64  36 2.64  52 2.64  39 2.87
                             3 2.87  43 2.87
  49  0.500  0.500  0.056-  61 2.64  53 2.64  57 2.64  21 2.64   9 2.64  45 2.64  26 2.87   6 2.87
                            62 2.87
  50  0.833  0.667  0.178-  22 2.64  46 2.64  26 2.64  42 2.64  54 2.64  62 2.64  55 2.84  63 2.84
                            59 2.84  57 2.87  61 2.87  37 2.87
  51  0.667  0.833  0.297-  63 2.64  27 2.64  43 2.64  55 2.64  23 2.64  47 2.64  54 2.84  62 2.84
                            58 2.84  60 2.87  32 2.87  56 2.87
  52  0.500  0.500  0.419-  65 1.66  64 2.64  56 2.64  60 2.64  24 2.64  12 2.64  48 2.64  43 2.87
                            15 2.87  55 2.87
  53  0.500  0.750  0.056-  49 2.64  57 2.64  45 2.64  41 2.64  29 2.64  17 2.64  62 2.87  34 2.87
                            58 2.87
  54  0.833  0.917  0.178-  18 2.64  14 2.64  50 2.64  58 2.64  42 2.64  62 2.64  51 2.84  27 2.84
                            63 2.84  29 2.87   1 2.87  57 2.87
  55  0.667  0.583  0.297-  19 2.64  59 2.64  63 2.64  15 2.64  51 2.64  43 2.64  50 2.84  26 2.84
                            62 2.84  64 2.87  60 2.87  52 2.87
  56  0.500  0.750  0.419-  52 2.64  60 2.64  48 2.64  44 2.64  32 2.64  20 2.64  47 2.87  43 2.87
                            51 2.87
  57  0.750  0.750  0.056-  61 2.64  49 2.64  53 2.64  37 2.64   1 2.64  29 2.64  50 2.87  62 2.87
                            54 2.87
  58  0.583  0.917  0.178-  38 2.64  30 2.64  18 2.64  34 2.64  62 2.64  54 2.64  47 2.84  23 2.84
                            51 2.84  17 2.87  29 2.87  53 2.87
  59  0.917  0.583  0.297-  31 2.64  55 2.64  19 2.64  39 2.64  35 2.64  63 2.64  22 2.84  46 2.84
                            50 2.84  36 2.87  40 2.87  64 2.87
  60  0.750  0.750  0.419-  64 2.64  52 2.64  56 2.64  40 2.64   4 2.64  32 2.64  51 2.87  55 2.87
                            63 2.87
  61  0.750  0.500  0.056-  49 2.64  57 2.64  21 2.64  25 2.64  37 2.64  33 2.64  22 2.87  26 2.87
                            50 2.87
  62  0.583  0.667  0.178-  34 2.64   6 2.64  26 2.64  58 2.64  54 2.64  50 2.64  43 2.84  51 2.84
                            55 2.84  53 2.87  49 2.87  57 2.87
  63  0.917  0.833  0.297-  51 2.64  35 2.64  55 2.64   7 2.64  59 2.64  27 2.64  50 2.84  42 2.84
                            54 2.84  40 2.87   4 2.87  60 2.87
  64  0.750  0.500  0.419-  52 2.64  60 2.64  24 2.64  28 2.64  40 2.64  36 2.64  55 2.87  19 2.87
                            59 2.87
  65  0.336  0.422  0.455-  48 1.66  52 1.66  12 1.73
 
  LATTYP: Found a hexagonal cell.
 ALAT       =    10.5600004196
 C/A-ratio  =     1.8939393187
  
  Lattice vectors:
  
 A1 = (  10.5600004196,   0.0000000000,   0.0000000000)
 A2 = (  -5.2800002098,   9.1452286274,   0.0000000000)
 A3 = (   0.0000000000,   0.0000000000,  20.0000000000)


Analysis of symmetry for initial positions (statically):
=====================================================================
 Subroutine PRICEL returns:
 Original cell was already a primitive cell.
 

 Routine SETGRP: Setting up the symmetry group for a 
 hexagonal supercell.


 Subroutine GETGRP returns: Found  2 space group operations
 (whereof  1 operations were pure point group operations)
 out of a pool of 24 trial point group operations.


The static configuration has the point symmetry C_1 .
 The point group associated with its full space group is C_1h.


Analysis of symmetry for dynamics (positions and initial velocities):
=====================================================================
 Subroutine PRICEL returns:
 Original cell was already a primitive cell.
 

 Routine SETGRP: Setting up the symmetry group for a 
 hexagonal supercell.


 Subroutine GETGRP returns: Found  2 space group operations
 (whereof  1 operations were pure point group operations)
 out of a pool of 24 trial point group operations.


The dynamic configuration has the point symmetry C_1 .
 The point group associated with its full space group is C_1h.


Analysis of constrained symmetry for selective dynamics:
=====================================================================
 Subroutine PRICEL returns:
 Original cell was already a primitive cell.
 

 Routine SETGRP: Setting up the symmetry group for a 
 hexagonal supercell.


 Subroutine GETGRP returns: Found  2 space group operations
 (whereof  1 operations were pure point group operations)
 out of a pool of 24 trial point group operations.


The constrained configuration has the point symmetry C_1 .
 The point group associated with its full space group is C_1h.


Analysis of structural, dynamic, and magnetic symmetry:
=====================================================================
 Subroutine PRICEL returns:
 Original cell was already a primitive cell.
 

 Routine SETGRP: Setting up the symmetry group for a 
 hexagonal supercell.


 Subroutine GETGRP returns: Found  2 space group operations
 (whereof  1 operations were pure point group operations)
 out of a pool of 24 trial point group operations.


The magnetic configuration has the point symmetry C_1 .
 The point group associated with its full space group is C_1h.


 Subroutine INISYM returns: Found  2 space group operations
 (whereof  1 operations are pure point group operations),
 and found     1 'primitive' translations

 
 
 KPOINTS: mesh auto                               

Automatic generation of k-mesh.
Space group operators:
 irot       det(A)        alpha          n_x          n_y          n_z        tau_x        tau_y        tau_z
    1     1.000000     0.000000     1.000000     0.000000     0.000000     0.000000     0.000000     0.000000
    2    -1.000000   180.000000     1.000000     0.000000     0.000000     0.250000     0.000000     0.000000
 
 Subroutine IBZKPT returns following result:
 ===========================================
 
 Found      3 irreducible k-points:
 
 Following reciprocal coordinates:
            Coordinates               Weight
  0.000000  0.000000  0.000000      1.000000
  0.500000 -0.000000  0.000000      2.000000
  0.000000  0.500000  0.000000      1.000000
 
 Following cartesian coordinates:
            Coordinates               Weight
  0.000000  0.000000  0.000000      1.000000
  0.047348  0.027337  0.000000      2.000000
  0.000000  0.054673  0.000000      1.000000
 


--------------------------------------------------------------------------------------------------------




 Dimension of arrays:
   k-points           NKPTS =      3   k-points in BZ     NKDIM =      3   number of bands    NBANDS=    420
   number of dos      NEDOS =    301   number of ions     NIONS =     65
   non local maximal  LDIM  =      6   non local SUM 2l+1 LMDIM =     18
   total plane-waves  NPLWV = ******
   max r-space proj   IRMAX =   8171   max aug-charges    IRDMAX=  35597
   dimension x,y,z NGX =    84 NGY =   84 NGZ =  160
   dimension x,y,z NGXF=   168 NGYF=  168 NGZF=  320
   support grid    NGXF=   168 NGYF=  168 NGZF=  320
   ions per type =              64   1
   NGX,Y,Z   is equivalent  to a cutoff of  13.22, 13.22, 13.30 a.u.
   NGXF,Y,Z  is equivalent  to a cutoff of  26.45, 26.45, 26.60 a.u.

 SYSTEM =  Pt111                                   
 POSCAR =  Pt111\(1\1\1)\(2)                       

 Startparameter for this run:
   NWRITE =      2    write-flag & timer
   PREC   = accura    normal or accurate (medium, high low for compatibility)
   ISTART =      0    job   : 0-new  1-cont  2-samecut
   ICHARG =      2    charge: 1-file 2-atom 10-const
   ISPIN  =      2    spin polarized calculation?
   LNONCOLLINEAR =      F non collinear calculations
   LSORBIT =      F    spin-orbit coupling
   INIWAV =      1    electr: 0-lowe 1-rand  2-diag
   LASPH  =      F    aspherical Exc in radial PAW
   METAGGA=      F    non-selfconsistent MetaGGA calc.

 Electronic Relaxation 1
   ENCUT  =  550.0 eV  40.42 Ry    6.36 a.u.  20.19 20.19 38.24*2*pi/ulx,y,z
   ENINI  =  550.0     initial cutoff
   ENAUG  =  400.0 eV  augmentation charge cutoff
   NELM   =    200;   NELMIN=  2; NELMDL= -5     # of ELM steps 
   EDIFF  = 0.1E-04   stopping-criterion for ELM
   LREAL  =      T    real-space projection
   NLSPLINE    = F    spline interpolate recip. space projectors
   LCOMPAT=      F    compatible to vasp.4.4
   GGA_COMPAT  = T    GGA compatible to vasp.4.4-vasp.4.6
   LMAXPAW     = -100 max onsite density
   LMAXMIX     =    2 max onsite mixed and CHGCAR
   VOSKOWN=      0    Vosko Wilk Nusair interpolation
   ROPT   =   -0.00025  -0.00025
 Ionic relaxation
   EDIFFG = -.5E-01   stopping-criterion for IOM
   NSW    =    300    number of steps for IOM
   NBLOCK =      1;   KBLOCK =    300    inner block; outer block 
   IBRION =      2    ionic relax: 0-MD 1-quasi-New 2-CG
   NFREE  =      1    steps in history (QN), initial steepest desc. (CG)
   ISIF   =      2    stress and relaxation
   IWAVPR =     11    prediction:  0-non 1-charg 2-wave 3-comb
   ISYM   =      2    0-nonsym 1-usesym 2-fastsym
   LCORR  =      T    Harris-Foulkes like correction to forces

   POTIM  = 0.5000    time-step for ionic-motion
   TEIN   =    0.0    initial temperature
   TEBEG  =    0.0;   TEEND  =   0.0 temperature during run
   SMASS  =  -3.00    Nose mass-parameter (am)
   estimated Nose-frequenzy (Omega)   =  0.10E-29 period in steps =****** mass=  -0.255E-26a.u.
   SCALEE = 1.0000    scale energy and forces
   NPACO  =    256;   APACO  = 16.0  distance and # of slots for P.C.
   PSTRESS=    0.0 pullay stress

  Mass of Ions in am
   POMASS = 195.08  1.00
  Ionic Valenz
   ZVAL   =  10.00  1.00
  Atomic Wigner-Seitz radii
   RWIGS  =  -1.00 -1.00
  virtual crystal weights 
   VCA    =   1.00  1.00
   NELECT =     641.0000    total number of electrons
   NUPDOWN=      -1.0000    fix difference up-down

 DOS related values:
   EMIN   =  10.00;   EMAX   =-10.00  energy-range for DOS
   EFERMI =   0.00
   ISMEAR =     1;   SIGMA  =   0.10  broadening in eV -4-tet -1-fermi 0-gaus

 Electronic relaxation 2 (details)
   IALGO  =     68    algorithm
   LDIAG  =      T    sub-space diagonalisation (order eigenvalues)
   LSUBROT=      F    optimize rotation matrix (better conditioning)
   TURBO    =      0    0=normal 1=particle mesh
   IRESTART =      0    0=no restart 2=restart with 2 vectors
   NREBOOT  =      0    no. of reboots
   NMIN     =      0    reboot dimension
   EREF     =   0.00    reference energy to select bands
   IMIX   =      4    mixing-type and parameters
     AMIX     =   0.40;   BMIX     =  1.00
     AMIX_MAG =   1.60;   BMIX_MAG =  1.00
     AMIN     =   0.10
     WC   =   100.;   INIMIX=   1;  MIXPRE=   1;  MAXMIX= -45

 Intra band minimization:
   WEIMIN = 0.0010     energy-eigenvalue tresh-hold
   EBREAK =  0.60E-08  absolut break condition
   DEPER  =   0.30     relativ break condition  

   TIME   =   0.40     timestep for ELM

  volume/ion in A,a.u.               =      29.71       200.53
  Fermi-wavevector in a.u.,A,eV,Ry     =   1.133439  2.141888 17.479175  1.284683
  Thomas-Fermi vector in A             =   2.270141
 
 Write flags
   LWAVE        =      F    write WAVECAR
   LDOWNSAMPLE  =      F    k-point downsampling of WAVECAR
   LCHARG       =      F    write CHGCAR
   LVTOT        =      F    write LOCPOT, total local potential
   LVHAR        =      F    write LOCPOT, Hartree potential only
   LELF         =      F    write electronic localiz. function (ELF)
   LORBIT       =      0    0 simple, 1 ext, 2 COOP (PROOUT), +10 PAW based schemes


 Dipole corrections
   LMONO  =      F    monopole corrections only (constant potential shift)
   LDIPOL =      F    correct potential (dipole corrections)
   IDIPOL =      0    1-x, 2-y, 3-z, 4-all directions 
   EPSILON=  1.0000000 bulk dielectric constant

 Exchange correlation treatment:
   GGA     =    --    GGA type
   LEXCH   =     8    internal setting for exchange type
   VOSKOWN=      0    Vosko Wilk Nusair interpolation
   LHFCALC =     F    Hartree Fock is set to
   LHFONE  =     F    Hartree Fock one center treatment
   AEXX    =    0.0000 exact exchange contribution

 Linear response parameters
   LEPSILON=     F    determine dielectric tensor
   LRPA    =     F    only Hartree local field effects (RPA)
   LNABLA  =     F    use nabla operator in PAW spheres
   LVEL    =     F    velocity operator in full k-point grid
   LINTERFAST=   F  fast interpolation
   KINTER  =     0    interpolate to denser k-point grid
   CSHIFT  =0.1000    complex shift for real part using Kramers Kronig
   OMEGAMAX=  -1.0    maximum frequency
   DEG_THRESHOLD= 0.2000000E-02 threshold for treating states as degnerate
   RTIME   =   -0.100 relaxation time in fs
  (WPLASMAI=    0.000 imaginary part of plasma frequency in eV, 0.658/RTIME)
   DFIELD  = 0.0000000 0.0000000 0.0000000 field for delta impulse in time
 
 Orbital magnetization related:
   ORBITALMAG=     F  switch on orbital magnetization
   LCHIMAG   =     F  perturbation theory with respect to B field
   DQ        =  0.001000  dq finite difference perturbation B field
   LLRAUG    =     F  two centre corrections for induced B field



--------------------------------------------------------------------------------------------------------


 conjugate gradient relaxation of ions
   using selective dynamics as specified on POSCAR
   WARNING: If single coordinates had been selected the selection of coordinates
            is made according to the corresponding   d i r e c t   coordinates!
            Don't support selection of single cartesian coordinates -- sorry ...
  !
 charge density and potential will be updated during run
 spin polarized calculation
 RMM-DIIS sequential band-by-band and
  variant of blocked Davidson during initial phase
 perform sub-space diagonalisation
    before iterative eigenvector-optimisation
 modified Broyden-mixing scheme, WC =      100.0
 initial mixing is a Kerker type mixing with AMIX =  0.4000 and BMIX =      1.0000
 Hartree-type preconditioning will be used
 using additional bands           99
 real space projection scheme for non local part
 use partial core corrections
 calculate Harris-corrections to forces 
   (improved forces if not selfconsistent)
 use gradient corrections 
 use of overlap-Matrix (Vanderbilt PP)
 Methfessel and Paxton  Order N= 1 SIGMA  =   0.10


--------------------------------------------------------------------------------------------------------


  energy-cutoff  :      550.00
  volume of cell :     1931.47
      direct lattice vectors                 reciprocal lattice vectors
    10.560000420  0.000000000  0.000000000     0.094696966  0.054673319  0.000000000
    -5.280000210  9.145228627  0.000000000     0.000000000  0.109346638  0.000000000
     0.000000000  0.000000000 20.000000000     0.000000000  0.000000000  0.050000000

  length of vectors
    10.560000420 10.560000420 20.000000000     0.109346638  0.109346638  0.050000000


 
 k-points in units of 2pi/SCALE and weight: mesh auto                               
   0.00000000  0.00000000  0.00000000       0.250
   0.04734848  0.02733666  0.00000000       0.500
   0.00000000  0.05467332  0.00000000       0.250
 
 k-points in reciprocal lattice and weights: mesh auto                               
   0.00000000  0.00000000  0.00000000       0.250
   0.50000000 -0.00000000  0.00000000       0.500
   0.00000000  0.50000000  0.00000000       0.250
 
 position of ions in fractional coordinates (direct lattice) 
   0.99999844  0.00000156  0.05579229
   0.33333173  0.16666826  0.17752397
   0.16666826  0.33333171  0.29729603
   0.00000156  0.99999844  0.41902774
   0.99999844  0.25000155  0.05579229
   0.33333172  0.41666827  0.17752397
   0.16666826  0.08333172  0.29729603
   0.00000155  0.24999844  0.41902774
   0.24999844  0.25000155  0.05579229
   0.08333172  0.41666827  0.17752397
   0.41666827  0.08333172  0.29729603
   0.25000155  0.24999844  0.41902774
   0.24999844  0.00000156  0.05579229
   0.08333172  0.16666826  0.17752397
   0.41666826  0.33333171  0.29729603
   0.25000156  0.99999844  0.41902774
   0.49999844  0.00000156  0.05579229
   0.83333168  0.16666826  0.17752397
   0.66666828  0.33333171  0.29729603
   0.50000156  0.99999844  0.41902774
   0.49999843  0.25000155  0.05579229
   0.83333168  0.41666827  0.17752397
   0.66666830  0.08333172  0.29729603
   0.50000154  0.24999844  0.41902774
   0.74999841  0.25000155  0.05579229
   0.58333168  0.41666827  0.17752397
   0.91666827  0.08333172  0.29729603
   0.75000152  0.24999844  0.41902774
   0.74999842  0.00000156  0.05579229
   0.58333166  0.16666826  0.17752397
   0.91666826  0.33333171  0.29729603
   0.75000153  0.99999844  0.41902774
   0.99999844  0.50000154  0.05579229
   0.33333171  0.66666826  0.17752397
   0.16666825  0.83333170  0.29729603
   0.00000155  0.49999843  0.41902774
   0.99999843  0.75000151  0.05579229
   0.33333173  0.91666828  0.17752397
   0.16666826  0.58333168  0.29729603
   0.00000154  0.74999840  0.41902774
   0.24999843  0.75000151  0.05579229
   0.08333173  0.91666828  0.17752397
   0.41666828  0.58333168  0.29729603
   0.25000154  0.74999840  0.41902774
   0.24999844  0.50000154  0.05579229
   0.08333171  0.66666826  0.17752397
   0.41666827  0.83333170  0.29729603
   0.25000155  0.49999843  0.41902774
   0.49999844  0.50000154  0.05579229
   0.83333171  0.66666826  0.17752397
   0.66666830  0.83333170  0.29729603
   0.50000155  0.49999843  0.41902774
   0.49999843  0.75000151  0.05579229
   0.83333170  0.91666828  0.17752397
   0.66666830  0.58333168  0.29729603
   0.50000154  0.74999840  0.41902774
   0.74999841  0.75000151  0.05579229
   0.58333168  0.91666828  0.17752397
   0.91666828  0.58333168  0.29729603
   0.75000152  0.74999840  0.41902774
   0.74999839  0.50000154  0.05579229
   0.58333166  0.66666826  0.17752397
   0.91666827  0.83333170  0.29729603
   0.75000150  0.49999843  0.41902774
   0.33590000  0.42180000  0.45490000
 
 position of ions in cartesian coordinates  (Angst):
  10.55997578  0.00001422  1.11584590
   2.63997474  1.52421935  3.55047947
   0.00002535  3.04839473  5.94592065
  -5.27997557  9.14521440  8.38055470
   9.23997574  2.28632132  1.11584590
   1.31997457  3.81052657  3.55047947
   1.32002541  0.76208763  5.94592065
  -1.31997541  2.28629287  8.38055470
   1.31997542  2.28632132  1.11584590
  -1.32002553  3.81052657  3.55047947
   3.96002563  0.76208763  5.94592065
   1.32002469  2.28629287  8.38055470
   2.63997547  0.00001422  1.11584590
  -0.00002541  1.52421935  3.55047947
   2.64002545  3.04839473  5.94592065
  -2.63997547  9.14521440  8.38055470
   5.27997557  0.00001422  1.11584590
   7.91997448  1.52421935  3.55047947
   5.28002580  3.04839473  5.94592065
   0.00002464  9.14521440  8.38055470
   3.95997540  2.28632132  1.11584590
   6.59997431  3.81052657  3.55047947
   6.60002598  0.76208763  5.94592065
   3.96002467  2.28629287  8.38055470
   6.59997527  2.28632132  1.11584590
   3.95997420  3.81052657  3.55047947
   9.24002584  0.76208763  5.94592065
   6.60002455  2.28629287  8.38055470
   7.91997543  0.00001422  1.11584590
   5.27997414  1.52421935  3.55047947
   7.92002566  3.04839473  5.94592065
   2.64002450  9.14521440  8.38055470
   7.91997567  4.57262842  1.11584590
  -0.00002559  6.09683366  3.55047947
  -2.63997474  7.62100892  5.94592065
  -2.63997547  4.57259997  8.38055470
   6.59997574  6.85893527  1.11584590
  -1.32002553  8.38314100  3.55047947
  -1.31997445  5.33470159  5.94592065
  -3.95997540  6.85890683  8.38055470
  -1.32002457  6.85893527  1.11584590
  -3.96002563  8.38314100  3.55047947
   1.32002577  5.33470159  5.94592065
  -1.31997530  6.85890683  8.38055470
  -0.00002464  4.57262842  1.11584590
  -2.64002570  6.09683366  3.55047947
   0.00002559  7.62100892  5.94592065
   0.00002463  4.57259997  8.38055470
   2.63997546  4.57262842  1.11584590
   5.27997462  6.09683366  3.55047947
   2.64002594  7.62100892  5.94592065
   2.64002474  4.57259997  8.38055470
   1.31997553  6.85893527  1.11584590
   3.95997444  8.38314100  3.55047947
   3.96002611  5.33470159  5.94592065
   1.32002481  6.85890683  8.38055470
   3.95997540  6.85893527  1.11584590
   1.31997410  8.38314100  3.55047947
   6.60002598  5.33470159  5.94592065
   3.96002468  6.85890683  8.38055470
   5.27997509  4.57262842  1.11584590
   2.63997404  6.09683366  3.55047947
   5.28002580  7.62100892  5.94592065
   5.28002437  4.57259997  8.38055470
   1.32000005  3.85745743  9.09800000
 


--------------------------------------------------------------------------------------------------------


 k-point  1 :   0.0000 0.0000 0.0000  plane waves:   56579
 k-point  2 :   0.5000-0.0000 0.0000  plane waves:   56606
 k-point  3 :   0.0000 0.5000 0.0000  plane waves:   56606

 maximum and minimum number of plane-waves per node :     14185    14108

 maximum number of plane-waves:     56606
 maximum index in each direction: 
   IXMAX=   20   IYMAX=   20   IZMAX=   38
   IXMIN=  -20   IYMIN=  -20   IZMIN=  -38


 real space projection operators:
  total allocation   :      71197.48 KBytes
  max/ min on nodes  :      17799.66      17799.00


 parallel 3D FFT for wavefunctions:
    minimum data exchange during FFTs selected (reduces bandwidth)
 parallel 3D FFT for charge:
    minimum data exchange during FFTs selected (reduces bandwidth)


 total amount of memory used by VASP MPI-rank0   181115. kBytes
=======================================================================

   base      :      30000. kBytes
   nonlr-proj:      30904. kBytes
   fftplans  :      17093. kBytes
   grid      :      44247. kBytes
   one-center:        528. kBytes
   wavefun   :      58343. kBytes
 
     INWAV:  cpu time    0.0000: real time    0.0000
 Broyden mixing: mesh for mixing (old mesh)
   NGX = 41   NGY = 41   NGZ = 77
  (NGX  =168   NGY  =168   NGZ  =320)
  gives a total of 129437 points

 initial charge density was supplied:
 charge density of overlapping atoms calculated
 number of electron     641.0000000 magnetization      65.0000000
 keeping initial charge density in first step


--------------------------------------------------------------------------------------------------------


 Maximum index for non-local projection operator         2015
 Maximum index for augmentation-charges         2177 (set IRDMAX)


--------------------------------------------------------------------------------------------------------


 First call to EWALD:  gamma=   0.142
 Maximum number of real-space cells 4x 4x 2
 Maximum number of reciprocal cells 2x 2x 4

    FEWALD:  cpu time    0.0038: real time    0.0038


--------------------------------------- Iteration      1(   1)  ---------------------------------------


    POTLOK:  cpu time    0.3698: real time    0.3940
    SETDIJ:  cpu time    0.0330: real time    0.0334
     EDDAV:  cpu time   30.6806: real time   30.7727
       DOS:  cpu time    0.0015: real time    0.0016
    --------------------------------------------
      LOOP:  cpu time   31.0849: real time   31.2016

 eigenvalue-minimisations  :  5050
 total energy-change (2. order) : 0.4502379E+04  (-0.3121327E+05)
 number of electron     641.0000000 magnetization      65.0000000
 augmentation part      641.0000000 magnetization      65.0000000

 Free energy of the ion-electron system (eV)
  ---------------------------------------------------
  alpha Z        PSCENC =      2019.82280658
  Ewald energy   TEWEN  =    126263.51891014
  -Hartree energ DENC   =   -177338.74506128
  -exchange      EXHF   =         0.00000000
  -V(xc)+E(xc)   XCENC  =       245.90308742
  PAW double counting   =     44548.75599742   -42738.90423410
  entropy T*S    EENTRO =        -0.00563286
  eigenvalues    EBANDS =      4826.15015513
  atomic energy  EATOM  =     46675.88275157
  Solvation  Ediel_sol  =         0.00000000
  ---------------------------------------------------
  free energy    TOTEN  =      4502.37878003 eV

  energy without entropy =     4502.38441289  energy(sigma->0) =     4502.38065765


--------------------------------------------------------------------------------------------------------




--------------------------------------- Iteration      1(   2)  ---------------------------------------


     EDDAV:  cpu time   33.5498: real time   33.6390
       DOS:  cpu time    0.0012: real time    0.0012
    --------------------------------------------
      LOOP:  cpu time   33.5510: real time   33.6402

 eigenvalue-minimisations  :  5660
 total energy-change (2. order) :-0.4638536E+04  (-0.4250425E+04)
 number of electron     641.0000000 magnetization      65.0000000
 augmentation part      641.0000000 magnetization      65.0000000

 Free energy of the ion-electron system (eV)
  ---------------------------------------------------
  alpha Z        PSCENC =      2019.82280658
  Ewald energy   TEWEN  =    126263.51891014
  -Hartree energ DENC   =   -177338.74506128
  -exchange      EXHF   =         0.00000000
  -V(xc)+E(xc)   XCENC  =       245.90308742
  PAW double counting   =     44548.75599742   -42738.90423410
  entropy T*S    EENTRO =        -0.00113632
  eigenvalues    EBANDS =       187.60943524
  atomic energy  EATOM  =     46675.88275157
  Solvation  Ediel_sol  =         0.00000000
  ---------------------------------------------------
  free energy    TOTEN  =      -136.15744332 eV

  energy without entropy =     -136.15630700  energy(sigma->0) =     -136.15706454


--------------------------------------------------------------------------------------------------------




--------------------------------------- Iteration      1(   3)  ---------------------------------------


     EDDAV:  cpu time   33.9228: real time   34.0125
       DOS:  cpu time    0.0013: real time    0.0013
    --------------------------------------------
      LOOP:  cpu time   33.9241: real time   34.0138

 eigenvalue-minimisations  :  5710
 total energy-change (2. order) :-0.2455458E+03  (-0.2274927E+03)
 number of electron     641.0000000 magnetization      65.0000000
 augmentation part      641.0000000 magnetization      65.0000000

 Free energy of the ion-electron system (eV)
  ---------------------------------------------------
  alpha Z        PSCENC =      2019.82280658
  Ewald energy   TEWEN  =    126263.51891014
  -Hartree energ DENC   =   -177338.74506128
  -exchange      EXHF   =         0.00000000
  -V(xc)+E(xc)   XCENC  =       245.90308742
  PAW double counting   =     44548.75599742   -42738.90423410
  entropy T*S    EENTRO =         0.02761033
  eigenvalues    EBANDS =       -57.96509843
  atomic energy  EATOM  =     46675.88275157
  Solvation  Ediel_sol  =         0.00000000
  ---------------------------------------------------
  free energy    TOTEN  =      -381.70323034 eV

  energy without entropy =     -381.73084067  energy(sigma->0) =     -381.71243378


--------------------------------------------------------------------------------------------------------




--------------------------------------- Iteration      1(   4)  ---------------------------------------


     EDDAV:  cpu time   34.7521: real time   34.8444
       DOS:  cpu time    0.0012: real time    0.0012
    --------------------------------------------
      LOOP:  cpu time   34.7533: real time   34.8456

 eigenvalue-minimisations  :  5900
 total energy-change (2. order) :-0.6383480E+01  (-0.6326884E+01)
 number of electron     641.0000000 magnetization      65.0000000
 augmentation part      641.0000000 magnetization      65.0000000

 Free energy of the ion-electron system (eV)
  ---------------------------------------------------
  alpha Z        PSCENC =      2019.82280658
  Ewald energy   TEWEN  =    126263.51891014
  -Hartree energ DENC   =   -177338.74506128
  -exchange      EXHF   =         0.00000000
  -V(xc)+E(xc)   XCENC  =       245.90308742
  PAW double counting   =     44548.75599742   -42738.90423410
  entropy T*S    EENTRO =         0.02426801
  eigenvalues    EBANDS =       -64.34523620
  atomic energy  EATOM  =     46675.88275157
  Solvation  Ediel_sol  =         0.00000000
  ---------------------------------------------------
  free energy    TOTEN  =      -388.08671044 eV

  energy without entropy =     -388.11097845  energy(sigma->0) =     -388.09479978


--------------------------------------------------------------------------------------------------------




--------------------------------------- Iteration      1(   5)  ---------------------------------------


     EDDAV:  cpu time   34.4676: real time   34.5584
       DOS:  cpu time    0.0013: real time    0.0013
    CHARGE:  cpu time    2.4231: real time    2.4296
    MIXING:  cpu time    0.0106: real time    0.0116
    --------------------------------------------
      LOOP:  cpu time   36.9026: real time   37.0009

 eigenvalue-minimisations  :  5970
 total energy-change (2. order) :-0.2216490E+00  (-0.2211385E+00)
 number of electron     641.0000123 magnetization      58.7976066
 augmentation part      185.8005121 magnetization      46.9663551

 Broyden mixing:
  rms(total) = 0.10645E+02    rms(broyden)= 0.10645E+02
  rms(prec ) = 0.10750E+02
  weight for this iteration     100.00

 Free energy of the ion-electron system (eV)
  ---------------------------------------------------
  alpha Z        PSCENC =      2019.82280658
  Ewald energy   TEWEN  =    126263.51891014
  -Hartree energ DENC   =   -177338.74506128
  -exchange      EXHF   =         0.00000000
  -V(xc)+E(xc)   XCENC  =       245.90308742
  PAW double counting   =     44548.75599742   -42738.90423410
  entropy T*S    EENTRO =         0.02459895
  eigenvalues    EBANDS =       -64.56721619
  atomic energy  EATOM  =     46675.88275157
  Solvation  Ediel_sol  =         0.00000000
  ---------------------------------------------------
  free energy    TOTEN  =      -388.30835949 eV

  energy without entropy =     -388.33295844  energy(sigma->0) =     -388.31655914


--------------------------------------------------------------------------------------------------------




--------------------------------------- Iteration      1(   6)  ---------------------------------------


    POTLOK:  cpu time    0.3685: real time    0.3694
    SETDIJ:  cpu time    0.0316: real time    0.0316
    EDDIAG:  cpu time    5.3619: real time    5.3762
  RMM-DIIS:  cpu time   19.5464: real time   19.5982
    ORTHCH:  cpu time    0.4937: real time    0.4948
       DOS:  cpu time    0.0014: real time    0.0014
    CHARGE:  cpu time    2.4551: real time    2.4616
    MIXING:  cpu time    0.0104: real time    0.0108
    --------------------------------------------
      LOOP:  cpu time   28.2689: real time   28.3441

 eigenvalue-minimisations  :  5067
 total energy-change (2. order) : 0.2523191E+02  (-0.6311964E+01)
 number of electron     641.0000130 magnetization      51.6234043
 augmentation part      195.1697193 magnetization      38.5256981

 Broyden mixing:
  rms(total) = 0.69579E+01    rms(broyden)= 0.69579E+01
  rms(prec ) = 0.73120E+01
  weight for this iteration     100.00

 eigenvalues of (default mixing * dielectric matrix)
  average eigenvalue GAMMA=   1.2210
  1.2210

 Free energy of the ion-electron system (eV)
  ---------------------------------------------------
  alpha Z        PSCENC =      2019.82280658
  Ewald energy   TEWEN  =    126263.51891014
  -Hartree energ DENC   =   -176651.07474654
  -exchange      EXHF   =         0.00000000
  -V(xc)+E(xc)   XCENC  =       235.57715081
  PAW double counting   =     50950.29596591   -49247.96447175
  entropy T*S    EENTRO =        -0.08803123
  eigenvalues    EBANDS =      -609.04678738
  atomic energy  EATOM  =     46675.88275157
  Solvation  Ediel_sol  =         0.00000000
  ---------------------------------------------------
  free energy    TOTEN  =      -363.07645188 eV

  energy without entropy =     -362.98842065  energy(sigma->0) =     -363.04710813


--------------------------------------------------------------------------------------------------------




--------------------------------------- Iteration      1(   7)  ---------------------------------------


    POTLOK:  cpu time    0.3675: real time    0.3684
    SETDIJ:  cpu time    0.0316: real time    0.0317
    EDDIAG:  cpu time    5.3990: real time    5.4137
  RMM-DIIS:  cpu time   19.1370: real time   19.1878
    ORTHCH:  cpu time    0.4938: real time    0.4950
       DOS:  cpu time    0.0014: real time    0.0014
    CHARGE:  cpu time    2.5630: real time    2.5698
    MIXING:  cpu time    0.0106: real time    0.0106
    --------------------------------------------
      LOOP:  cpu time   28.0037: real time   28.0783

 eigenvalue-minimisations  :  5042
 total energy-change (2. order) :-0.1192101E+03  (-0.1343049E+02)
 number of electron     641.0000136 magnetization      45.5546347
 augmentation part      192.1808156 magnetization      33.9222443

 Broyden mixing:
  rms(total) = 0.10211E+02    rms(broyden)= 0.10211E+02
  rms(prec ) = 0.12717E+02
  weight for this iteration     100.00

 eigenvalues of (default mixing * dielectric matrix)
  average eigenvalue GAMMA=   1.0287
  1.7438  0.3137

 Free energy of the ion-electron system (eV)
  ---------------------------------------------------
  alpha Z        PSCENC =      2019.82280658
  Ewald energy   TEWEN  =    126263.51891014
  -Hartree energ DENC   =   -177207.51321889
  -exchange      EXHF   =         0.00000000
  -V(xc)+E(xc)   XCENC  =       229.73506301
  PAW double counting   =     56311.71081469   -54668.11585691
  entropy T*S    EENTRO =         0.04911566
  eigenvalues    EBANDS =      -107.37696970
  atomic energy  EATOM  =     46675.88275157
  Solvation  Ediel_sol  =         0.00000000
  ---------------------------------------------------
  free energy    TOTEN  =      -482.28658384 eV

  energy without entropy =     -482.33569950  energy(sigma->0) =     -482.30295573


--------------------------------------------------------------------------------------------------------




--------------------------------------- Iteration      1(   8)  ---------------------------------------


    POTLOK:  cpu time    0.3677: real time    0.3686
    SETDIJ:  cpu time    0.0317: real time    0.0318
    EDDIAG:  cpu time    5.3785: real time    5.3931
  RMM-DIIS:  cpu time   19.3937: real time   19.4452
    ORTHCH:  cpu time    0.4947: real time    0.4961
       DOS:  cpu time    0.0014: real time    0.0014
    CHARGE:  cpu time    2.4554: real time    2.4618
    MIXING:  cpu time    0.0110: real time    0.0110
    --------------------------------------------
      LOOP:  cpu time   28.1341: real time   28.2091

 eigenvalue-minimisations  :  5059
 total energy-change (2. order) : 0.1127519E+03  (-0.5145448E+01)
 number of electron     641.0000136 magnetization      43.3147577
 augmentation part      198.4085589 magnetization      32.6872396

 Broyden mixing:
  rms(total) = 0.45837E+01    rms(broyden)= 0.45837E+01
  rms(prec ) = 0.57778E+01
  weight for this iteration     100.00

 eigenvalues of (default mixing * dielectric matrix)
  average eigenvalue GAMMA=   0.9629
  2.0616  0.5046  0.3226

 Free energy of the ion-electron system (eV)
  ---------------------------------------------------
  alpha Z        PSCENC =      2019.82280658
  Ewald energy   TEWEN  =    126263.51891014
  -Hartree energ DENC   =   -176718.19989942
  -exchange      EXHF   =         0.00000000
  -V(xc)+E(xc)   XCENC  =       231.78354708
  PAW double counting   =     60192.73074464   -58595.92717265
  entropy T*S    EENTRO =        -0.12424531
  eigenvalues    EBANDS =      -439.02214870
  atomic energy  EATOM  =     46675.88275157
  Solvation  Ediel_sol  =         0.00000000
  ---------------------------------------------------
  free energy    TOTEN  =      -369.53470607 eV

  energy without entropy =     -369.41046076  energy(sigma->0) =     -369.49329096


--------------------------------------------------------------------------------------------------------




--------------------------------------- Iteration      1(   9)  ---------------------------------------


    POTLOK:  cpu time    0.3682: real time    0.3694
    SETDIJ:  cpu time    0.0317: real time    0.0318
    EDDIAG:  cpu time    5.3788: real time    5.3930
  RMM-DIIS:  cpu time   19.2213: real time   19.2718
    ORTHCH:  cpu time    0.4963: real time    0.4978
       DOS:  cpu time    0.0013: real time    0.0013
    CHARGE:  cpu time    2.4287: real time    2.4350
    MIXING:  cpu time    0.0109: real time    0.0110
    --------------------------------------------
      LOOP:  cpu time   27.9373: real time   28.0110

 eigenvalue-minimisations  :  5051
 total energy-change (2. order) :-0.1200926E+02  (-0.3804401E+01)
 number of electron     641.0000136 magnetization      40.9132947
 augmentation part      198.3256873 magnetization      33.6007766

 Broyden mixing:
  rms(total) = 0.53447E+01    rms(broyden)= 0.53447E+01
  rms(prec ) = 0.81611E+01
  weight for this iteration     100.00

 eigenvalues of (default mixing * dielectric matrix)
  average eigenvalue GAMMA=   0.8537
  2.2540  0.6810  0.3165  0.1634

 Free energy of the ion-electron system (eV)
  ---------------------------------------------------
  alpha Z        PSCENC =      2019.82280658
  Ewald energy   TEWEN  =    126263.51891014
  -Hartree energ DENC   =   -176613.40644480
  -exchange      EXHF   =         0.00000000
  -V(xc)+E(xc)   XCENC  =       232.06021561
  PAW double counting   =     60744.90711807   -59151.32423894
  entropy T*S    EENTRO =         0.00825685
  eigenvalues    EBANDS =      -553.01333629
  atomic energy  EATOM  =     46675.88275157
  Solvation  Ediel_sol  =         0.00000000
  ---------------------------------------------------
  free energy    TOTEN  =      -381.54396121 eV

  energy without entropy =     -381.55221806  energy(sigma->0) =     -381.54671349


--------------------------------------------------------------------------------------------------------




--------------------------------------- Iteration      1(  10)  ---------------------------------------


    POTLOK:  cpu time    0.3679: real time    0.3690
    SETDIJ:  cpu time    0.0317: real time    0.0318
    EDDIAG:  cpu time    5.3847: real time    5.3989
  RMM-DIIS:  cpu time   19.3242: real time   19.3753
    ORTHCH:  cpu time    0.4946: real time    0.4960
       DOS:  cpu time    0.0013: real time    0.0013
    CHARGE:  cpu time    2.4587: real time    2.4651
    MIXING:  cpu time    0.0112: real time    0.0113
    --------------------------------------------
      LOOP:  cpu time   28.0744: real time   28.1488

 eigenvalue-minimisations  :  5052
 total energy-change (2. order) : 0.1360380E+02  (-0.1354211E+01)
 number of electron     641.0000132 magnetization      38.5638351
 augmentation part      197.7799018 magnetization      28.9298542

 Broyden mixing:
  rms(total) = 0.41222E+01    rms(broyden)= 0.41222E+01
  rms(prec ) = 0.52178E+01
  weight for this iteration     100.00

 eigenvalues of (default mixing * dielectric matrix)
  average eigenvalue GAMMA=   0.7407
  2.3187  0.7061  0.2727  0.2727  0.1333

 Free energy of the ion-electron system (eV)
  ---------------------------------------------------
  alpha Z        PSCENC =      2019.82280658
  Ewald energy   TEWEN  =    126263.51891014
  -Hartree energ DENC   =   -176694.93321836
  -exchange      EXHF   =         0.00000000
  -V(xc)+E(xc)   XCENC  =       231.69949160
  PAW double counting   =     61116.11676231   -59523.39576301
  entropy T*S    EENTRO =         0.05354410
  eigenvalues    EBANDS =      -456.70544279
  atomic energy  EATOM  =     46675.88275157
  Solvation  Ediel_sol  =         0.00000000
  ---------------------------------------------------
  free energy    TOTEN  =      -367.94015787 eV

  energy without entropy =     -367.99370197  energy(sigma->0) =     -367.95800590


--------------------------------------------------------------------------------------------------------




--------------------------------------- Iteration      1(  11)  ---------------------------------------


    POTLOK:  cpu time    0.3721: real time    0.3732
    SETDIJ:  cpu time    0.0319: real time    0.0320
    EDDIAG:  cpu time    5.3783: real time    5.3926
  RMM-DIIS:  cpu time   19.3982: real time   19.4499
    ORTHCH:  cpu time    0.4964: real time    0.4976
       DOS:  cpu time    0.0014: real time    0.0014
    CHARGE:  cpu time    2.4396: real time    2.4460
    MIXING:  cpu time    0.0104: real time    0.0104
    --------------------------------------------
      LOOP:  cpu time   28.1283: real time   28.2031

 eigenvalue-minimisations  :  5052
 total energy-change (2. order) : 0.1385151E+02  (-0.5156782E+00)
 number of electron     641.0000130 magnetization      37.0219587
 augmentation part      197.6823550 magnetization      28.0420692

 Broyden mixing:
  rms(total) = 0.19824E+01    rms(broyden)= 0.19824E+01
  rms(prec ) = 0.22277E+01
  weight for this iteration     100.00

 eigenvalues of (default mixing * dielectric matrix)
  average eigenvalue GAMMA=   0.7009
  2.1780  0.6203  0.6203  0.3316  0.3316  0.1234

 Free energy of the ion-electron system (eV)
  ---------------------------------------------------
  alpha Z        PSCENC =      2019.82280658
  Ewald energy   TEWEN  =    126263.51891014
  -Hartree energ DENC   =   -176696.97410671
  -exchange      EXHF   =         0.00000000
  -V(xc)+E(xc)   XCENC  =       231.13877527
  PAW double counting   =     61400.07452872   -59809.26522403
  entropy T*S    EENTRO =        -0.03789407
  eigenvalues    EBANDS =      -438.24919433
  atomic energy  EATOM  =     46675.88275157
  Solvation  Ediel_sol  =         0.00000000
  ---------------------------------------------------
  free energy    TOTEN  =      -354.08864687 eV

  energy without entropy =     -354.05075280  energy(sigma->0) =     -354.07601552


--------------------------------------------------------------------------------------------------------




--------------------------------------- Iteration      1(  12)  ---------------------------------------


    POTLOK:  cpu time    0.3697: real time    0.3709
    SETDIJ:  cpu time    0.0320: real time    0.0321
    EDDIAG:  cpu time    5.3717: real time    5.3859
  RMM-DIIS:  cpu time   19.3786: real time   19.4303
    ORTHCH:  cpu time    0.5523: real time    0.5536
       DOS:  cpu time    0.0019: real time    0.0019
    CHARGE:  cpu time    2.4384: real time    2.4450
    MIXING:  cpu time    0.0113: real time    0.0114
    --------------------------------------------
      LOOP:  cpu time   28.1560: real time   28.2311

 eigenvalue-minimisations  :  5062
 total energy-change (2. order) :-0.3375611E+00  (-0.1948025E+00)
 number of electron     641.0000130 magnetization      34.7315035
 augmentation part      197.6434638 magnetization      24.5984074

 Broyden mixing:
  rms(total) = 0.13415E+01    rms(broyden)= 0.13415E+01
  rms(prec ) = 0.15349E+01
  weight for this iteration     100.00

 eigenvalues of (default mixing * dielectric matrix)
  average eigenvalue GAMMA=   0.7069
  2.2185  0.7111  0.7111  0.5897  0.2971  0.2971  0.1239

 Free energy of the ion-electron system (eV)
  ---------------------------------------------------
  alpha Z        PSCENC =      2019.82280658
  Ewald energy   TEWEN  =    126263.51891014
  -Hartree energ DENC   =   -176685.49587669
  -exchange      EXHF   =         0.00000000
  -V(xc)+E(xc)   XCENC  =       230.57681166
  PAW double counting   =     60998.60061945   -59404.01729813
  entropy T*S    EENTRO =         0.06438512
  eigenvalues    EBANDS =      -453.37931771
  atomic energy  EATOM  =     46675.88275157
  Solvation  Ediel_sol  =         0.00000000
  ---------------------------------------------------
  free energy    TOTEN  =      -354.42620800 eV

  energy without entropy =     -354.49059312  energy(sigma->0) =     -354.44766971


--------------------------------------------------------------------------------------------------------




--------------------------------------- Iteration      1(  13)  ---------------------------------------


    POTLOK:  cpu time    0.3698: real time    0.3707
    SETDIJ:  cpu time    0.0320: real time    0.0320
    EDDIAG:  cpu time    5.4617: real time    5.4765
  RMM-DIIS:  cpu time   19.4036: real time   19.4550
    ORTHCH:  cpu time    0.5147: real time    0.5161
       DOS:  cpu time    0.0014: real time    0.0014
    CHARGE:  cpu time    2.4579: real time    2.4643
    MIXING:  cpu time    0.0119: real time    0.0120
    --------------------------------------------
      LOOP:  cpu time   28.2530: real time   28.3280

 eigenvalue-minimisations  :  5069
 total energy-change (2. order) :-0.2514479E+01  (-0.1728245E+00)
 number of electron     641.0000130 magnetization      32.4655682
 augmentation part      197.4290906 magnetization      22.2183581

 Broyden mixing:
  rms(total) = 0.11542E+01    rms(broyden)= 0.11542E+01
  rms(prec ) = 0.12932E+01
  weight for this iteration     100.00

 eigenvalues of (default mixing * dielectric matrix)
  average eigenvalue GAMMA=   0.6932
  2.2031  0.8515  0.8515  0.5122  0.4063  0.2986  0.2986  0.1240

 Free energy of the ion-electron system (eV)
  ---------------------------------------------------
  alpha Z        PSCENC =      2019.82280658
  Ewald energy   TEWEN  =    126263.51891014
  -Hartree energ DENC   =   -176724.37094507
  -exchange      EXHF   =         0.00000000
  -V(xc)+E(xc)   XCENC  =       228.78205037
  PAW double counting   =     61078.23319331   -59484.77151363
  entropy T*S    EENTRO =        -0.01939274
  eigenvalues    EBANDS =      -414.01854762
  atomic energy  EATOM  =     46675.88275157
  Solvation  Ediel_sol  =         0.00000000
  ---------------------------------------------------
  free energy    TOTEN  =      -356.94068708 eV

  energy without entropy =     -356.92129435  energy(sigma->0) =     -356.93422284


--------------------------------------------------------------------------------------------------------




--------------------------------------- Iteration      1(  14)  ---------------------------------------


    POTLOK:  cpu time    0.3699: real time    0.3708
    SETDIJ:  cpu time    0.0319: real time    0.0320
    EDDIAG:  cpu time    5.3778: real time    5.3923
  RMM-DIIS:  cpu time   19.4059: real time   19.4571
    ORTHCH:  cpu time    0.4969: real time    0.4983
       DOS:  cpu time    0.0014: real time    0.0014
    CHARGE:  cpu time    2.5020: real time    2.5105
    MIXING:  cpu time    0.0121: real time    0.0122
    --------------------------------------------
      LOOP:  cpu time   28.1981: real time   28.2746

 eigenvalue-minimisations  :  5061
 total energy-change (2. order) :-0.2732549E+01  (-0.1283440E+00)
 number of electron     641.0000131 magnetization      30.0259542
 augmentation part      197.2674692 magnetization      19.1681279

 Broyden mixing:
  rms(total) = 0.10311E+01    rms(broyden)= 0.10311E+01
  rms(prec ) = 0.12042E+01
  weight for this iteration     100.00

 eigenvalues of (default mixing * dielectric matrix)
  average eigenvalue GAMMA=   0.7097
  1.9232  1.1291  1.1291  0.6298  0.6298  0.2958  0.2958  0.1239  0.2310

 Free energy of the ion-electron system (eV)
  ---------------------------------------------------
  alpha Z        PSCENC =      2019.82280658
  Ewald energy   TEWEN  =    126263.51891014
  -Hartree energ DENC   =   -176751.01975916
  -exchange      EXHF   =         0.00000000
  -V(xc)+E(xc)   XCENC  =       227.13394911
  PAW double counting   =     61059.26270226   -59465.68873592
  entropy T*S    EENTRO =        -0.03868608
  eigenvalues    EBANDS =      -388.54717500
  atomic energy  EATOM  =     46675.88275157
  Solvation  Ediel_sol  =         0.00000000
  ---------------------------------------------------
  free energy    TOTEN  =      -359.67323650 eV

  energy without entropy =     -359.63455043  energy(sigma->0) =     -359.66034114


--------------------------------------------------------------------------------------------------------




--------------------------------------- Iteration      1(  15)  ---------------------------------------


    POTLOK:  cpu time    0.3950: real time    0.3962
    SETDIJ:  cpu time    0.0445: real time    0.0446
    EDDIAG:  cpu time    5.4402: real time    5.4531
  RMM-DIIS:  cpu time   19.4445: real time   19.4905
    ORTHCH:  cpu time    0.4972: real time    0.4984
       DOS:  cpu time    0.0014: real time    0.0014
    CHARGE:  cpu time    2.4320: real time    2.4411
    MIXING:  cpu time    0.0114: real time    0.0114
    --------------------------------------------
      LOOP:  cpu time   28.2662: real time   28.3367

 eigenvalue-minimisations  :  5058
 total energy-change (2. order) :-0.3382790E+01  (-0.1747348E+00)
 number of electron     641.0000130 magnetization      27.0365264
 augmentation part      197.1035917 magnetization      16.8049399

 Broyden mixing:
  rms(total) = 0.94818E+00    rms(broyden)= 0.94818E+00
  rms(prec ) = 0.12143E+01
  weight for this iteration     100.00

 eigenvalues of (default mixing * dielectric matrix)
  average eigenvalue GAMMA=   0.7507
  2.0342  2.0342  0.7621  0.5886  0.5886  0.5571  0.2966  0.2966  0.1240  0.2252

 Free energy of the ion-electron system (eV)
  ---------------------------------------------------
  alpha Z        PSCENC =      2019.82280658
  Ewald energy   TEWEN  =    126263.51891014
  -Hartree energ DENC   =   -176752.82543147
  -exchange      EXHF   =         0.00000000
  -V(xc)+E(xc)   XCENC  =       225.30424223
  PAW double counting   =     60814.72991459   -59218.54340441
  entropy T*S    EENTRO =         0.00307380
  eigenvalues    EBANDS =      -390.94888915
  atomic energy  EATOM  =     46675.88275157
  Solvation  Ediel_sol  =         0.00000000
  ---------------------------------------------------
  free energy    TOTEN  =      -363.05602612 eV

  energy without entropy =     -363.05909992  energy(sigma->0) =     -363.05705072


--------------------------------------------------------------------------------------------------------




--------------------------------------- Iteration      1(  16)  ---------------------------------------


    POTLOK:  cpu time    0.3713: real time    0.3722
    SETDIJ:  cpu time    0.0319: real time    0.0320
    EDDIAG:  cpu time    5.4337: real time    5.4467
  RMM-DIIS:  cpu time   19.4557: real time   19.5018
    ORTHCH:  cpu time    0.4961: real time    0.4973
       DOS:  cpu time    0.0014: real time    0.0014
    CHARGE:  cpu time    2.4422: real time    2.4480
    MIXING:  cpu time    0.0127: real time    0.0127
    --------------------------------------------
      LOOP:  cpu time   28.2450: real time   28.3121

 eigenvalue-minimisations  :  5057
 total energy-change (2. order) :-0.2467486E+01  (-0.1297696E+00)
 number of electron     641.0000130 magnetization      25.1566586
 augmentation part      197.0429134 magnetization      15.9678548

 Broyden mixing:
  rms(total) = 0.72589E+00    rms(broyden)= 0.72589E+00
  rms(prec ) = 0.94458E+00
  weight for this iteration     100.00

 eigenvalues of (default mixing * dielectric matrix)
  average eigenvalue GAMMA=   0.7606
  2.1173  2.1173  0.8576  0.8576  0.5620  0.5620  0.3572  0.2970  0.2970  0.1239
  0.2180

 Free energy of the ion-electron system (eV)
  ---------------------------------------------------
  alpha Z        PSCENC =      2019.82280658
  Ewald energy   TEWEN  =    126263.51891014
  -Hartree energ DENC   =   -176744.03015441
  -exchange      EXHF   =         0.00000000
  -V(xc)+E(xc)   XCENC  =       223.71633633
  PAW double counting   =     60698.24225288   -59101.08994194
  entropy T*S    EENTRO =         0.00396567
  eigenvalues    EBANDS =      -401.59043912
  atomic energy  EATOM  =     46675.88275157
  Solvation  Ediel_sol  =         0.00000000
  ---------------------------------------------------
  free energy    TOTEN  =      -365.52351229 eV

  energy without entropy =     -365.52747796  energy(sigma->0) =     -365.52483418


--------------------------------------------------------------------------------------------------------




--------------------------------------- Iteration      1(  17)  ---------------------------------------


    POTLOK:  cpu time    0.3690: real time    0.3698
    SETDIJ:  cpu time    0.0320: real time    0.0320
    EDDIAG:  cpu time    5.4470: real time    5.4649
  RMM-DIIS:  cpu time   19.4158: real time   19.4669
    ORTHCH:  cpu time    0.4969: real time    0.4984
       DOS:  cpu time    0.0014: real time    0.0014
    CHARGE:  cpu time    2.4110: real time    2.4174
    MIXING:  cpu time    0.0131: real time    0.0132
    --------------------------------------------
      LOOP:  cpu time   28.1863: real time   28.2640

 eigenvalue-minimisations  :  5060
 total energy-change (2. order) :-0.7935658E+00  (-0.3624099E-01)
 number of electron     641.0000130 magnetization      23.4523550
 augmentation part      197.0558069 magnetization      14.3512164

 Broyden mixing:
  rms(total) = 0.40549E+00    rms(broyden)= 0.40549E+00
  rms(prec ) = 0.44417E+00
  weight for this iteration     100.00

 eigenvalues of (default mixing * dielectric matrix)
  average eigenvalue GAMMA=   0.7615
  2.3208  2.3208  0.8229  0.8229  0.5920  0.5920  0.1239  0.4135  0.2967  0.2967
  0.3179  0.2177

 Free energy of the ion-electron system (eV)
  ---------------------------------------------------
  alpha Z        PSCENC =      2019.82280658
  Ewald energy   TEWEN  =    126263.51891014
  -Hartree energ DENC   =   -176739.24051415
  -exchange      EXHF   =         0.00000000
  -V(xc)+E(xc)   XCENC  =       222.85016070
  PAW double counting   =     60790.87787927   -59194.94486385
  entropy T*S    EENTRO =        -0.01704503
  eigenvalues    EBANDS =      -405.06716337
  atomic energy  EATOM  =     46675.88275157
  Solvation  Ediel_sol  =         0.00000000
  ---------------------------------------------------
  free energy    TOTEN  =      -366.31707814 eV

  energy without entropy =     -366.30003311  energy(sigma->0) =     -366.31139646


--------------------------------------------------------------------------------------------------------




--------------------------------------- Iteration      1(  18)  ---------------------------------------


    POTLOK:  cpu time    0.3684: real time    0.3696
    SETDIJ:  cpu time    0.0326: real time    0.0327
    EDDIAG:  cpu time    5.3624: real time    5.3767
  RMM-DIIS:  cpu time   19.3539: real time   19.4053
    ORTHCH:  cpu time    0.4936: real time    0.4951
       DOS:  cpu time    0.0014: real time    0.0014
    CHARGE:  cpu time    2.4089: real time    2.4152
    MIXING:  cpu time    0.0129: real time    0.0130
    --------------------------------------------
      LOOP:  cpu time   28.0342: real time   28.1089

 eigenvalue-minimisations  :  5049
 total energy-change (2. order) :-0.9356820E+00  (-0.2679282E-01)
 number of electron     641.0000130 magnetization      22.2610420
 augmentation part      197.0736290 magnetization      13.3763127

 Broyden mixing:
  rms(total) = 0.35424E+00    rms(broyden)= 0.35424E+00
  rms(prec ) = 0.38136E+00
  weight for this iteration     100.00

 eigenvalues of (default mixing * dielectric matrix)
  average eigenvalue GAMMA=   0.7604
  2.4610  2.4610  0.7291  0.7291  0.6455  0.6455  0.5152  0.5152  0.2969  0.2969
  0.1239  0.2200  0.2454

 Free energy of the ion-electron system (eV)
  ---------------------------------------------------
  alpha Z        PSCENC =      2019.82280658
  Ewald energy   TEWEN  =    126263.51891014
  -Hartree energ DENC   =   -176731.26277531
  -exchange      EXHF   =         0.00000000
  -V(xc)+E(xc)   XCENC  =       222.10525490
  PAW double counting   =     60803.10338677   -59207.48899563
  entropy T*S    EENTRO =        -0.01238724
  eigenvalues    EBANDS =      -412.92171191
  atomic energy  EATOM  =     46675.88275157
  Solvation  Ediel_sol  =         0.00000000
  ---------------------------------------------------
  free energy    TOTEN  =      -367.25276013 eV

  energy without entropy =     -367.24037289  energy(sigma->0) =     -367.24863105


--------------------------------------------------------------------------------------------------------




--------------------------------------- Iteration      1(  19)  ---------------------------------------


    POTLOK:  cpu time    0.3689: real time    0.3699
    SETDIJ:  cpu time    0.0322: real time    0.0323
    EDDIAG:  cpu time    5.3639: real time    5.3781
  RMM-DIIS:  cpu time   19.3796: real time   19.4310
    ORTHCH:  cpu time    0.4963: real time    0.4975
       DOS:  cpu time    0.0014: real time    0.0014
    CHARGE:  cpu time    2.4117: real time    2.4180
    MIXING:  cpu time    0.0139: real time    0.0139
    --------------------------------------------
      LOOP:  cpu time   28.0679: real time   28.1422

 eigenvalue-minimisations  :  5052
 total energy-change (2. order) :-0.6278580E+00  (-0.1861085E-01)
 number of electron     641.0000130 magnetization      19.4116089
 augmentation part      197.0834914 magnetization      10.8547325

 Broyden mixing:
  rms(total) = 0.32901E+00    rms(broyden)= 0.32901E+00
  rms(prec ) = 0.35243E+00
  weight for this iteration     100.00

 eigenvalues of (default mixing * dielectric matrix)
  average eigenvalue GAMMA=   0.8400
  3.5004  2.1959  1.0037  1.0037  0.7005  0.7005  0.5978  0.5978  0.1239  0.2970
  0.2970  0.3071  0.2234  0.2118

 Free energy of the ion-electron system (eV)
  ---------------------------------------------------
  alpha Z        PSCENC =      2019.82280658
  Ewald energy   TEWEN  =    126263.51891014
  -Hartree energ DENC   =   -176723.17960788
  -exchange      EXHF   =         0.00000000
  -V(xc)+E(xc)   XCENC  =       221.62527895
  PAW double counting   =     60776.73067112   -59180.92016542
  entropy T*S    EENTRO =        -0.00587648
  eigenvalues    EBANDS =      -421.35538672
  atomic energy  EATOM  =     46675.88275157
  Solvation  Ediel_sol  =         0.00000000
  ---------------------------------------------------
  free energy    TOTEN  =      -367.88061814 eV

  energy without entropy =     -367.87474167  energy(sigma->0) =     -367.87865932


--------------------------------------------------------------------------------------------------------




--------------------------------------- Iteration      1(  20)  ---------------------------------------


    POTLOK:  cpu time    0.3696: real time    0.3707
    SETDIJ:  cpu time    0.0322: real time    0.0323
    EDDIAG:  cpu time    5.3992: real time    5.4135
  RMM-DIIS:  cpu time   19.4380: real time   19.4897
    ORTHCH:  cpu time    0.4973: real time    0.4985
       DOS:  cpu time    0.0014: real time    0.0014
    CHARGE:  cpu time    2.4148: real time    2.4212
    MIXING:  cpu time    0.0136: real time    0.0137
    --------------------------------------------
      LOOP:  cpu time   28.1660: real time   28.2409

 eigenvalue-minimisations  :  5049
 total energy-change (2. order) :-0.9022380E+00  (-0.3895179E-01)
 number of electron     641.0000130 magnetization      17.4730010
 augmentation part      197.1280496 magnetization       9.2360121

 Broyden mixing:
  rms(total) = 0.27090E+00    rms(broyden)= 0.27090E+00
  rms(prec ) = 0.30348E+00
  weight for this iteration     100.00

 eigenvalues of (default mixing * dielectric matrix)
  average eigenvalue GAMMA=   0.8942
  4.5320  2.1402  1.1770  1.1770  0.6008  0.6008  0.6264  0.5535  0.5535  0.1239
  0.2973  0.2973  0.3021  0.2212  0.2099

 Free energy of the ion-electron system (eV)
  ---------------------------------------------------
  alpha Z        PSCENC =      2019.82280658
  Ewald energy   TEWEN  =    126263.51891014
  -Hartree energ DENC   =   -176703.49728713
  -exchange      EXHF   =         0.00000000
  -V(xc)+E(xc)   XCENC  =       220.75276671
  PAW double counting   =     60787.89857441   -59192.36968605
  entropy T*S    EENTRO =        -0.00319992
  eigenvalues    EBANDS =      -440.78849247
  atomic energy  EATOM  =     46675.88275157
  Solvation  Ediel_sol  =         0.00000000
  ---------------------------------------------------
  free energy    TOTEN  =      -368.78285615 eV

  energy without entropy =     -368.77965624  energy(sigma->0) =     -368.78178951


--------------------------------------------------------------------------------------------------------




--------------------------------------- Iteration      1(  21)  ---------------------------------------


    POTLOK:  cpu time    0.3671: real time    0.3680
    SETDIJ:  cpu time    0.0322: real time    0.0322
    EDDIAG:  cpu time    5.4118: real time    5.4265
  RMM-DIIS:  cpu time   19.4785: real time   19.5300
    ORTHCH:  cpu time    0.4942: real time    0.4957
       DOS:  cpu time    0.0014: real time    0.0014
    CHARGE:  cpu time    2.4349: real time    2.4412
    MIXING:  cpu time    0.0143: real time    0.0144
    --------------------------------------------
      LOOP:  cpu time   28.2343: real time   28.3094

 eigenvalue-minimisations  :  5056
 total energy-change (2. order) :-0.1893105E+00  (-0.1564105E-01)
 number of electron     641.0000130 magnetization      15.7235870
 augmentation part      197.1639974 magnetization       7.7145097

 Broyden mixing:
  rms(total) = 0.18019E+00    rms(broyden)= 0.18019E+00
  rms(prec ) = 0.20136E+00
  weight for this iteration     100.00

 eigenvalues of (default mixing * dielectric matrix)
  average eigenvalue GAMMA=   0.9812
  5.8148  2.1716  1.3387  1.3387  0.7742  0.6627  0.6627  0.5909  0.5909  0.1239
  0.2971  0.2971  0.3312  0.2754  0.2205  0.2088

 Free energy of the ion-electron system (eV)
  ---------------------------------------------------
  alpha Z        PSCENC =      2019.82280658
  Ewald energy   TEWEN  =    126263.51891014
  -Hartree energ DENC   =   -176689.78625711
  -exchange      EXHF   =         0.00000000
  -V(xc)+E(xc)   XCENC  =       220.44894210
  PAW double counting   =     60806.52099918   -59211.26326757
  entropy T*S    EENTRO =        -0.00847762
  eigenvalues    EBANDS =      -454.10857398
  atomic energy  EATOM  =     46675.88275157
  Solvation  Ediel_sol  =         0.00000000
  ---------------------------------------------------
  free energy    TOTEN  =      -368.97216670 eV

  energy without entropy =     -368.96368908  energy(sigma->0) =     -368.96934082


[...]
 -0.000   0.000  -0.000  -0.000  -0.000   0.000  -0.000   0.000   0.000   0.000  -0.000  -0.000   0.000   0.000  -0.000  -0.000
  0.000  -0.000  -0.000  -0.000  -0.000  -0.000   0.000  -0.000   0.000   0.000   0.000  -0.000   0.000   0.000   0.000  -0.000
 -0.000   0.000  -0.000   0.000  -0.000   0.000  -0.000   0.000  -0.000   0.000  -0.000  -0.000  -0.000   0.000   0.000  -0.000


------------------------ aborting loop because EDIFF is reached ----------------------------------------


    CHARGE:  cpu time    2.4023: real time    2.4080
    FORLOC:  cpu time    0.0686: real time    0.0688
    FORNL :  cpu time    8.6733: real time    8.6939
    STRESS:  cpu time   26.0446: real time   26.1060
    FORCOR:  cpu time    0.3926: real time    0.3935
    FORHAR:  cpu time    0.1035: real time    0.1037
    MIXING:  cpu time    0.0085: real time    0.0086
    OFIELD:  cpu time    0.0001: real time    0.0001

 ---------------------------------------------------------------------------------------------

         DFTD3 V3.0 Rev 1        
 Edisp (eV)  -38.72113

 E6    (eV) :   -14.2889
 E8    (eV) :   -24.4322
 % E8        : 63.10
    FORVDW:  cpu time    0.3139: real time    0.3161

  FORCE on cell =-STRESS in cart. coord.  units (eV):
  Direction    XX          YY          ZZ          XY          YZ          ZX
  --------------------------------------------------------------------------------------
  Alpha Z  2019.82281  2019.82281  2019.82281
  Ewald  162439.56018162439.03594************     0.01467    -0.57160    -0.01495
  Hartree173336.59655173336.44452************     0.00235    -0.16725    -0.00164
  E(xc)   -2858.94225 -2858.95288 -2884.66353    -0.00002    -0.00803     0.00001
  Local  ************************357898.34037    -0.01286     0.53368     0.00995
  n-local   575.32995   575.23087   314.51578    -7.67398     0.01140     3.37510
  augment  3252.97242  3253.09313  3534.13770    -0.00073     0.07783     0.00075
  Kinetic  9157.10112  9157.32468  9753.23620    49.30101     0.14896     9.73345
  Fock        0.00000     0.00000     0.00000     0.00000     0.00000     0.00000
  vdW       -53.60203   -53.58022   -28.82421    -0.00024    -0.00374    -0.00009
  -------------------------------------------------------------------------------------
  Total      81.28862    81.36971    -0.73527     0.00000     0.02125     0.00000
  in kB      67.42979    67.49706    -0.60992     0.00000     0.01762     0.00000
  external pressure =       44.77 kB  Pullay stress =        0.00 kB


 VOLUME and BASIS-vectors are now :
 -----------------------------------------------------------------------------
  energy-cutoff  :      550.00
  volume of cell :     1931.47
      direct lattice vectors                 reciprocal lattice vectors
    10.560000420  0.000000000  0.000000000     0.094696966  0.054673319  0.000000000
    -5.280000210  9.145228627  0.000000000     0.000000000  0.109346638  0.000000000
     0.000000000  0.000000000 20.000000000     0.000000000  0.000000000  0.050000000

  length of vectors
    10.560000420 10.560000420 20.000000000     0.109346638  0.109346638  0.050000000


 FORCES acting on ions
    electron-ion (+dipol)            ewald-force                    non-local-force                 convergence-correction
 -----------------------------------------------------------------------------------------------
   -.326E+00 -.306E+00 0.231E+04   0.316E+00 0.291E+00 -.231E+04   0.562E-02 0.216E-02 -.113E+00   0.774E-02 -.144E-01 -.811E-01
   0.340E+01 -.290E+01 0.779E+03   -.341E+01 0.283E+01 -.778E+03   0.108E-02 0.285E-01 -.293E+00   -.513E-01 0.577E-01 -.300E+00
   -.742E+01 -.394E+01 -.789E+03   0.747E+01 0.397E+01 0.789E+03   -.144E+00 -.816E-01 0.345E+00   0.104E+00 0.550E-01 -.251E+00
   0.508E+01 0.508E+01 -.230E+04   -.502E+01 -.509E+01 0.230E+04   -.835E-01 -.628E-01 0.765E-01   -.457E-02 0.951E-01 -.549E-02
   -.596E+00 -.333E+00 0.231E+04   0.619E+00 0.346E+00 -.231E+04   -.706E-03 -.129E-03 -.237E-01   0.358E-02 -.674E-03 -.763E-01
   0.419E-02 0.157E-01 0.776E+03   0.333E-03 -.264E-01 -.775E+03   0.542E-18 0.132E-02 -.414E+00   -.427E-05 0.946E-02 -.230E+00
   -.408E-02 -.436E+01 -.784E+03   -.392E-03 0.452E+01 0.784E+03   -.139E-16 -.266E+00 0.310E+00   -.312E-05 0.140E+00 -.297E+00
   0.410E+01 0.291E+01 -.226E+04   -.428E+01 -.298E+01 0.226E+04   0.127E+00 0.515E-01 0.136E-01   0.579E-01 0.159E-01 -.348E-01
   0.449E-02 -.377E+00 0.231E+04   -.811E-04 0.405E+00 -.231E+04   0.000E+00 -.822E-02 -.732E-01   -.105E-05 -.430E-02 -.472E-01
   -.422E+01 -.137E+01 0.779E+03   0.417E+01 0.140E+01 -.778E+03   0.234E-01 -.146E-01 -.293E+00   0.822E-01 0.212E-01 -.302E+00
   0.186E+01 0.213E+00 -.762E+03   -.184E+01 -.274E+00 0.762E+03   0.234E-01 -.677E-02 0.405E+00   -.670E-01 0.672E-01 -.272E+00
   -.512E-02 0.186E+02 -.232E+04   0.498E-03 -.195E+02 0.232E+04   0.000E+00 0.789E+00 -.378E+00   0.257E-05 0.724E-01 -.461E-01
   0.335E+00 -.306E+00 0.231E+04   -.316E+00 0.291E+00 -.231E+04   -.562E-02 0.216E-02 -.113E+00   -.774E-02 -.144E-01 -.811E-01
   -.339E+01 -.290E+01 0.779E+03   0.341E+01 0.283E+01 -.778E+03   -.108E-02 0.285E-01 -.293E+00   0.513E-01 0.577E-01 -.300E+00
   0.741E+01 -.394E+01 -.789E+03   -.747E+01 0.397E+01 0.789E+03   0.144E+00 -.816E-01 0.345E+00   -.104E+00 0.550E-01 -.251E+00
   -.509E+01 0.508E+01 -.230E+04   0.502E+01 -.509E+01 0.230E+04   0.835E-01 -.628E-01 0.765E-01   0.457E-02 0.951E-01 -.549E-02
   0.160E+00 0.901E-01 0.231E+04   -.134E+00 -.708E-01 -.231E+04   -.184E-02 -.839E-03 -.109E+00   -.420E-02 -.103E-01 -.101E+00
   0.370E+00 0.206E+00 0.783E+03   -.404E+00 -.222E+00 -.782E+03   -.267E-01 -.143E-01 -.360E+00   0.418E-01 0.161E-01 -.367E+00
   0.620E+00 -.140E+01 -.762E+03   -.544E+00 0.142E+01 0.762E+03   0.213E-01 -.143E-01 0.401E+00   -.103E+00 0.152E-01 -.280E+00
   0.392E+00 0.101E+00 -.232E+04   -.347E+00 -.656E-01 0.232E+04   -.634E-01 -.349E-01 0.103E+00   0.144E-01 0.307E-02 0.143E-01
   0.605E+00 -.333E+00 0.231E+04   -.619E+00 0.346E+00 -.231E+04   0.706E-03 -.129E-03 -.237E-01   -.358E-02 -.675E-03 -.763E-01
   0.427E-02 -.166E+01 0.784E+03   0.490E-03 0.163E+01 -.783E+03   0.260E-17 0.244E-01 -.493E+00   0.189E-05 0.312E-01 -.374E+00
   -.418E-02 -.598E-01 -.788E+03   -.466E-03 0.767E-01 0.788E+03   0.108E-18 -.130E-02 0.438E+00   0.379E-05 -.151E-01 -.246E+00
   -.411E+01 0.291E+01 -.226E+04   0.428E+01 -.298E+01 0.226E+04   -.127E+00 0.515E-01 0.136E-01   -.579E-01 0.159E-01 -.348E-01
   0.448E-02 -.168E+00 0.231E+04   0.161E-03 0.145E+00 -.231E+04   0.000E+00 0.220E-02 -.111E+00   0.170E-05 0.210E-02 -.104E+00
   0.423E+01 -.137E+01 0.779E+03   -.417E+01 0.140E+01 -.778E+03   -.234E-01 -.146E-01 -.293E+00   -.822E-01 0.212E-01 -.302E+00
   -.187E+01 0.213E+00 -.762E+03   0.184E+01 -.274E+00 0.762E+03   -.234E-01 -.677E-02 0.405E+00   0.670E-01 0.672E-01 -.272E+00
   -.438E-02 0.391E-01 -.232E+04   0.673E-04 -.686E-01 0.232E+04   0.000E+00 0.575E-01 0.101E+00   -.802E-06 -.415E-01 0.169E-01
   -.151E+00 0.901E-01 0.231E+04   0.134E+00 -.707E-01 -.231E+04   0.184E-02 -.839E-03 -.109E+00   0.421E-02 -.103E-01 -.101E+00
   -.361E+00 0.206E+00 0.783E+03   0.405E+00 -.221E+00 -.782E+03   0.267E-01 -.143E-01 -.360E+00   -.418E-01 0.161E-01 -.367E+00
   -.628E+00 -.140E+01 -.762E+03   0.543E+00 0.142E+01 0.762E+03   -.213E-01 -.143E-01 0.401E+00   0.103E+00 0.152E-01 -.280E+00
   -.401E+00 0.101E+00 -.232E+04   0.347E+00 -.656E-01 0.232E+04   0.634E-01 -.349E-01 0.103E+00   -.144E-01 0.307E-02 0.143E-01
   -.423E+00 -.132E+00 0.231E+04   0.401E+00 0.121E+00 -.231E+04   0.470E-02 0.412E-02 -.113E+00   -.174E-02 0.183E-01 -.800E-01
   -.921E+00 0.433E+01 0.779E+03   0.860E+00 -.431E+01 -.778E+03   0.251E-01 -.107E-01 -.294E+00   0.313E-01 -.689E-01 -.300E+00
   -.707E+00 -.681E+00 -.768E+03   0.670E+00 0.661E+00 0.768E+03   0.406E-02 0.129E-02 0.392E+00   0.343E-01 0.257E-01 -.322E+00
   0.700E+01 0.184E+01 -.230E+04   -.699E+01 -.177E+01 0.230E+04   -.966E-01 -.472E-01 0.761E-01   0.817E-01 -.506E-01 -.459E-02
   0.446E-02 -.168E-01 0.231E+04   -.743E-04 0.129E-01 -.231E+04   0.163E-18 0.887E-03 -.149E+00   0.124E-05 0.232E-02 -.798E-01
   0.151E+01 0.801E+00 0.784E+03   -.149E+01 -.781E+00 -.783E+03   -.202E-01 -.100E-01 -.494E+00   -.178E-01 -.201E-01 -.370E+00
   -.382E+01 0.211E+01 -.783E+03   0.395E+01 -.220E+01 0.783E+03   -.227E+00 0.132E+00 0.314E+00   0.133E+00 -.626E-01 -.314E+00
   -.441E-02 -.280E+00 -.230E+04   -.596E-04 0.263E+00 0.230E+04   0.108E-17 0.339E-02 0.297E-01   0.301E-05 0.215E-01 -.213E-01
   -.970E-01 0.422E+00 0.231E+04   0.897E-01 -.402E+00 -.231E+04   -.924E-03 -.572E-02 -.113E+00   -.977E-02 -.103E-02 -.771E-01
   0.413E-02 -.238E+01 0.780E+03   0.450E-03 0.235E+01 -.779E+03   -.173E-17 0.128E-01 -.349E+00   0.576E-06 0.214E-01 -.370E+00
   -.421E-02 0.832E+01 -.789E+03   -.372E-03 -.840E+01 0.789E+03   0.000E+00 0.168E+00 0.341E+00   -.543E-05 -.104E+00 -.257E+00
   0.190E+01 -.730E+01 -.230E+04   -.195E+01 0.724E+01 0.230E+04   -.119E-01 0.115E+00 0.769E-01   0.834E-01 -.266E-01 -.885E-02
   -.336E+00 0.193E+00 0.231E+04   0.364E+00 -.215E+00 -.231E+04   -.800E-02 0.508E-02 -.737E-01   -.153E-02 0.875E-02 -.436E-01
   -.196E+01 0.108E+01 0.780E+03   0.193E+01 -.107E+01 -.779E+03   0.103E-01 -.430E-02 -.351E+00   0.265E-01 -.795E-02 -.372E+00
   0.997E+00 0.135E+01 -.762E+03   -.105E+01 -.129E+01 0.762E+03   0.643E-02 0.219E-01 0.404E+00   0.356E-01 -.935E-01 -.278E+00
   0.156E+02 -.900E+01 -.232E+04   -.163E+02 0.945E+01 0.232E+04   0.715E+00 -.420E+00 -.333E+00   0.789E-01 -.423E-01 -.455E-01
   0.345E+00 0.193E+00 0.231E+04   -.364E+00 -.215E+00 -.231E+04   0.800E-02 0.508E-02 -.737E-01   0.152E-02 0.875E-02 -.436E-01
   0.197E+01 0.108E+01 0.780E+03   -.193E+01 -.107E+01 -.779E+03   -.103E-01 -.430E-02 -.351E+00   -.265E-01 -.795E-02 -.372E+00
   -.101E+01 0.135E+01 -.762E+03   0.105E+01 -.129E+01 0.762E+03   -.643E-02 0.219E-01 0.404E+00   -.356E-01 -.935E-01 -.278E+00
   -.156E+02 -.900E+01 -.232E+04   0.163E+02 0.945E+01 0.232E+04   -.715E+00 -.420E+00 -.333E+00   -.789E-01 -.423E-01 -.455E-01
   0.445E-02 0.680E+00 0.231E+04   -.318E-04 -.705E+00 -.231E+04   -.325E-18 0.154E-02 -.242E-01   -.532E-06 -.143E-02 -.695E-01
   -.150E+01 0.801E+00 0.784E+03   0.149E+01 -.781E+00 -.783E+03   0.202E-01 -.100E-01 -.494E+00   0.178E-01 -.201E-01 -.370E+00
   0.382E+01 0.211E+01 -.783E+03   -.395E+01 -.220E+01 0.783E+03   0.227E+00 0.132E+00 0.314E+00   -.133E+00 -.626E-01 -.314E+00
   -.446E-02 -.517E+01 -.226E+04   0.254E-04 0.534E+01 0.226E+04   0.000E+00 -.131E+00 0.132E-01   0.286E-05 -.475E-01 -.399E-01
   0.106E+00 0.422E+00 0.231E+04   -.897E-01 -.401E+00 -.231E+04   0.924E-03 -.572E-02 -.113E+00   0.977E-02 -.103E-02 -.771E-01
   0.414E-02 -.449E+00 0.783E+03   0.699E-03 0.502E+00 -.782E+03   0.000E+00 0.327E-01 -.361E+00   -.202E-06 -.580E-01 -.365E+00
   -.435E-02 0.827E+00 -.768E+03   -.427E-03 -.803E+00 0.768E+03   -.173E-17 -.390E-02 0.388E+00   0.515E-05 -.263E-01 -.331E+00
   -.191E+01 -.730E+01 -.230E+04   0.195E+01 0.724E+01 0.230E+04   0.119E-01 0.115E+00 0.769E-01   -.834E-01 -.266E-01 -.885E-02
   0.432E+00 -.132E+00 0.231E+04   -.401E+00 0.121E+00 -.231E+04   -.470E-02 0.412E-02 -.113E+00   0.175E-02 0.183E-01 -.800E-01
   0.929E+00 0.433E+01 0.779E+03   -.859E+00 -.431E+01 -.778E+03   -.251E-01 -.107E-01 -.294E+00   -.313E-01 -.689E-01 -.300E+00
   0.699E+00 -.681E+00 -.768E+03   -.671E+00 0.661E+00 0.768E+03   -.406E-02 0.129E-02 0.392E+00   -.343E-01 0.257E-01 -.322E+00
   -.701E+01 0.184E+01 -.230E+04   0.699E+01 -.177E+01 0.230E+04   0.966E-01 -.472E-01 0.761E-01   -.817E-01 -.506E-01 -.458E-02
   -.188E-03 -.223E+00 -.293E+03   0.607E-03 0.252E+00 0.295E+03   -.867E-18 -.233E-01 -.170E+01   0.613E-06 -.105E-02 0.350E-02
 -----------------------------------------------------------------------------------------------
   0.457E-03 0.767E-01 0.146E+02   0.773E-13 -.188E-11 0.216E-11   -.564E-16 -.729E-01 -.314E+01   0.191E-04 0.154E-02 -.114E+02
 
 
 POSITION                                       TOTAL-FORCE (eV/Angst)
 -----------------------------------------------------------------------------------
     10.55998      0.00001      1.11585        -0.001248     -0.026924     -0.003926
      2.63997      1.52422      3.55048        -0.062376      0.021318      0.020197
      0.00925      3.05481      5.97261         0.023690      0.010774     -0.002695
     -0.00016      0.00017      8.38472        -0.015965      0.019828     -0.010778
      9.23998      2.28632      1.11585         0.020634      0.011847      0.011702
      1.31997      3.81053      3.55048        -0.000000     -0.000060      0.272314
      1.32003      0.77654      5.97138         0.000000      0.031698     -0.000711
     -1.32916      2.28451      8.31634         0.019832     -0.007373      0.014438
      1.31998      2.28632      1.11585         0.000000      0.015610     -0.055077
     -1.32003      3.81053      3.55048         0.048988      0.042068      0.016516
      3.95995      0.76036      5.93541        -0.018264      0.003709      0.019631
      1.32002      2.26230      8.52144        -0.000000      0.003844      0.010168
      2.63998      0.00001      1.11585         0.001248     -0.026924     -0.003926
     -0.00003      1.52422      3.55048         0.062376      0.021318      0.020197
      2.63081      3.05481      5.97261        -0.023690      0.010774     -0.002695
      2.64021      0.00017      8.38472         0.015965      0.019828     -0.010778
      5.27998      0.00001      1.11585         0.015212      0.008218     -0.011072
      7.91997      1.52422      3.55048        -0.020034     -0.011072     -0.011677
      5.28261      3.05128      5.93566        -0.007062      0.013485      0.014538
      5.27908      0.00161      8.41050         0.001123      0.003876     -0.022555
      3.95998      2.28632      1.11585        -0.020634      0.011847      0.011702
      6.59997      3.81053      3.55048         0.000000      0.020868     -0.027842
      6.60003      0.76353      5.97273         0.000000      0.000291      0.001378
      3.96921      2.28451      8.31634        -0.019832     -0.007373      0.014438
      6.59998      2.28632      1.11585        -0.000000     -0.018119     -0.012026
      3.95997      3.81053      3.55048        -0.048988      0.042068      0.016516
      9.24010      0.76036      5.93541         0.018264      0.003709      0.019631
      6.60002      2.29091      8.41214         0.000000     -0.013699     -0.023379
      7.91998      0.00001      1.11585        -0.015212      0.008218     -0.011072
      5.27997      1.52422      3.55048         0.020034     -0.011072     -0.011677
      7.91744      3.05128      5.93566         0.007062      0.013485      0.014538
      7.92097      0.00161      8.41050        -0.001123      0.003876     -0.022555
      7.91998      4.57263      1.11585        -0.024036      0.011733     -0.004276
     -0.00003      6.09683      3.55048        -0.011550     -0.063328      0.018804
     -2.64107      7.62165      5.94883         0.007094      0.007163      0.000312
     -2.64156      4.57670      8.38309         0.003058     -0.027838     -0.003963
      6.59998      6.85894      1.11585        -0.000000     -0.000759     -0.046039
     -1.32003      8.38314      3.55048        -0.018827     -0.010226     -0.030161
     -1.30852      5.32930      5.97037         0.028195     -0.014099     -0.005304
     -3.95998      6.86131      8.36647        -0.000000      0.007941     -0.034400
     -1.32002      6.85894      1.11585        -0.022475      0.013865     -0.004202
     -3.96003      8.38314      3.55048        -0.000000      0.007370     -0.025574
      1.32003      5.32536      5.97293         0.000000     -0.023595     -0.005130
     -1.32170      6.86147      8.38336         0.023315      0.020277     -0.005335
     -0.00002      4.57263      1.11585         0.013824     -0.008314     -0.054105
     -2.64003      6.09683      3.55048         0.005741     -0.003118     -0.027258
     -0.00274      7.62398      5.93532        -0.005138     -0.016187      0.017190
     -0.02222      4.58798      8.51803         0.007446     -0.006974      0.014323
      2.63998      4.57263      1.11585        -0.013824     -0.008314     -0.054105
      5.27997      6.09683      3.55048        -0.005741     -0.003118     -0.027258
      2.64279      7.62398      5.93532         0.005138     -0.016187      0.017190
      2.66227      4.58798      8.51803        -0.007446     -0.006974      0.014323
      1.31998      6.85894      1.11585         0.000000     -0.024675      0.011952
      3.95997      8.38314      3.55048         0.018827     -0.010226     -0.030161
      3.94857      5.32930      5.97037        -0.028195     -0.014099     -0.005304
      1.32002      6.87109      8.31634        -0.000000     -0.011794      0.015438
      3.95998      6.85894      1.11585         0.022475      0.013865     -0.004202
      1.31997      8.38314      3.55048        -0.000000      0.023003     -0.012743
      6.60003      5.33734      5.94876        -0.000000     -0.008556     -0.003882
      3.96175      6.86147      8.38336        -0.023315      0.020277     -0.005335
      5.27998      4.57263      1.11585         0.024036      0.011733     -0.004276
      2.63997      6.09683      3.55048         0.011550     -0.063328      0.018804
      5.28113      7.62165      5.94883        -0.007094      0.007163      0.000312
      5.28161      4.57670      8.38309        -0.003058     -0.027838     -0.003963
      1.32000      3.80603      9.53819        -0.000000      0.005219      0.034869
 -----------------------------------------------------------------------------------
    total drift:                                0.000476      0.005297      0.067197


--------------------------------------------------------------------------------------------------------



  FREE ENERGIE OF THE ION-ELECTRON SYSTEM (eV)
  ---------------------------------------------------
  free  energy   TOTEN  =      -408.86893741 eV

  energy  without entropy=     -408.83367191  energy(sigma->0) =     -408.85718224
 
 d Force = 0.3760012E-03[ 0.263E-04, 0.726E-03]  d Energy = 0.3678148E-03 0.819E-05
 d Force = 0.9371971E+01[ 0.937E+01, 0.937E+01]  d Ewald  = 0.9371969E+01 0.252E-05


--------------------------------------------------------------------------------------------------------


    POTLOK:  cpu time    0.3956: real time    0.4022


--------------------------------------------------------------------------------------------------------




--------------------------------------------------------------------------------------------------------


  
 reached required accuracy - stopping structural energy minimisation
     LOOP+:  cpu time  182.2635: real time  183.2387
    4ORBIT:  cpu time    0.0000: real time    0.0000

 total amount of memory used by VASP MPI-rank0   181115. kBytes
=======================================================================

   base      :      30000. kBytes
   nonlr-proj:      30904. kBytes
   fftplans  :      17093. kBytes
   grid      :      44247. kBytes
   one-center:        528. kBytes
   wavefun   :      58343. kBytes
 
  
  
 General timing and accounting informations for this job:
 ========================================================
  
                  Total CPU time used (sec):     8512.812
                            User time (sec):     8499.838
                          System time (sec):       12.974
                         Elapsed time (sec):     8537.247
  
                   Maximum memory used (kb):      718528.
                   Average memory used (kb):           0.
  
                          Minor page faults:      3244084
                          Major page faults:            0
                 Voluntary context switches:         4822
