 vasp.5.4.4.18Apr17-6-g9f103f2a35 (build Nov 30 2020 22:55:02) complex          
  
 executed on             LinuxIFC date 2023.09.08  21:37:34
 running on   40 total cores
 distrk:  each k-point on   40 cores,    1 groups
 distr:  one band on NCORES_PER_BAND=   4 cores,   10 groups


--------------------------------------------------------------------------------------------------------


 INCAR:
 POTCAR:    PAW_PBE Pt 04Feb2005                  
 POTCAR:    PAW_PBE H 15Jun2001                   
 POTCAR:    PAW_PBE Pt 04Feb2005                  
   VRHFIN =Pt: s1d9                                                             
   LEXCH  = PE                                                                  
   EATOM  =   729.1176 eV,   53.5886 Ry                                         
                                                                                
   TITEL  = PAW_PBE Pt 04Feb2005                                                
   LULTRA =        F    use ultrasoft PP ?                                      
   IUNSCR =        1    unscreen: 0-lin 1-nonlin 2-no                           
   RPACOR =    2.330    partial core radius                                     
   POMASS =  195.080; ZVAL   =   10.000    mass and valenz                      
   RCORE  =    2.600    outmost cutoff radius                                   
   RWIGS  =    2.750; RWIGS  =    1.455    wigner-seitz radius (au A)           
   ENMAX  =  230.283; ENMIN  =  172.712 eV                                      
   ICORE  =        3    local potential                                         
   LCOR   =        T    correct aug charges                                     
   LPAW   =        T    paw PP                                                  
   EAUG   =  358.966                                                            
   DEXC   =    0.000                                                            
   RMAX   =    2.658    core radius for proj-oper                               
   RAUG   =    1.300    factor for augmentation sphere                          
   RDEP   =    2.761    radius for radial grids                                 
   RDEPT  =    2.203    core radius for aug-charge                              
                                                                                
   Atomic configuration                                                         
   16 entries                                                                   
     n  l   j            E        occ.                                          
     1  0  0.50    -78401.1885   2.0000                                         
     2  0  0.50    -13770.7750   2.0000                                         
     2  1  1.50    -11931.0468   6.0000                                         
     3  0  0.50     -3234.7234   2.0000                                         
     3  1  1.50     -2699.2216   6.0000                                         
     3  2  2.50     -2119.5714  10.0000                                         
     4  0  0.50      -695.1528   2.0000                                         
     4  1  1.50      -519.6034   6.0000                                         
     4  2  2.50      -306.6786  10.0000                                         
     4  3  3.50       -70.1041  14.0000                                         
     5  0  0.50      -101.7747   2.0000                                         
     5  1  1.50       -55.9873   6.0000                                         
     5  2  2.50        -6.1423   9.0000                                         
     6  0  0.50        -5.6573   1.0000                                         
     6  1  1.50        -6.8029   0.0000                                         
     5  3  2.50        -1.3606   0.0000                                         
   Description                                                                  
     l       E           TYP  RCUT    TYP  RCUT                                 
     2     -6.1423404     23  2.500                                             
     2     -7.5029230     23  2.500                                             
     0     -5.6573207     23  2.500                                             
     0      0.7416693     23  2.500                                             
     1     -2.7211652     23  2.600                                             
     1     20.4087390     23  2.600                                             
     3     -1.3605826     23  2.500                                             
  local pseudopotential read in
  partial core-charges read in
  partial kinetic energy density read in
  atomic valenz-charges read in
  non local Contribution for L=           2  read in
    real space projection operators read in
  non local Contribution for L=           2  read in
    real space projection operators read in
  non local Contribution for L=           0  read in
    real space projection operators read in
  non local Contribution for L=           0  read in
    real space projection operators read in
  non local Contribution for L=           1  read in
    real space projection operators read in
  non local Contribution for L=           1  read in
    real space projection operators read in
    PAW grid and wavefunctions read in
 
   number of l-projection  operators is LMAX  =           6
   number of lm-projection operators is LMMAX =          18
 
 POTCAR:    PAW_PBE H 15Jun2001                   
   VRHFIN =H: ultrasoft test                                                    
   LEXCH  = PE                                                                  
   EATOM  =    12.4884 eV,    0.9179 Ry                                         
                                                                                
   TITEL  = PAW_PBE H 15Jun2001                                                 
   LULTRA =        F    use ultrasoft PP ?                                      
   IUNSCR =        0    unscreen: 0-lin 1-nonlin 2-no                           
   RPACOR =    0.000    partial core radius                                     
   POMASS =    1.000; ZVAL   =    1.000    mass and valenz                      
   RCORE  =    1.100    outmost cutoff radius                                   
   RWIGS  =    0.700; RWIGS  =    0.370    wigner-seitz radius (au A)           
   ENMAX  =  250.000; ENMIN  =  200.000 eV                                      
   RCLOC  =    0.701    cutoff for local pot                                    
   LCOR   =        T    correct aug charges                                     
   LPAW   =        T    paw PP                                                  
   EAUG   =  400.000                                                            
   RMAX   =    1.123    core radius for proj-oper                               
   RAUG   =    1.200    factor for augmentation sphere                          
   RDEP   =    1.112    radius for radial grids                                 
   RDEPT  =    0.926    core radius for aug-charge                              
                                                                                
   Atomic configuration                                                         
    2 entries                                                                   
     n  l   j            E        occ.                                          
     1  0  0.50        -6.4927   1.0000                                         
     2  1  0.50        -3.4015   0.0000                                         
   Description                                                                  
     l       E           TYP  RCUT    TYP  RCUT                                 
     0     -6.4927494     23  1.100                                             
     0      6.8029130     23  1.100                                             
     1     -4.0817478     23  1.100                                             
  local pseudopotential read in
  atomic valenz-charges read in
  non local Contribution for L=           0  read in
    real space projection operators read in
  non local Contribution for L=           0  read in
    real space projection operators read in
  non local Contribution for L=           1  read in
    real space projection operators read in
    PAW grid and wavefunctions read in
 
   number of l-projection  operators is LMAX  =           3
   number of lm-projection operators is LMMAX =           5
 
 Optimization of the real space projectors (new method)

 maximal supplied QI-value         = 14.36
 optimisation between [QCUT,QGAM] = [ 11.92, 23.98] = [ 39.79,161.09] Ry 
 Optimized for a Real-space Cutoff    1.49 Angstroem

   l    n(q)    QCUT    max X(q) W(low)/X(q) W(high)/X(q)  e(spline) 
   2     10    11.920    66.195    0.79E-04    0.18E-03    0.24E-06
   2     10    11.920    64.643    0.81E-04    0.19E-03    0.24E-06
   0     11    11.920    95.520    0.28E-04    0.54E-04    0.18E-06
   0     11    11.920    63.403    0.27E-04    0.52E-04    0.17E-06
   1     10    11.920    19.961    0.18E-04    0.11E-03    0.23E-06
   1     10    11.920    13.289    0.25E-04    0.87E-04    0.19E-06
 Optimization of the real space projectors (new method)

 maximal supplied QI-value         = 34.20
 optimisation between [QCUT,QGAM] = [ 11.97, 23.94] = [ 40.13,160.53] Ry 
 Optimized for a Real-space Cutoff    1.18 Angstroem

   l    n(q)    QCUT    max X(q) W(low)/X(q) W(high)/X(q)  e(spline) 
   0      8    11.971    19.460    0.15E-03    0.31E-03    0.25E-06
   0      8    11.971    12.209    0.13E-03    0.29E-03    0.25E-06
   1      8    11.971     4.655    0.22E-03    0.24E-03    0.21E-06
  PAW_PBE Pt 04Feb2005                  :
 energy of atom  1       EATOM= -729.1176
 kinetic energy error for atom=    0.0021 (will be added to EATOM!!)
  PAW_PBE H 15Jun2001                   :
 energy of atom  2       EATOM=  -12.4884
 kinetic energy error for atom=    0.0008 (will be added to EATOM!!)
 
 
 POSCAR: Pt111                                   
  positions in direct lattice
  velocities in cartesian coordinates
 exchange correlation table for  LEXCH =        8
   RHO(1)=    0.500       N(1)  =     2000
   RHO(2)=  100.500       N(2)  =     4000
 


--------------------------------------------------------------------------------------------------------


 ion  position               nearest neighbor table
   1  0.784  0.870  0.335-  73 2.67   2 2.67   3 2.67  56 2.67  43 2.67  72 2.67  71 2.83  20 2.84
                            55 2.84  35 2.86  27 2.86  34 2.87
   2  0.034  0.871  0.334-  23 2.66  47 2.66  72 2.67   1 2.67   3 2.67  57 2.67  65 2.81  68 2.82
                            55 2.82  39 2.84  29 2.87  27 2.89
   3  0.034  0.620  0.334-  15 2.66   9 2.67  56 2.67   1 2.67   2 2.67  57 2.67  12 2.82  55 2.82
                            76 2.82  39 2.84  28 2.87  35 2.88
   4  0.787  0.868  0.009-  44 2.66  75 2.66  74 2.66   5 2.67  58 2.67   6 2.67  78 2.86  21 2.86
                            19 2.87
   5  0.037  0.868  0.009-  59 2.66  24 2.66   6 2.66   4 2.67  48 2.67  74 2.67  49 2.86  70 2.86
                            78 2.86
   6  0.037  0.618  0.010-  10 2.66  59 2.66   5 2.66  58 2.66  18 2.67   4 2.67  70 2.86  46 2.86
                            21 2.86
   7  0.620  0.202  0.119-  11 2.66  61 2.66  22 2.66  78 2.66  53 2.67  19 2.67  71 2.82  79 2.82
                            80 2.84  42 2.86  44 2.86  74 2.87
   8  0.370  0.952  0.119-  60 2.66  19 2.66  53 2.66  25 2.67  54 2.67  49 2.67  69 2.82  66 2.82
                            26 2.83  16 2.86  24 2.86  75 2.87
   9  0.034  0.370  0.335-  47 2.66  13 2.66   3 2.67  56 2.67  15 2.68  63 2.68  12 2.82  62 2.83
                            77 2.83  33 2.84  30 2.86  28 2.87
  10  0.037  0.368  0.010-  16 2.66  18 2.66   6 2.66  48 2.67  58 2.67  64 2.67  54 2.86  46 2.86
                            45 2.86
  11  0.870  0.202  0.119-   7 2.66  78 2.66  22 2.66  49 2.67  54 2.67  45 2.67  65 2.82  77 2.82
                            79 2.83  64 2.86  74 2.86  48 2.87
  12  0.952  0.536  0.227-  62 2.66  77 2.66  55 2.67  20 2.67  67 2.67  76 2.67   3 2.82   9 2.82
                            56 2.82  45 2.82  21 2.82  46 2.83
  13  0.283  0.121  0.334-   9 2.66  47 2.66  43 2.66  73 2.66  15 2.68  23 2.68  62 2.81  26 2.83
                            69 2.83  33 2.85  31 2.85  36 2.87
  14  0.533  0.620  0.337-  41 2.65  57 2.65  63 2.65  23 2.66  56 2.67  73 2.67  52 2.80  51 2.81
                            66 2.86  67 2.87  38 2.93  37 2.94
  15  0.284  0.371  0.336-  57 2.65  41 2.65   3 2.66  43 2.66  13 2.68   9 2.68  76 2.83  36 2.84
                            80 2.85  62 2.85  28 2.85  50 2.94
  16  0.287  0.118  0.010-  10 2.66  48 2.66  18 2.66  24 2.66  75 2.67  44 2.67   8 2.86  53 2.86
                            54 2.87
  17  0.537  0.618  0.009-  58 2.66  75 2.66  64 2.66  42 2.67  24 2.67  59 2.67  22 2.86  25 2.86
                            60 2.87
  18  0.287  0.368  0.010-  10 2.66  16 2.66  42 2.67  44 2.67   6 2.67  59 2.67  53 2.86  61 2.86
                            46 2.87
  19  0.620  0.952  0.119-  53 2.66   8 2.66  25 2.66  21 2.67   7 2.67  78 2.67  20 2.82  71 2.82
                            69 2.83  44 2.86  75 2.86   4 2.87
  20  0.702  0.786  0.226-  71 2.66  55 2.66  69 2.67  12 2.67  66 2.67  67 2.67  56 2.81  19 2.82
                            25 2.82  73 2.83  21 2.83   1 2.84
  21  0.870  0.702  0.119-  70 2.66  25 2.66  78 2.66  45 2.67  46 2.67  19 2.67  55 2.82  12 2.82
                            20 2.83  58 2.86   4 2.86   6 2.86
  22  0.620  0.452  0.119-  11 2.66  45 2.66   7 2.66  60 2.67  61 2.67  25 2.67  79 2.82  67 2.82
                            17 2.86  42 2.86  64 2.87  51 2.88
  23  0.284  0.869  0.335-  14 2.66  57 2.66   2 2.66  73 2.66  47 2.68  13 2.68  68 2.83  26 2.84
                            66 2.84  31 2.85  29 2.85  37 2.93
  24  0.287  0.868  0.009-   5 2.66  48 2.66  16 2.66  59 2.67  75 2.67  17 2.67  60 2.86   8 2.86
                            49 2.87
  25  0.620  0.702  0.119-  19 2.66  60 2.66  45 2.66  21 2.66   8 2.67  22 2.67  20 2.82  67 2.82
                            66 2.83  17 2.86  75 2.86  58 2.87
  26  0.202  0.036  0.227-  69 2.66  66 2.66  68 2.66  65 2.67  77 2.67  62 2.67  54 2.82  49 2.82
                            13 2.83   8 2.83  47 2.83  23 2.84
  27  0.866  0.955  0.445-  39 2.65  40 2.65  29 2.66  32 2.66  34 2.66  35 2.67   1 2.86  72 2.88
                             2 2.89
  28  0.116  0.455  0.444-  50 2.64  35 2.66  30 2.66  33 2.66  39 2.66  36 2.67  15 2.85   9 2.87
                             3 2.87
  29  0.116  0.955  0.444-  37 2.65  32 2.66  27 2.66  33 2.66  39 2.67  31 2.67  23 2.85  47 2.86
                             2 2.87
  30  0.866  0.455  0.444-  38 2.64  35 2.66  28 2.66  33 2.66  52 2.67  32 2.67  63 2.85   9 2.86
                            56 2.86
  31  0.366  0.955  0.444-  37 2.65  36 2.66  34 2.66  33 2.66  52 2.67  29 2.67  23 2.85  13 2.85
                            73 2.87
  32  0.866  0.204  0.444-  38 2.65  29 2.66  27 2.66  40 2.66  33 2.67  30 2.67  63 2.84  72 2.87
                            47 2.87
  33  0.116  0.205  0.443-  31 2.66  29 2.66  28 2.66  30 2.66  32 2.67  36 2.67   9 2.84  13 2.85
                            47 2.85
  34  0.616  0.955  0.445-  52 2.65  40 2.65  36 2.66  31 2.66  27 2.66  35 2.67   1 2.87  43 2.88
                            73 2.88
  35  0.866  0.704  0.445-  39 2.65  52 2.65  28 2.66  30 2.66  34 2.67  27 2.67   1 2.86   3 2.88
                            56 2.88
  36  0.367  0.204  0.444-  50 2.65  31 2.66  34 2.66  40 2.66  33 2.67  28 2.67  15 2.84  13 2.87
                            43 2.87
  37  0.364  0.708  0.450-  81 1.89  31 2.65  29 2.65  52 2.68  39 2.68  50 2.72  38 2.72  23 2.93
                            57 2.93  14 2.94
  38  0.619  0.453  0.450-  81 1.85  30 2.64  32 2.65  52 2.68  40 2.68  50 2.72  37 2.72  14 2.93
                            41 2.94  63 2.94
  39  0.115  0.705  0.443-  27 2.65  35 2.65  28 2.66  29 2.67  50 2.68  37 2.68  57 2.80   3 2.84
                             2 2.84
  40  0.617  0.203  0.442-  27 2.65  34 2.65  36 2.66  32 2.66  38 2.68  50 2.68  41 2.80  43 2.84
                            72 2.84
  41  0.533  0.371  0.337-  14 2.65  57 2.65  15 2.65  63 2.65  43 2.67  72 2.67  40 2.80  51 2.80
                            80 2.86  79 2.87  38 2.94  50 2.95
  42  0.537  0.368  0.009-  64 2.66  17 2.67  18 2.67  59 2.67  74 2.67  44 2.67   7 2.86  22 2.86
                            61 2.87
  43  0.533  0.121  0.334-  15 2.66  13 2.66  73 2.67   1 2.67  72 2.67  41 2.67  80 2.81  69 2.81
                            71 2.83  40 2.84  36 2.87  34 2.88
  44  0.537  0.118  0.009-   4 2.66  74 2.66  18 2.67  42 2.67  75 2.67  16 2.67  19 2.86   7 2.86
                            53 2.87
  45  0.870  0.452  0.119-  22 2.66  25 2.66  54 2.66  21 2.67  46 2.67  11 2.67  77 2.82  12 2.82
                            67 2.83  58 2.86  64 2.86  10 2.86
  46  0.120  0.452  0.119-  70 2.66  61 2.66  53 2.67  21 2.67  54 2.67  45 2.67  62 2.82  76 2.83
                            12 2.83   6 2.86  10 2.86  18 2.87
  47  0.034  0.121  0.334-   9 2.66  13 2.66  72 2.66   2 2.66  63 2.68  23 2.68  77 2.81  65 2.82
                            26 2.83  33 2.85  29 2.86  32 2.87
  48  0.037  0.118  0.009-  16 2.66  24 2.66  64 2.66  74 2.67  10 2.67   5 2.67  49 2.86  54 2.86
                            11 2.87
  49  0.120  0.952  0.119-  78 2.66  70 2.66  11 2.67  60 2.67  54 2.67   8 2.67  26 2.82  68 2.83
                            65 2.83  48 2.86   5 2.86  24 2.87
  50  0.364  0.453  0.450-  81 1.85  28 2.64  36 2.65  39 2.68  40 2.68  38 2.72  37 2.72  57 2.94
                            15 2.94  41 2.95
  51  0.452  0.536  0.230-  79 2.66  80 2.66  67 2.66  76 2.66  66 2.66  68 2.66  41 2.80  14 2.81
                            57 2.82  61 2.87  60 2.87  22 2.88
  52  0.617  0.705  0.442-  34 2.65  35 2.65  30 2.67  31 2.67  38 2.68  37 2.68  14 2.80  73 2.83
                            56 2.84
  53  0.370  0.202  0.119-  19 2.66   8 2.66  54 2.66  46 2.67   7 2.67  61 2.67  69 2.82  80 2.82
                            62 2.83  18 2.86  16 2.86  44 2.87
  54  0.120  0.202  0.119-  53 2.66  45 2.66   8 2.67  49 2.67  46 2.67  11 2.67  26 2.82  62 2.82
                            77 2.83  10 2.86  48 2.86  16 2.87
  55  0.951  0.786  0.227-  20 2.66  71 2.66  65 2.66  12 2.67  68 2.67  76 2.67   3 2.82   2 2.82
                            21 2.82  78 2.82  70 2.83   1 2.84
  56  0.784  0.620  0.334-  63 2.66   9 2.67   3 2.67   1 2.67  73 2.67  14 2.67  67 2.81  20 2.81
                            12 2.82  52 2.84  30 2.86  35 2.88
  57  0.284  0.620  0.337-  41 2.65  14 2.65  15 2.65  23 2.66   3 2.67   2 2.67  39 2.80  51 2.82
                            68 2.86  76 2.86  37 2.93  50 2.94
  58  0.787  0.618  0.009-  17 2.66  75 2.66   6 2.66  64 2.67  10 2.67   4 2.67  45 2.86  21 2.86
                            25 2.87
  59  0.287  0.618  0.010-   5 2.66   6 2.66  24 2.67  42 2.67  18 2.67  17 2.67  60 2.86  61 2.86
                            70 2.87
  60  0.370  0.702  0.119-   8 2.66  25 2.66  22 2.67  49 2.67  61 2.67  70 2.67  66 2.82  68 2.83
                            59 2.86  24 2.86  17 2.87  51 2.87
  61  0.370  0.452  0.119-  46 2.66   7 2.66  70 2.67  22 2.67  53 2.67  60 2.67  80 2.82  76 2.83
                            18 2.86  59 2.86  42 2.87  51 2.87
  62  0.202  0.286  0.227-  12 2.66  76 2.66  69 2.67  80 2.67  77 2.67  26 2.67  13 2.81  46 2.82
                            54 2.82   9 2.83  53 2.83  15 2.85
  63  0.782  0.371  0.335-  14 2.65  41 2.65  56 2.66  72 2.66  47 2.68   9 2.68  67 2.83  79 2.84
                            32 2.84  30 2.85  77 2.85  38 2.94
  64  0.787  0.368  0.009-  74 2.66  17 2.66  42 2.66  48 2.66  58 2.67  10 2.67  11 2.86  45 2.86
                            22 2.87
  65  0.952  0.036  0.227-  55 2.66  26 2.67  71 2.67  77 2.67  68 2.67  79 2.67   2 2.81  11 2.82
                            78 2.82  72 2.82  47 2.82  49 2.83
  66  0.452  0.786  0.227-  67 2.66  68 2.66  51 2.66  26 2.66  20 2.67  69 2.67  73 2.81  60 2.82
                             8 2.82  25 2.83  23 2.84  14 2.86
  67  0.701  0.536  0.227-  79 2.66  51 2.66  66 2.66  77 2.66  12 2.67  20 2.67  56 2.81  22 2.82
                            25 2.82  63 2.83  45 2.83  14 2.87
  68  0.202  0.785  0.227-  76 2.66  66 2.66  51 2.66  26 2.66  55 2.67  65 2.67   2 2.82  70 2.82
                            49 2.83  60 2.83  23 2.83  57 2.86
  69  0.452  0.036  0.227-  26 2.66  71 2.67  20 2.67  62 2.67  66 2.67  80 2.67  73 2.80  43 2.81
                            53 2.82   8 2.82  13 2.83  19 2.83
  70  0.120  0.702  0.119-  46 2.66  21 2.66  49 2.66  61 2.67  78 2.67  60 2.67  68 2.82  76 2.83
                            55 2.83   6 2.86   5 2.86  59 2.87
  71  0.702  0.036  0.227-  20 2.66  55 2.66  69 2.67  65 2.67  79 2.67  80 2.67  72 2.82   7 2.82
                            19 2.82  43 2.83   1 2.83  78 2.83
  72  0.784  0.121  0.334-  63 2.66  47 2.66   2 2.67   1 2.67  43 2.67  41 2.67  79 2.81  71 2.82
                            65 2.82  40 2.84  32 2.87  27 2.88
  73  0.533  0.871  0.334-  23 2.66  13 2.66  43 2.67   1 2.67  56 2.67  14 2.67  69 2.80  66 2.81
                            20 2.83  52 2.83  31 2.87  34 2.88
  74  0.787  0.118  0.009-  64 2.66  44 2.66   4 2.66  48 2.67  42 2.67   5 2.67  78 2.86  11 2.86
                             7 2.87
  75  0.537  0.868  0.009-  17 2.66   4 2.66  58 2.66  24 2.67  44 2.67  16 2.67  25 2.86  19 2.86
                             8 2.87
  76  0.202  0.536  0.227-  80 2.66  68 2.66  51 2.66  62 2.66  55 2.67  12 2.67   3 2.82  70 2.83
                            46 2.83  15 2.83  61 2.83  57 2.86
  77  0.951  0.286  0.227-  12 2.66  67 2.66  65 2.67  79 2.67  62 2.67  26 2.67  47 2.81  45 2.82
                            11 2.82  54 2.83   9 2.83  63 2.85
  78  0.870  0.952  0.119-  11 2.66  49 2.66   7 2.66  21 2.66  70 2.67  19 2.67  55 2.82  65 2.82
                            71 2.83  74 2.86   4 2.86   5 2.86
  79  0.701  0.286  0.227-  67 2.66  80 2.66  51 2.66  77 2.67  71 2.67  65 2.67  72 2.81  22 2.82
                             7 2.82  11 2.83  63 2.84  41 2.87
  80  0.452  0.286  0.227-  76 2.66  79 2.66  51 2.66  62 2.67  71 2.67  69 2.67  43 2.81  61 2.82
                            53 2.82   7 2.84  15 2.85  41 2.86
  81  0.451  0.535  0.496-  50 1.85  38 1.85  37 1.89
 
  LATTYP: Found a hexagonal cell.
 ALAT       =    10.6599999232
 C/A-ratio  =     2.0637898835
  
  Lattice vectors:
  
 A1 = (   5.3300000753,  -9.2318306722,   0.0000000000)
 A2 = ( -10.6599999990,   0.0000000000,   0.0000000000)
 A3 = (   0.0000000000,   0.0000000000, -22.0000000000)


Analysis of symmetry for initial positions (statically):
=====================================================================
 Subroutine PRICEL returns:
 Original cell was already a primitive cell.
 

 Routine SETGRP: Setting up the symmetry group for a 
 hexagonal supercell.


 Subroutine GETGRP returns: Found  1 space group operations
 (whereof  1 operations were pure point group operations)
 out of a pool of 24 trial point group operations.


The static configuration has the point symmetry C_1 .


Analysis of symmetry for dynamics (positions and initial velocities):
=====================================================================
 Subroutine PRICEL returns:
 Original cell was already a primitive cell.
 

 Routine SETGRP: Setting up the symmetry group for a 
 hexagonal supercell.


 Subroutine GETGRP returns: Found  1 space group operations
 (whereof  1 operations were pure point group operations)
 out of a pool of 24 trial point group operations.


The dynamic configuration has the point symmetry C_1 .


Analysis of constrained symmetry for selective dynamics:
=====================================================================
 Subroutine PRICEL returns:
 Original cell was already a primitive cell.
 

 Routine SETGRP: Setting up the symmetry group for a 
 hexagonal supercell.


 Subroutine GETGRP returns: Found  1 space group operations
 (whereof  1 operations were pure point group operations)
 out of a pool of 24 trial point group operations.


The constrained configuration has the point symmetry C_1 .


 Subroutine INISYM returns: Found  1 space group operations
 (whereof  1 operations are pure point group operations),
 and found     1 'primitive' translations

 
 
 KPOINTS: mesh auto                               

Automatic generation of k-mesh.
Space group operators:
 irot       det(A)        alpha          n_x          n_y          n_z        tau_x        tau_y        tau_z
    1     1.000000     0.000000     1.000000     0.000000     0.000000     0.000000     0.000000     0.000000
 
 Subroutine IBZKPT returns following result:
 ===========================================
 
 Found      4 irreducible k-points:
 
 Following reciprocal coordinates:
            Coordinates               Weight
  0.000000  0.000000  0.000000      1.000000
  0.500000 -0.000000  0.000000      1.000000
  0.000000  0.500000  0.000000      1.000000
  0.500000  0.500000  0.000000      1.000000
 
 Following cartesian coordinates:
            Coordinates               Weight
  0.000000  0.000000  0.000000      1.000000
  0.046904 -0.027080  0.000000      1.000000
  0.000000  0.054160  0.000000      1.000000
  0.046904  0.027080  0.000000      1.000000
 


--------------------------------------------------------------------------------------------------------




 Dimension of arrays:
   k-points           NKPTS =      4   k-points in BZ     NKDIM =      4   number of bands    NBANDS=    480
   number of dos      NEDOS =    301   number of ions     NIONS =     81
   non local maximal  LDIM  =      6   non local SUM 2l+1 LMDIM =     18
   total plane-waves  NPLWV = ******
   max r-space proj   IRMAX =   7657   max aug-charges    IRDMAX=  33358
   dimension x,y,z NGX =    84 NGY =   84 NGZ =  168
   dimension x,y,z NGXF=   168 NGYF=  168 NGZF=  336
   support grid    NGXF=   168 NGYF=  168 NGZF=  336
   ions per type =              80   1
   NGX,Y,Z   is equivalent  to a cutoff of  13.10, 13.10, 12.70 a.u.
   NGXF,Y,Z  is equivalent  to a cutoff of  26.20, 26.20, 25.39 a.u.

 SYSTEM =  Pt111                                   
 POSCAR =  Pt111                                   

 Startparameter for this run:
   NWRITE =      2    write-flag & timer
   PREC   = accura    normal or accurate (medium, high low for compatibility)
   ISTART =      0    job   : 0-new  1-cont  2-samecut
   ICHARG =      2    charge: 1-file 2-atom 10-const
   ISPIN  =      1    spin polarized calculation?
   LNONCOLLINEAR =      F non collinear calculations
   LSORBIT =      F    spin-orbit coupling
   INIWAV =      1    electr: 0-lowe 1-rand  2-diag
   LASPH  =      F    aspherical Exc in radial PAW
   METAGGA=      F    non-selfconsistent MetaGGA calc.

 Electronic Relaxation 1
   ENCUT  =  550.0 eV  40.42 Ry    6.36 a.u.  20.38 20.38 42.07*2*pi/ulx,y,z
   ENINI  =  550.0     initial cutoff
   ENAUG  =  400.0 eV  augmentation charge cutoff
   NELM   =    200;   NELMIN=  2; NELMDL= -5     # of ELM steps 
   EDIFF  = 0.1E-04   stopping-criterion for ELM
   LREAL  =      T    real-space projection
   NLSPLINE    = F    spline interpolate recip. space projectors
   LCOMPAT=      F    compatible to vasp.4.4
   GGA_COMPAT  = T    GGA compatible to vasp.4.4-vasp.4.6
   LMAXPAW     = -100 max onsite density
   LMAXMIX     =    2 max onsite mixed and CHGCAR
   VOSKOWN=      0    Vosko Wilk Nusair interpolation
   ROPT   =   -0.00025  -0.00025
 Ionic relaxation
   EDIFFG = -.5E-01   stopping-criterion for IOM
   NSW    =    300    number of steps for IOM
   NBLOCK =      1;   KBLOCK =    300    inner block; outer block 
   IBRION =      2    ionic relax: 0-MD 1-quasi-New 2-CG
   NFREE  =      1    steps in history (QN), initial steepest desc. (CG)
   ISIF   =      2    stress and relaxation
   IWAVPR =     11    prediction:  0-non 1-charg 2-wave 3-comb
   ISYM   =      2    0-nonsym 1-usesym 2-fastsym
   LCORR  =      T    Harris-Foulkes like correction to forces

   POTIM  = 0.5000    time-step for ionic-motion
   TEIN   =    0.0    initial temperature
   TEBEG  =    0.0;   TEEND  =   0.0 temperature during run
   SMASS  =  -3.00    Nose mass-parameter (am)
   estimated Nose-frequenzy (Omega)   =  0.10E-29 period in steps =****** mass=  -0.260E-26a.u.
   SCALEE = 1.0000    scale energy and forces
   NPACO  =    256;   APACO  = 16.0  distance and # of slots for P.C.
   PSTRESS=    0.0 pullay stress

  Mass of Ions in am
   POMASS = 195.08  1.00
  Ionic Valenz
   ZVAL   =  10.00  1.00
  Atomic Wigner-Seitz radii
   RWIGS  =  -1.00 -1.00
  virtual crystal weights 
   VCA    =   1.00  1.00
   NELECT =     801.0000    total number of electrons
   NUPDOWN=      -1.0000    fix difference up-down

 DOS related values:
   EMIN   =  10.00;   EMAX   =-10.00  energy-range for DOS
   EFERMI =   0.00
   ISMEAR =     1;   SIGMA  =   0.10  broadening in eV -4-tet -1-fermi 0-gaus

 Electronic relaxation 2 (details)
   IALGO  =     68    algorithm
   LDIAG  =      T    sub-space diagonalisation (order eigenvalues)
   LSUBROT=      F    optimize rotation matrix (better conditioning)
   TURBO    =      0    0=normal 1=particle mesh
   IRESTART =      0    0=no restart 2=restart with 2 vectors
   NREBOOT  =      0    no. of reboots
   NMIN     =      0    reboot dimension
   EREF     =   0.00    reference energy to select bands
   IMIX   =      4    mixing-type and parameters
     AMIX     =   0.40;   BMIX     =  1.00
     AMIX_MAG =   1.60;   BMIX_MAG =  1.00
     AMIN     =   0.10
     WC   =   100.;   INIMIX=   1;  MIXPRE=   1;  MAXMIX= -45

 Intra band minimization:
   WEIMIN = 0.0010     energy-eigenvalue tresh-hold
   EBREAK =  0.52E-08  absolut break condition
   DEPER  =   0.30     relativ break condition  

   TIME   =   0.40     timestep for ELM

  volume/ion in A,a.u.               =      26.73       180.38
  Fermi-wavevector in a.u.,A,eV,Ry     =   1.175249  2.220898 18.792495  1.381209
  Thomas-Fermi vector in A             =   2.311632
 
 Write flags
   LWAVE        =      F    write WAVECAR
   LDOWNSAMPLE  =      F    k-point downsampling of WAVECAR
   LCHARG       =      F    write CHGCAR
   LVTOT        =      F    write LOCPOT, total local potential
   LVHAR        =      F    write LOCPOT, Hartree potential only
   LELF         =      F    write electronic localiz. function (ELF)
   LORBIT       =      0    0 simple, 1 ext, 2 COOP (PROOUT), +10 PAW based schemes


 Dipole corrections
   LMONO  =      F    monopole corrections only (constant potential shift)
   LDIPOL =      F    correct potential (dipole corrections)
   IDIPOL =      0    1-x, 2-y, 3-z, 4-all directions 
   EPSILON=  1.0000000 bulk dielectric constant

 Exchange correlation treatment:
   GGA     =    --    GGA type
   LEXCH   =     8    internal setting for exchange type
   VOSKOWN=      0    Vosko Wilk Nusair interpolation
   LHFCALC =     F    Hartree Fock is set to
   LHFONE  =     F    Hartree Fock one center treatment
   AEXX    =    0.0000 exact exchange contribution

 Linear response parameters
   LEPSILON=     F    determine dielectric tensor
   LRPA    =     F    only Hartree local field effects (RPA)
   LNABLA  =     F    use nabla operator in PAW spheres
   LVEL    =     F    velocity operator in full k-point grid
   LINTERFAST=   F  fast interpolation
   KINTER  =     0    interpolate to denser k-point grid
   CSHIFT  =0.1000    complex shift for real part using Kramers Kronig
   OMEGAMAX=  -1.0    maximum frequency
   DEG_THRESHOLD= 0.2000000E-02 threshold for treating states as degnerate
   RTIME   =   -0.100 relaxation time in fs
  (WPLASMAI=    0.000 imaginary part of plasma frequency in eV, 0.658/RTIME)
   DFIELD  = 0.0000000 0.0000000 0.0000000 field for delta impulse in time
 
 Orbital magnetization related:
   ORBITALMAG=     F  switch on orbital magnetization
   LCHIMAG   =     F  perturbation theory with respect to B field
   DQ        =  0.001000  dq finite difference perturbation B field
   LLRAUG    =     F  two centre corrections for induced B field



--------------------------------------------------------------------------------------------------------


 conjugate gradient relaxation of ions
   using selective dynamics as specified on POSCAR
 charge density and potential will be updated during run
 non-spin polarized calculation
 RMM-DIIS sequential band-by-band and
  variant of blocked Davidson during initial phase
 perform sub-space diagonalisation
    before iterative eigenvector-optimisation
 modified Broyden-mixing scheme, WC =      100.0
 initial mixing is a Kerker type mixing with AMIX =  0.4000 and BMIX =      1.0000
 Hartree-type preconditioning will be used
 using additional bands           79
 real space projection scheme for non local part
 use partial core corrections
 calculate Harris-corrections to forces 
   (improved forces if not selfconsistent)
 use gradient corrections 
 use of overlap-Matrix (Vanderbilt PP)
 Methfessel and Paxton  Order N= 1 SIGMA  =   0.10


--------------------------------------------------------------------------------------------------------


  energy-cutoff  :      550.00
  volume of cell :     2165.05
      direct lattice vectors                 reciprocal lattice vectors
    10.659999999  0.000000000  0.000000000     0.093808630 -0.054160438  0.000000000
     5.329999924  9.231830672  0.000000000     0.000000000  0.108320878  0.000000000
     0.000000000  0.000000000 22.000000000     0.000000000  0.000000000  0.045454545

  length of vectors
    10.659999999 10.659999847 22.000000000     0.108320876  0.108320878  0.045454545


 
 k-points in units of 2pi/SCALE and weight: mesh auto                               
   0.00000000  0.00000000  0.00000000       0.250
   0.04690432 -0.02708022  0.00000000       0.250
   0.00000000  0.05416044  0.00000000       0.250
   0.04690432  0.02708022  0.00000000       0.250
 
 k-points in reciprocal lattice and weights: mesh auto                               
   0.00000000  0.00000000  0.00000000       0.250
   0.50000000 -0.00000000  0.00000000       0.250
   0.00000000  0.50000000  0.00000000       0.250
   0.50000000  0.50000000  0.00000000       0.250
 
 position of ions in fractional coordinates (direct lattice) 
   0.78360994  0.87044455  0.33475490
   0.03379500  0.87060623  0.33379736
   0.03387098  0.62015883  0.33408364
   0.78719686  0.86781740  0.00920734
   0.03742736  0.86754232  0.00938891
   0.03731769  0.61764020  0.00956612
   0.61967973  0.20164816  0.11898405
   0.36967088  0.95159545  0.11911787
   0.03371858  0.37022940  0.33452440
   0.03747623  0.36762616  0.00961287
   0.86957920  0.20158104  0.11895459
   0.95169250  0.53562798  0.22690018
   0.28342684  0.12064869  0.33429795
   0.53318457  0.61996528  0.33662077
   0.28423158  0.37121251  0.33573197
   0.28716095  0.11773604  0.00955887
   0.53748247  0.61763009  0.00939974
   0.28738029  0.36754733  0.00966883
   0.61956950  0.95162562  0.11898285
   0.70165950  0.78592203  0.22645793
   0.86970341  0.70163971  0.11906311
   0.61974477  0.45158484  0.11908270
   0.28422803  0.86917054  0.33521940
   0.28723431  0.86772389  0.00941434
   0.61972441  0.70162734  0.11904415
   0.20171329  0.03555449  0.22658942
   0.86616116  0.95470446  0.44454205
   0.11599874  0.45488162  0.44445221
   0.11565753  0.95515786  0.44391853
   0.86615339  0.45486345  0.44396686
   0.36620343  0.95513340  0.44390026
   0.86610554  0.20446741  0.44380717
   0.11610870  0.20485140  0.44326492
   0.61617822  0.95467473  0.44453829
   0.86628432  0.70444792  0.44457615
   0.36651118  0.20446942  0.44420736
   0.36447470  0.70814199  0.44993840
   0.61925124  0.45332172  0.45021795
   0.11470682  0.70549097  0.44256420
   0.61685242  0.20333021  0.44238582
   0.53312073  0.37137542  0.33661406
   0.53729480  0.36772262  0.00938193
   0.53329487  0.12075874  0.33390609
   0.53744732  0.11760919  0.00931500
   0.86968470  0.45162578  0.11912876
   0.11977939  0.45162882  0.11933874
   0.03362352  0.12065238  0.33406864
   0.03735056  0.11767589  0.00937838
   0.11959597  0.95158776  0.11909876
   0.36445372  0.45336277  0.45049719
   0.45166237  0.53581412  0.22962070
   0.61681803  0.70548480  0.44230680
   0.36969168  0.20151189  0.11925355
   0.11965639  0.20161621  0.11926056
   0.95148322  0.78585617  0.22661468
   0.78363295  0.62015922  0.33381093
   0.28446505  0.61997189  0.33685392
   0.78733338  0.61765568  0.00935973
   0.28722709  0.61770450  0.00958703
   0.36976716  0.70164814  0.11917833
   0.36971887  0.45157648  0.11927960
   0.20158367  0.28597935  0.22703117
   0.78217533  0.37120045  0.33519164
   0.78732632  0.36762179  0.00930569
   0.95159088  0.03577211  0.22656930
   0.45162238  0.78552722  0.22684352
   0.70131487  0.53575780  0.22679861
   0.20190648  0.78546138  0.22694136
   0.45152755  0.03584684  0.22677278
   0.11967474  0.70158666  0.11923317
   0.70157663  0.03575066  0.22657114
   0.78365931  0.12075739  0.33374011
   0.53330346  0.87059849  0.33369646
   0.78733560  0.11769611  0.00916614
   0.53736608  0.86758613  0.00927431
   0.20199637  0.53574356  0.22720309
   0.95146344  0.28590730  0.22666041
   0.86966222  0.95165077  0.11894673
   0.70118968  0.28618895  0.22664238
   0.45152267  0.28625483  0.22690784
   0.45126527  0.53492989  0.49612850
 
 position of ions in cartesian coordinates  (Angst):
  12.99275136  8.03579665  7.36460777
   5.00058585  8.03728926  7.34354187
   3.66651113  5.72520126  7.34983998
  13.01698517  8.01154330  0.20256152
   5.02297619  8.00900376  0.20655609
   3.68982881  5.70194971  0.21045470
   7.68057062  1.86158166  2.61764901
   9.01269529  8.78496802  2.62059303
   2.33276269  3.41789509  7.35953681
   2.35894400  3.39386243  0.21148310
  10.34414122  1.86096203  2.61700097
  12.99993915  4.94482684  4.99180401
   3.66438758  1.11380826  7.35455497
   8.98816238  5.72341451  7.40565698
   5.00847125  3.42697102  7.38610329
   3.68866881  1.08691914  0.21029518
   9.02153148  5.70185640  0.20679429
   5.02250113  3.39313469  0.21271420
  11.67677532  8.78524661  2.61762268
  11.66865467  7.25549909  4.98207456
  13.01077789  6.47741897  2.61938840
   9.01342636  4.16895476  2.61981946
   7.66254973  8.02403526  7.37482690
   7.68688598  8.01068000  0.20711555
  10.34593585  6.47730479  2.61897125
   2.33976913  0.32823303  4.98496722
  14.32185266  8.81366994  9.77992515
   3.66106557  4.19939008  9.77794857
   6.32390056  8.81785567  9.76620772
  11.65761731  4.19922239  9.76727082
   8.99458955  8.81762980  9.76580577
  10.32249631  1.88760852  9.76375779
   2.32957667  1.89115340  9.75182827
  11.65687607  8.81339550  9.77984237
  12.98929822  6.50334396  9.78067532
   4.99683118  1.88762704  9.77256189
   7.65969701  6.53744692  9.89864476
   9.01742295  4.18498939  9.90479488
   4.98304152  6.51297315  9.73641245
   7.65939685  1.87711009  9.73248797
   7.66249800  3.42847501  7.40550937
   7.68752405  3.39475294  0.20640236
   6.32856740  1.11482428  7.34593393
   6.35604545  1.08574814  0.20493010
  11.67800428  4.16933276  2.62083270
   3.68402987  4.16936077  2.62545234
   1.00150392  1.11384231  7.34951012
   1.02536947  1.08636388  0.20632433
   6.34685577  8.78489705  2.62017269
   6.30150018  4.18536835  9.91093822
   7.67061004  4.94654522  5.05165550
  10.33551408  6.51291617  9.73074969
   5.01497166  1.86032362  2.62357816
   2.35015149  1.86128672  2.62373241
  14.33142448  7.25489105  4.98552299
  11.65897583  5.72520490  7.34384044
   6.33684755  5.72347555  7.41078617
  11.68507860  5.70209265  0.20591396
   6.35420575  5.70254332  0.21091457
   7.68150248  6.47749683  2.62192333
   6.34810571  4.16887758  2.62415129
   3.67315187  2.64011296  4.99468583
  10.31648736  3.42685972  7.37421601
  10.35232268  3.39382209  0.20472528
  10.33462407  0.33024202  4.98452457
   9.00115455  7.25185427  4.99055734
  10.33160555  4.94602527  4.98956950
   6.33883216  7.25124644  4.99271000
   5.00434730  0.33093195  4.98900123
   5.01518959  6.47692921  2.62312969
   7.66935790  0.33004406  4.98456517
   8.99744512  1.11481174  7.34228245
  10.32530477  8.03721787  7.34132208
   9.02031779  1.08655056  0.20165517
  10.35255645  8.00940821  0.20403481
   5.00879437  4.94589379  4.99846795
  11.66648614  2.63944777  4.98652896
  14.34289774  8.78547873  2.61682801
   9.00006910  2.64204790  4.98613234
   6.33896986  2.64265615  4.99197246
   7.66166404  4.93838216 10.91482703
 


--------------------------------------------------------------------------------------------------------


 k-point  1 :   0.0000 0.0000 0.0000  plane waves:   63475
 k-point  2 :   0.5000-0.0000 0.0000  plane waves:   63428
 k-point  3 :   0.0000 0.5000 0.0000  plane waves:   63428
 k-point  4 :   0.5000 0.5000 0.0000  plane waves:   63428

 maximum and minimum number of plane-waves per node :     15884    15811

 maximum number of plane-waves:     63475
 maximum index in each direction: 
   IXMAX=   20   IYMAX=   20   IZMAX=   42
   IXMIN=  -20   IYMIN=  -20   IZMIN=  -42


 real space projection operators:
  total allocation   :      83353.85 KBytes
  max/ min on nodes  :      20844.23      20828.82


 parallel 3D FFT for wavefunctions:
    minimum data exchange during FFTs selected (reduces bandwidth)
 parallel 3D FFT for charge:
    minimum data exchange during FFTs selected (reduces bandwidth)


 total amount of memory used by VASP MPI-rank0   162159. kBytes
=======================================================================

   base      :      30000. kBytes
   nonlr-proj:      36193. kBytes
   fftplans  :      17966. kBytes
   grid      :      27754. kBytes
   one-center:        326. kBytes
   wavefun   :      49920. kBytes
 
     INWAV:  cpu time    0.0000: real time    0.0000
 Broyden mixing: mesh for mixing (old mesh)
   NGX = 41   NGY = 41   NGZ = 85
  (NGX  =168   NGY  =168   NGZ  =336)
  gives a total of 142885 points

 initial charge density was supplied:
 charge density of overlapping atoms calculated
 number of electron     801.0000000 magnetization 
 keeping initial charge density in first step


--------------------------------------------------------------------------------------------------------


 Maximum index for non-local projection operator         1878
 Maximum index for augmentation-charges         2046 (set IRDMAX)


--------------------------------------------------------------------------------------------------------


 First call to EWALD:  gamma=   0.137
 Maximum number of real-space cells 4x 4x 2
 Maximum number of reciprocal cells 2x 2x 4

    FEWALD:  cpu time    0.0035: real time    0.0035


--------------------------------------- Iteration      1(   1)  ---------------------------------------


    POTLOK:  cpu time    0.1841: real time    0.1871
    SETDIJ:  cpu time    0.0175: real time    0.0180
     EDDAV:  cpu time   27.2820: real time   27.3665
       DOS:  cpu time    0.0010: real time    0.0010
    --------------------------------------------
      LOOP:  cpu time   27.4846: real time   27.5727

 eigenvalue-minimisations  :  3840
 total energy-change (2. order) : 0.5733536E+04  (-0.3990415E+05)
 number of electron     801.0000000 magnetization 
 augmentation part      801.0000000 magnetization 

 Free energy of the ion-electron system (eV)
  ---------------------------------------------------
  alpha Z        PSCENC =      2814.38679644
  Ewald energy   TEWEN  =    167744.92840464
  -Hartree energ DENC   =   -232670.26625377
  -exchange      EXHF   =         0.00000000
  -V(xc)+E(xc)   XCENC  =       299.41691017
  PAW double counting   =     55692.01686169   -53429.36650374
  entropy T*S    EENTRO =         0.00739223
  eigenvalues    EBANDS =      6940.68105649
  atomic energy  EATOM  =     58341.73154849
  Solvation  Ediel_sol  =         0.00000000
  ---------------------------------------------------
  free energy    TOTEN  =      5733.53621263 eV

  energy without entropy =     5733.52882041  energy(sigma->0) =     5733.53374856


--------------------------------------------------------------------------------------------------------




--------------------------------------- Iteration      1(   2)  ---------------------------------------


     EDDAV:  cpu time   29.5365: real time   29.6171
       DOS:  cpu time    0.0011: real time    0.0011
    --------------------------------------------
      LOOP:  cpu time   29.5376: real time   29.6182

 eigenvalue-minimisations  :  4270
 total energy-change (2. order) :-0.5883055E+04  (-0.5477769E+04)
 number of electron     801.0000000 magnetization 
 augmentation part      801.0000000 magnetization 

 Free energy of the ion-electron system (eV)
  ---------------------------------------------------
  alpha Z        PSCENC =      2814.38679644
  Ewald energy   TEWEN  =    167744.92840464
  -Hartree energ DENC   =   -232670.26625377
  -exchange      EXHF   =         0.00000000
  -V(xc)+E(xc)   XCENC  =       299.41691017
  PAW double counting   =     55692.01686169   -53429.36650374
  entropy T*S    EENTRO =        -0.00865396
  eigenvalues    EBANDS =      1057.64224155
  atomic energy  EATOM  =     58341.73154849
  Solvation  Ediel_sol  =         0.00000000
  ---------------------------------------------------
  free energy    TOTEN  =      -149.51864849 eV

  energy without entropy =     -149.50999453  energy(sigma->0) =     -149.51576384


--------------------------------------------------------------------------------------------------------




--------------------------------------- Iteration      1(   3)  ---------------------------------------


     EDDAV:  cpu time   30.9361: real time   31.0210
       DOS:  cpu time    0.0011: real time    0.0012
    --------------------------------------------
      LOOP:  cpu time   30.9372: real time   31.0221

 eigenvalue-minimisations  :  4560
 total energy-change (2. order) :-0.3351542E+03  (-0.3008958E+03)
 number of electron     801.0000000 magnetization 
 augmentation part      801.0000000 magnetization 

 Free energy of the ion-electron system (eV)
  ---------------------------------------------------
  alpha Z        PSCENC =      2814.38679644
  Ewald energy   TEWEN  =    167744.92840464
  -Hartree energ DENC   =   -232670.26625377
  -exchange      EXHF   =         0.00000000
  -V(xc)+E(xc)   XCENC  =       299.41691017
  PAW double counting   =     55692.01686169   -53429.36650374
  entropy T*S    EENTRO =        -0.02896019
  eigenvalues    EBANDS =       722.50833091
  atomic energy  EATOM  =     58341.73154849
  Solvation  Ediel_sol  =         0.00000000
  ---------------------------------------------------
  free energy    TOTEN  =      -484.67286537 eV

  energy without entropy =     -484.64390518  energy(sigma->0) =     -484.66321197


--------------------------------------------------------------------------------------------------------




--------------------------------------- Iteration      1(   4)  ---------------------------------------


     EDDAV:  cpu time   32.4415: real time   32.5352
       DOS:  cpu time    0.0011: real time    0.0011
    --------------------------------------------
      LOOP:  cpu time   32.4426: real time   32.5363

 eigenvalue-minimisations  :  4810
 total energy-change (2. order) :-0.1439852E+02  (-0.1389729E+02)
 number of electron     801.0000000 magnetization 
 augmentation part      801.0000000 magnetization 

 Free energy of the ion-electron system (eV)
  ---------------------------------------------------
  alpha Z        PSCENC =      2814.38679644
  Ewald energy   TEWEN  =    167744.92840464
  -Hartree energ DENC   =   -232670.26625377
  -exchange      EXHF   =         0.00000000
  -V(xc)+E(xc)   XCENC  =       299.41691017
  PAW double counting   =     55692.01686169   -53429.36650374
  entropy T*S    EENTRO =        -0.03207941
  eigenvalues    EBANDS =       708.11292922
  atomic energy  EATOM  =     58341.73154849
  Solvation  Ediel_sol  =         0.00000000
  ---------------------------------------------------
  free energy    TOTEN  =      -499.07138627 eV

  energy without entropy =     -499.03930686  energy(sigma->0) =     -499.06069314


--------------------------------------------------------------------------------------------------------




--------------------------------------- Iteration      1(   5)  ---------------------------------------


     EDDAV:  cpu time   31.9072: real time   31.9943
       DOS:  cpu time    0.0012: real time    0.0012
    CHARGE:  cpu time    2.1235: real time    2.1293
    MIXING:  cpu time    0.0065: real time    0.0072
    --------------------------------------------
      LOOP:  cpu time   34.0384: real time   34.1320

 eigenvalue-minimisations  :  4740
 total energy-change (2. order) :-0.3662498E+00  (-0.3650473E+00)
 number of electron     801.0000004 magnetization 
 augmentation part      232.1090420 magnetization 

 Broyden mixing:
  rms(total) = 0.11432E+02    rms(broyden)= 0.11432E+02
  rms(prec ) = 0.11539E+02
  weight for this iteration     100.00

 Free energy of the ion-electron system (eV)
  ---------------------------------------------------
  alpha Z        PSCENC =      2814.38679644
  Ewald energy   TEWEN  =    167744.92840464
  -Hartree energ DENC   =   -232670.26625377
  -exchange      EXHF   =         0.00000000
  -V(xc)+E(xc)   XCENC  =       299.41691017
  PAW double counting   =     55692.01686169   -53429.36650374
  entropy T*S    EENTRO =        -0.03228881
  eigenvalues    EBANDS =       707.74688879
  atomic energy  EATOM  =     58341.73154849
  Solvation  Ediel_sol  =         0.00000000
  ---------------------------------------------------
  free energy    TOTEN  =      -499.43763610 eV

  energy without entropy =     -499.40534730  energy(sigma->0) =     -499.42687317


--------------------------------------------------------------------------------------------------------




--------------------------------------- Iteration      1(   6)  ---------------------------------------


    POTLOK:  cpu time    0.1771: real time    0.1775
    SETDIJ:  cpu time    0.0186: real time    0.0186
    EDDIAG:  cpu time    4.7570: real time    4.7706
  RMM-DIIS:  cpu time   16.9306: real time   16.9771
    ORTHCH:  cpu time    0.4489: real time    0.4499
       DOS:  cpu time    0.0011: real time    0.0011
    CHARGE:  cpu time    2.1101: real time    2.1160
    MIXING:  cpu time    0.0073: real time    0.0076
    --------------------------------------------
      LOOP:  cpu time   24.4506: real time   24.5185

 eigenvalue-minimisations  :  3860
 total energy-change (2. order) : 0.1944779E+02  (-0.6831338E+01)
 number of electron     801.0000004 magnetization 
 augmentation part      243.7212808 magnetization 

 Broyden mixing:
  rms(total) = 0.75769E+01    rms(broyden)= 0.75769E+01
  rms(prec ) = 0.81075E+01
  weight for this iteration     100.00

 eigenvalues of (default mixing * dielectric matrix)
  average eigenvalue GAMMA=   1.6942
  1.6942

 Free energy of the ion-electron system (eV)
  ---------------------------------------------------
  alpha Z        PSCENC =      2814.38679644
  Ewald energy   TEWEN  =    167744.92840464
  -Hartree energ DENC   =   -231739.44547987
  -exchange      EXHF   =         0.00000000
  -V(xc)+E(xc)   XCENC  =       279.83426945
  PAW double counting   =     63413.00435004   -61283.77867565
  entropy T*S    EENTRO =        -0.06143071
  eigenvalues    EBANDS =       -50.58962618
  atomic energy  EATOM  =     58341.73154849
  Solvation  Ediel_sol  =         0.00000000
  ---------------------------------------------------
  free energy    TOTEN  =      -479.98984334 eV

  energy without entropy =     -479.92841264  energy(sigma->0) =     -479.96936644


--------------------------------------------------------------------------------------------------------




--------------------------------------- Iteration      1(   7)  ---------------------------------------


    POTLOK:  cpu time    0.1663: real time    0.1670
    SETDIJ:  cpu time    0.0159: real time    0.0160
    EDDIAG:  cpu time    4.6773: real time    4.6899
  RMM-DIIS:  cpu time   16.8792: real time   16.9256
    ORTHCH:  cpu time    0.4463: real time    0.4478
       DOS:  cpu time    0.0011: real time    0.0011
    CHARGE:  cpu time    2.1590: real time    2.1649
    MIXING:  cpu time    0.0070: real time    0.0070
    --------------------------------------------
      LOOP:  cpu time   24.3522: real time   24.4193

 eigenvalue-minimisations  :  3921
 total energy-change (2. order) :-0.2607469E+03  (-0.3325885E+02)
 number of electron     801.0000004 magnetization 
 augmentation part      237.7086016 magnetization 

 Broyden mixing:
  rms(total) = 0.13162E+02    rms(broyden)= 0.13162E+02
  rms(prec ) = 0.17090E+02
  weight for this iteration     100.00

 eigenvalues of (default mixing * dielectric matrix)
  average eigenvalue GAMMA=   1.2361
  2.2677  0.2045

 Free energy of the ion-electron system (eV)
  ---------------------------------------------------
  alpha Z        PSCENC =      2814.38679644
  Ewald energy   TEWEN  =    167744.92840464
  -Hartree energ DENC   =   -232940.72215706
  -exchange      EXHF   =         0.00000000
  -V(xc)+E(xc)   XCENC  =       272.86688875
  PAW double counting   =     69793.66039695   -67736.19615066
  entropy T*S    EENTRO =        -0.04904087
  eigenvalues    EBANDS =       968.65654580
  atomic energy  EATOM  =     58341.73154849
  Solvation  Ediel_sol  =         0.00000000
  ---------------------------------------------------
  free energy    TOTEN  =      -740.73676752 eV

  energy without entropy =     -740.68772665  energy(sigma->0) =     -740.72042057


--------------------------------------------------------------------------------------------------------




--------------------------------------- Iteration      1(   8)  ---------------------------------------


    POTLOK:  cpu time    0.1669: real time    0.1673
    SETDIJ:  cpu time    0.0164: real time    0.0164
    EDDIAG:  cpu time    4.6771: real time    4.6899
  RMM-DIIS:  cpu time   16.5113: real time   16.5564
    ORTHCH:  cpu time    0.4427: real time    0.4441
       DOS:  cpu time    0.0013: real time    0.0013
    CHARGE:  cpu time    2.1684: real time    2.1743
    MIXING:  cpu time    0.0072: real time    0.0072
    --------------------------------------------
      LOOP:  cpu time   23.9912: real time   24.0569

 eigenvalue-minimisations  :  3847
 total energy-change (2. order) : 0.1909367E+03  (-0.9082888E+01)
 number of electron     801.0000005 magnetization 
 augmentation part      246.2462793 magnetization 

 Broyden mixing:
  rms(total) = 0.74871E+01    rms(broyden)= 0.74871E+01
  rms(prec ) = 0.97118E+01
  weight for this iteration     100.00

 eigenvalues of (default mixing * dielectric matrix)
  average eigenvalue GAMMA=   0.9410
  2.2749  0.2740  0.2740

 Free energy of the ion-electron system (eV)
  ---------------------------------------------------
  alpha Z        PSCENC =      2814.38679644
  Ewald energy   TEWEN  =    167744.92840464
  -Hartree energ DENC   =   -232020.77658537
  -exchange      EXHF   =         0.00000000
  -V(xc)+E(xc)   XCENC  =       267.20711450
  PAW double counting   =     75086.32693062   -73095.41618399
  entropy T*S    EENTRO =        -0.04558367
  eigenvalues    EBANDS =       311.85747426
  atomic energy  EATOM  =     58341.73154849
  Solvation  Ediel_sol  =         0.00000000
  ---------------------------------------------------
  free energy    TOTEN  =      -549.80008407 eV

  energy without entropy =     -549.75450040  energy(sigma->0) =     -549.78488951


--------------------------------------------------------------------------------------------------------




--------------------------------------- Iteration      1(   9)  ---------------------------------------


    POTLOK:  cpu time    0.1675: real time    0.1679
    SETDIJ:  cpu time    0.0159: real time    0.0159
    EDDIAG:  cpu time    4.7170: real time    4.7329
  RMM-DIIS:  cpu time   16.6634: real time   16.7042
    ORTHCH:  cpu time    0.4427: real time    0.4438
       DOS:  cpu time    0.0012: real time    0.0012
    CHARGE:  cpu time    2.1277: real time    2.1328
    MIXING:  cpu time    0.0075: real time    0.0075
    --------------------------------------------
      LOOP:  cpu time   24.1428: real time   24.2062

 eigenvalue-minimisations  :  3853
 total energy-change (2. order) : 0.2304032E+02  (-0.6200667E+01)
 number of electron     801.0000002 magnetization 
 augmentation part      247.0745748 magnetization 

 Broyden mixing:
  rms(total) = 0.58703E+01    rms(broyden)= 0.58703E+01
  rms(prec ) = 0.93562E+01
  weight for this iteration     100.00

 eigenvalues of (default mixing * dielectric matrix)
  average eigenvalue GAMMA=   0.7851
  2.2167  0.3898  0.3898  0.1440

 Free energy of the ion-electron system (eV)
  ---------------------------------------------------
  alpha Z        PSCENC =      2814.38679644
  Ewald energy   TEWEN  =    167744.92840464
  -Hartree energ DENC   =   -231819.88544152
  -exchange      EXHF   =         0.00000000
  -V(xc)+E(xc)   XCENC  =       267.83498196
  PAW double counting   =     75445.68411824   -73457.43292914
  entropy T*S    EENTRO =         0.04266937
  eigenvalues    EBANDS =       135.95008897
  atomic energy  EATOM  =     58341.73154849
  Solvation  Ediel_sol  =         0.00000000
  ---------------------------------------------------
  free energy    TOTEN  =      -526.75976254 eV

  energy without entropy =     -526.80243191  energy(sigma->0) =     -526.77398566


--------------------------------------------------------------------------------------------------------




--------------------------------------- Iteration      1(  10)  ---------------------------------------


    POTLOK:  cpu time    0.1669: real time    0.1673
    SETDIJ:  cpu time    0.0158: real time    0.0158
    EDDIAG:  cpu time    4.6787: real time    4.6899
  RMM-DIIS:  cpu time   16.5950: real time   16.6342
    ORTHCH:  cpu time    0.4432: real time    0.4442
       DOS:  cpu time    0.0011: real time    0.0011
    CHARGE:  cpu time    2.1703: real time    2.1754
    MIXING:  cpu time    0.0077: real time    0.0077
    --------------------------------------------
      LOOP:  cpu time   24.0786: real time   24.1357

 eigenvalue-minimisations  :  3854
 total energy-change (2. order) : 0.2888576E+02  (-0.3387255E+01)
 number of electron     801.0000006 magnetization 
 augmentation part      247.1039310 magnetization 

 Broyden mixing:
  rms(total) = 0.51695E+01    rms(broyden)= 0.51695E+01
  rms(prec ) = 0.69268E+01
  weight for this iteration     100.00

 eigenvalues of (default mixing * dielectric matrix)
  average eigenvalue GAMMA=   0.7220
  2.1421  0.8525  0.2960  0.2075  0.1122

 Free energy of the ion-electron system (eV)
  ---------------------------------------------------
  alpha Z        PSCENC =      2814.38679644
  Ewald energy   TEWEN  =    167744.92840464
  -Hartree energ DENC   =   -231786.59007382
  -exchange      EXHF   =         0.00000000
  -V(xc)+E(xc)   XCENC  =       268.96533226
  PAW double counting   =     75397.84208997   -73406.56907793
  entropy T*S    EENTRO =        -0.13517619
  eigenvalues    EBANDS =       127.56615688
  atomic energy  EATOM  =     58341.73154849
  Solvation  Ediel_sol  =         0.00000000
  ---------------------------------------------------
  free energy    TOTEN  =      -497.87399925 eV

  energy without entropy =     -497.73882307  energy(sigma->0) =     -497.82894052


--------------------------------------------------------------------------------------------------------




--------------------------------------- Iteration      1(  11)  ---------------------------------------


    POTLOK:  cpu time    0.1789: real time    0.1794
    SETDIJ:  cpu time    0.0183: real time    0.0183
    EDDIAG:  cpu time    4.7339: real time    4.7452
  RMM-DIIS:  cpu time   16.6977: real time   16.7372
    ORTHCH:  cpu time    0.4414: real time    0.4424
       DOS:  cpu time    0.0012: real time    0.0012
    CHARGE:  cpu time    2.1751: real time    2.1803
    MIXING:  cpu time    0.0075: real time    0.0075
    --------------------------------------------
      LOOP:  cpu time   24.2540: real time   24.3116

 eigenvalue-minimisations  :  3867
 total energy-change (2. order) : 0.2547964E+02  (-0.1371290E+01)
 number of electron     801.0000005 magnetization 
 augmentation part      248.0092622 magnetization 

 Broyden mixing:
  rms(total) = 0.23440E+01    rms(broyden)= 0.23440E+01
  rms(prec ) = 0.26335E+01
  weight for this iteration     100.00

 eigenvalues of (default mixing * dielectric matrix)
  average eigenvalue GAMMA=   0.7010
  2.2565  0.8054  0.4034  0.4034  0.2256  0.1115

 Free energy of the ion-electron system (eV)
  ---------------------------------------------------
  alpha Z        PSCENC =      2814.38679644
  Ewald energy   TEWEN  =    167744.92840464
  -Hartree energ DENC   =   -231622.19533684
  -exchange      EXHF   =         0.00000000
  -V(xc)+E(xc)   XCENC  =       270.76713478
  PAW double counting   =     75265.91414726   -73268.68742876
  entropy T*S    EENTRO =        -0.00125490
  eigenvalues    EBANDS =       -19.23836899
  atomic energy  EATOM  =     58341.73154849
  Solvation  Ediel_sol  =         0.00000000
  ---------------------------------------------------
  free energy    TOTEN  =      -472.39435788 eV

  energy without entropy =     -472.39310298  energy(sigma->0) =     -472.39393958


--------------------------------------------------------------------------------------------------------




--------------------------------------- Iteration      1(  12)  ---------------------------------------


    POTLOK:  cpu time    0.1722: real time    0.1726
    SETDIJ:  cpu time    0.0159: real time    0.0159
    EDDIAG:  cpu time    4.6840: real time    4.6952
  RMM-DIIS:  cpu time   16.7234: real time   16.7631
    ORTHCH:  cpu time    0.4428: real time    0.4438
       DOS:  cpu time    0.0012: real time    0.0012
    CHARGE:  cpu time    2.1568: real time    2.1620
    MIXING:  cpu time    0.0077: real time    0.0077
    --------------------------------------------
      LOOP:  cpu time   24.2038: real time   24.2616

 eigenvalue-minimisations  :  3858
 total energy-change (2. order) : 0.3455102E+01  (-0.3373462E+00)
 number of electron     801.0000004 magnetization 
 augmentation part      247.4023767 magnetization 

 Broyden mixing:
  rms(total) = 0.14307E+01    rms(broyden)= 0.14307E+01
  rms(prec ) = 0.17209E+01
  weight for this iteration     100.00

 eigenvalues of (default mixing * dielectric matrix)
  average eigenvalue GAMMA=   0.6888
  2.2784  0.7640  0.7640  0.3422  0.3422  0.2178  0.1128

 Free energy of the ion-electron system (eV)
  ---------------------------------------------------
  alpha Z        PSCENC =      2814.38679644
  Ewald energy   TEWEN  =    167744.92840464
  -Hartree energ DENC   =   -231690.79940290
  -exchange      EXHF   =         0.00000000
  -V(xc)+E(xc)   XCENC  =       270.81616355
  PAW double counting   =     75624.27760355   -73629.39930133
  entropy T*S    EENTRO =        -0.05822901
  eigenvalues    EBANDS =        55.17716049
  atomic energy  EATOM  =     58341.73154849
  Solvation  Ediel_sol  =         0.00000000
  ---------------------------------------------------
  free energy    TOTEN  =      -468.93925607 eV

  energy without entropy =     -468.88102706  energy(sigma->0) =     -468.91984640


--------------------------------------------------------------------------------------------------------




--------------------------------------- Iteration      1(  13)  ---------------------------------------


    POTLOK:  cpu time    0.1696: real time    0.1700
    SETDIJ:  cpu time    0.0162: real time    0.0162
    EDDIAG:  cpu time    4.6747: real time    4.6859
  RMM-DIIS:  cpu time   16.7742: real time   16.8139
    ORTHCH:  cpu time    0.4417: real time    0.4427
       DOS:  cpu time    0.0010: real time    0.0010
    CHARGE:  cpu time    2.1631: real time    2.1682
    MIXING:  cpu time    0.0079: real time    0.0079
    --------------------------------------------
      LOOP:  cpu time   24.2483: real time   24.3059

 eigenvalue-minimisations  :  3859
 total energy-change (2. order) : 0.7724871E+00  (-0.1569017E+00)
 number of electron     801.0000004 magnetization 
 augmentation part      247.1341864 magnetization 

 Broyden mixing:
  rms(total) = 0.11161E+01    rms(broyden)= 0.11161E+01
  rms(prec ) = 0.18231E+01
  weight for this iteration     100.00

 eigenvalues of (default mixing * dielectric matrix)
  average eigenvalue GAMMA=   0.6704
  2.1440  0.8940  0.8940  0.4138  0.4138  0.1125  0.2207  0.2706

 Free energy of the ion-electron system (eV)
  ---------------------------------------------------
  alpha Z        PSCENC =      2814.38679644
  Ewald energy   TEWEN  =    167744.92840464
  -Hartree energ DENC   =   -231723.82412193
  -exchange      EXHF   =         0.00000000
  -V(xc)+E(xc)   XCENC  =       271.00495895
  PAW double counting   =     75664.38909908   -73669.07813743
  entropy T*S    EENTRO =        -0.11184177
  eigenvalues    EBANDS =        88.40652458
  atomic energy  EATOM  =     58341.73154849
  Solvation  Ediel_sol  =         0.00000000
  ---------------------------------------------------
  free energy    TOTEN  =      -468.16676896 eV

  energy without entropy =     -468.05492718  energy(sigma->0) =     -468.12948837


--------------------------------------------------------------------------------------------------------




--------------------------------------- Iteration      1(  14)  ---------------------------------------


    POTLOK:  cpu time    0.1743: real time    0.1747
    SETDIJ:  cpu time    0.0157: real time    0.0158
    EDDIAG:  cpu time    4.6725: real time    4.6837
  RMM-DIIS:  cpu time   16.7289: real time   16.7685
    ORTHCH:  cpu time    0.4440: real time    0.4451
       DOS:  cpu time    0.0013: real time    0.0013
    CHARGE:  cpu time    2.1527: real time    2.1579
    MIXING:  cpu time    0.0087: real time    0.0087
    --------------------------------------------
      LOOP:  cpu time   24.1982: real time   24.2557

 eigenvalue-minimisations  :  3867
 total energy-change (2. order) : 0.3070665E+00  (-0.7773303E-01)
 number of electron     801.0000004 magnetization 
 augmentation part      247.2956975 magnetization 

 Broyden mixing:
  rms(total) = 0.10393E+01    rms(broyden)= 0.10393E+01
  rms(prec ) = 0.13775E+01
  weight for this iteration     100.00

 eigenvalues of (default mixing * dielectric matrix)
  average eigenvalue GAMMA=   0.6494
  2.1149  0.9194  0.9194  0.6397  0.3702  0.3702  0.1123  0.2048  0.1943

 Free energy of the ion-electron system (eV)
  ---------------------------------------------------
  alpha Z        PSCENC =      2814.38679644
  Ewald energy   TEWEN  =    167744.92840464
  -Hartree energ DENC   =   -231716.72462313
  -exchange      EXHF   =         0.00000000
  -V(xc)+E(xc)   XCENC  =       271.26731687
  PAW double counting   =     75446.04618028   -73448.04620813
  entropy T*S    EENTRO =        -0.07039797
  eigenvalues    EBANDS =        78.62128001
  atomic energy  EATOM  =     58341.73154849
  Solvation  Ediel_sol  =         0.00000000
  ---------------------------------------------------
  free energy    TOTEN  =      -467.85970249 eV

  energy without entropy =     -467.78930453  energy(sigma->0) =     -467.83623651


--------------------------------------------------------------------------------------------------------




--------------------------------------- Iteration      1(  15)  ---------------------------------------


    POTLOK:  cpu time    0.1735: real time    0.1739
    SETDIJ:  cpu time    0.0158: real time    0.0158
    EDDIAG:  cpu time    4.6753: real time    4.6865
  RMM-DIIS:  cpu time   16.7469: real time   16.7865
    ORTHCH:  cpu time    0.5050: real time    0.5062
       DOS:  cpu time    0.0017: real time    0.0017
    CHARGE:  cpu time    2.1464: real time    2.1515
    MIXING:  cpu time    0.0091: real time    0.0091
    --------------------------------------------
      LOOP:  cpu time   24.2737: real time   24.3313

 eigenvalue-minimisations  :  3866
 total energy-change (2. order) : 0.4263913E+00  (-0.2956640E-01)
 number of electron     801.0000004 magnetization 
 augmentation part      247.1564145 magnetization 

 Broyden mixing:
  rms(total) = 0.78689E+00    rms(broyden)= 0.78689E+00
  rms(prec ) = 0.94812E+00
  weight for this iteration     100.00

 eigenvalues of (default mixing * dielectric matrix)
  average eigenvalue GAMMA=   0.6150
  2.1298  0.9470  0.9470  0.6414  0.3639  0.3639  0.1124  0.2310  0.2310  0.1825

 Free energy of the ion-electron system (eV)
  ---------------------------------------------------
  alpha Z        PSCENC =      2814.38679644
  Ewald energy   TEWEN  =    167744.92840464
  -Hartree energ DENC   =   -231725.23769536
  -exchange      EXHF   =         0.00000000
  -V(xc)+E(xc)   XCENC  =       271.41874725
  PAW double counting   =     75410.40938566   -73411.59264879
  entropy T*S    EENTRO =        -0.05836887
  eigenvalues    EBANDS =        86.58051938
  atomic energy  EATOM  =     58341.73154849
  Solvation  Ediel_sol  =         0.00000000
  ---------------------------------------------------
  free energy    TOTEN  =      -467.43331116 eV

  energy without entropy =     -467.37494229  energy(sigma->0) =     -467.41385487


--------------------------------------------------------------------------------------------------------




--------------------------------------- Iteration      1(  16)  ---------------------------------------


    POTLOK:  cpu time    0.1766: real time    0.1770
    SETDIJ:  cpu time    0.0193: real time    0.0193
    EDDIAG:  cpu time    4.6844: real time    4.6957
  RMM-DIIS:  cpu time   16.8684: real time   16.9084
    ORTHCH:  cpu time    0.4458: real time    0.4469
       DOS:  cpu time    0.0012: real time    0.0012
    CHARGE:  cpu time    2.1544: real time    2.1595
    MIXING:  cpu time    0.0082: real time    0.0082
    --------------------------------------------
      LOOP:  cpu time   24.3582: real time   24.4162

 eigenvalue-minimisations  :  3882
 total energy-change (2. order) : 0.1483851E+00  (-0.6458491E-02)
 number of electron     801.0000004 magnetization 
 augmentation part      247.1115457 magnetization 

 Broyden mixing:
  rms(total) = 0.60399E+00    rms(broyden)= 0.60399E+00
  rms(prec ) = 0.67676E+00
  weight for this iteration     100.00

 eigenvalues of (default mixing * dielectric matrix)
  average eigenvalue GAMMA=   0.6251
  2.1407  1.0712  1.0712  0.4788  0.4788  0.4309  0.4309  0.1123  0.2626  0.2049
  0.1939

 Free energy of the ion-electron system (eV)
  ---------------------------------------------------
  alpha Z        PSCENC =      2814.38679644
  Ewald energy   TEWEN  =    167744.92840464
  -Hartree energ DENC   =   -231729.93433586
  -exchange      EXHF   =         0.00000000
  -V(xc)+E(xc)   XCENC  =       271.41843273
  PAW double counting   =     75428.18563473   -73429.55139394
  entropy T*S    EENTRO =        -0.06872470
  eigenvalues    EBANDS =        91.61871141
  atomic energy  EATOM  =     58341.73154849
  Solvation  Ediel_sol  =         0.00000000
  ---------------------------------------------------
  free energy    TOTEN  =      -467.28492607 eV

  energy without entropy =     -467.21620137  energy(sigma->0) =     -467.26201784


--------------------------------------------------------------------------------------------------------




--------------------------------------- Iteration      1(  17)  ---------------------------------------


    POTLOK:  cpu time    0.1704: real time    0.1708
    SETDIJ:  cpu time    0.0160: real time    0.0161
    EDDIAG:  cpu time    4.6753: real time    4.6865
  RMM-DIIS:  cpu time   16.7866: real time   16.8264
    ORTHCH:  cpu time    0.4450: real time    0.4460
       DOS:  cpu time    0.0011: real time    0.0011
    CHARGE:  cpu time    2.1504: real time    2.1555
    MIXING:  cpu time    0.0088: real time    0.0089
    --------------------------------------------
      LOOP:  cpu time   24.2537: real time   24.3113

 eigenvalue-minimisations  :  3866
 total energy-change (2. order) : 0.2741202E-01  (-0.5710687E-02)
 number of electron     801.0000004 magnetization 
 augmentation part      247.0834880 magnetization 

 Broyden mixing:
  rms(total) = 0.45620E+00    rms(broyden)= 0.45620E+00
  rms(prec ) = 0.51140E+00
  weight for this iteration     100.00

 eigenvalues of (default mixing * dielectric matrix)
  average eigenvalue GAMMA=   0.7327
  2.0693  1.7298  1.7298  0.7160  0.7160  0.3863  0.3863  0.3385  0.1123  0.2148
  0.2148  0.1787

 Free energy of the ion-electron system (eV)
  ---------------------------------------------------
  alpha Z        PSCENC =      2814.38679644
  Ewald energy   TEWEN  =    167744.92840464
  -Hartree energ DENC   =   -231734.82569069
  -exchange      EXHF   =         0.00000000
  -V(xc)+E(xc)   XCENC  =       271.43028580
  PAW double counting   =     75424.65662218   -73426.02031973
  entropy T*S    EENTRO =        -0.08616705
  eigenvalues    EBANDS =        96.54100587
  atomic energy  EATOM  =     58341.73154849
  Solvation  Ediel_sol  =         0.00000000
  ---------------------------------------------------
  free energy    TOTEN  =      -467.25751405 eV

  energy without entropy =     -467.17134700  energy(sigma->0) =     -467.22879170


--------------------------------------------------------------------------------------------------------




--------------------------------------- Iteration      1(  18)  ---------------------------------------


    POTLOK:  cpu time    0.1719: real time    0.1724
    SETDIJ:  cpu time    0.0164: real time    0.0164
    EDDIAG:  cpu time    4.6700: real time    4.6812
  RMM-DIIS:  cpu time   16.8205: real time   16.8635
    ORTHCH:  cpu time    0.4420: real time    0.4430
       DOS:  cpu time    0.0012: real time    0.0012
    CHARGE:  cpu time    2.1630: real time    2.1683
    MIXING:  cpu time    0.0090: real time    0.0090
    --------------------------------------------
      LOOP:  cpu time   24.2940: real time   24.3549

 eigenvalue-minimisations  :  3863
 total energy-change (2. order) :-0.2590308E+00  (-0.2287709E-01)
 number of electron     801.0000004 magnetization 
 augmentation part      247.0782280 magnetization 

 Broyden mixing:
  rms(total) = 0.76572E+00    rms(broyden)= 0.76571E+00
  rms(prec ) = 0.10208E+01
  weight for this iteration     100.00

 eigenvalues of (default mixing * dielectric matrix)
  average eigenvalue GAMMA=   0.7370
  2.1968  2.1968  1.4839  0.7906  0.7906  0.4038  0.4038  0.3497  0.1123  0.2760
  0.2160  0.1805  0.1805

 Free energy of the ion-electron system (eV)
  ---------------------------------------------------
  alpha Z        PSCENC =      2814.38679644
  Ewald energy   TEWEN  =    167744.92840464
  -Hartree energ DENC   =   -231747.42918531
  -exchange      EXHF   =         0.00000000
  -V(xc)+E(xc)   XCENC  =       271.69293541
  PAW double counting   =     75341.54754938   -73341.58771512
  entropy T*S    EENTRO =        -0.08932098
  eigenvalues    EBANDS =       107.30244218
  atomic energy  EATOM  =     58341.73154849
  Solvation  Ediel_sol  =         0.00000000
  ---------------------------------------------------
  free energy    TOTEN  =      -467.51654488 eV

  energy without entropy =     -467.42722389  energy(sigma->0) =     -467.48677122


--------------------------------------------------------------------------------------------------------




--------------------------------------- Iteration      1(  19)  ---------------------------------------


    POTLOK:  cpu time    0.1742: real time    0.1747
    SETDIJ:  cpu time    0.0160: real time    0.0160
    EDDIAG:  cpu time    4.6677: real time    4.6789
  RMM-DIIS:  cpu time   16.7783: real time   16.8180
    ORTHCH:  cpu time    0.4447: real time    0.4458
       DOS:  cpu time    0.0012: real time    0.0012
    CHARGE:  cpu time    2.1663: real time    2.1714
    MIXING:  cpu time    0.0096: real time    0.0097
    --------------------------------------------
      LOOP:  cpu time   24.2581: real time   24.3158

 eigenvalue-minimisations  :  3865
 total energy-change (2. order) : 0.2648702E+00  (-0.1596550E-01)
 number of electron     801.0000004 magnetization 
 augmentation part      247.0234059 magnetization 

 Broyden mixing:
  rms(total) = 0.39078E+00    rms(broyden)= 0.39078E+00
  rms(prec ) = 0.42684E+00
  weight for this iteration     100.00

 eigenvalues of (default mixing * dielectric matrix)
  average eigenvalue GAMMA=   0.6784
  1.8913  1.8913  1.5266  0.8128  0.8128  0.5193  0.4124  0.4124  0.3173  0.1123
  0.2242  0.2084  0.1842  0.1728

 Free energy of the ion-electron system (eV)
  ---------------------------------------------------
  alpha Z        PSCENC =      2814.38679644
  Ewald energy   TEWEN  =    167744.92840464
  -Hartree energ DENC   =   -231753.63134467
  -exchange      EXHF   =         0.00000000
  -V(xc)+E(xc)   XCENC  =       272.01941720
  PAW double counting   =     75266.77448544   -73265.03690931
  entropy T*S    EENTRO =        -0.07541518
  eigenvalues    EBANDS =       111.65134227
  atomic energy  EATOM  =     58341.73154849
  Solvation  Ediel_sol  =         0.00000000
  ---------------------------------------------------
  free energy    TOTEN  =      -467.25167469 eV

  energy without entropy =     -467.17625950  energy(sigma->0) =     -467.22653629


--------------------------------------------------------------------------------------------------------




--------------------------------------- Iteration      1(  20)  ---------------------------------------


    POTLOK:  cpu time    0.1733: real time    0.1737
    SETDIJ:  cpu time    0.0160: real time    0.0161
    EDDIAG:  cpu time    4.6791: real time    4.6903
  RMM-DIIS:  cpu time   16.7895: real time   16.8292
    ORTHCH:  cpu time    0.5059: real time    0.5071
       DOS:  cpu time    0.0014: real time    0.0014
    CHARGE:  cpu time    2.1642: real time    2.1694
    MIXING:  cpu time    0.0093: real time    0.0093
    --------------------------------------------
      LOOP:  cpu time   24.3388: real time   24.3966

 eigenvalue-minimisations  :  3865
 total energy-change (2. order) : 0.6524682E-01  (-0.4415041E-02)
 number of electron     801.0000004 magnetization 
 augmentation part      246.9413160 magnetization 

 Broyden mixing:
  rms(total) = 0.20662E+00    rms(broyden)= 0.20662E+00
  rms(prec ) = 0.24618E+00
  weight for this iteration     100.00

 eigenvalues of (default mixing * dielectric matrix)
  average eigenvalue GAMMA=   0.6573
  2.0761  1.3121  1.3121  1.0447  1.0447  0.7150  0.4140  0.4140  0.3623  0.1123
  0.2754  0.2158  0.2158  0.1816  0.1635

 Free energy of the ion-electron system (eV)
  ---------------------------------------------------
  alpha Z        PSCENC =      2814.38679644
  Ewald energy   TEWEN  =    167744.92840464
  -Hartree energ DENC   =   -231757.50409159
  -exchange      EXHF   =         0.00000000
  -V(xc)+E(xc)   XCENC  =       272.03584171
  PAW double counting   =     75333.68947066   -73332.28497129
  entropy T*S    EENTRO =        -0.07028519
  eigenvalues    EBANDS =       115.90085824
  atomic energy  EATOM  =     58341.73154849
  Solvation  Ediel_sol  =         0.00000000
[...]
 -----------------------------------------------------------------------------------------------
   -.112E+00 0.355E-01 -.135E+04   0.464E-01 0.336E-02 0.135E+04   0.187E-02 -.554E-03 0.447E+00   0.619E-01 -.345E-01 0.147E+00
   -.422E-01 -.318E+00 -.134E+04   0.779E-01 0.358E+00 0.134E+04   -.342E-01 0.137E-02 0.514E+00   0.777E-03 -.438E-01 0.139E+00
   0.580E+00 0.550E-01 -.134E+04   -.592E+00 -.962E-01 0.134E+04   -.395E-01 0.181E-01 0.496E+00   0.377E-01 0.179E-01 0.133E+00
   -.331E+00 0.100E+01 0.268E+04   0.337E+00 -.979E+00 -.268E+04   -.273E-02 -.221E-01 -.198E+00   0.845E-02 -.190E-01 -.419E-01
   -.297E+00 0.771E+00 0.268E+04   0.363E+00 -.739E+00 -.268E+04   -.460E-01 -.158E-01 -.271E+00   -.222E-01 -.354E-02 -.416E-01
   -.705E+00 0.711E+00 0.268E+04   0.707E+00 -.775E+00 -.268E+04   0.180E-01 0.460E-01 -.278E+00   -.195E-01 0.165E-01 -.437E-01
   0.752E+00 -.297E+01 0.136E+04   -.799E+00 0.299E+01 -.136E+04   -.199E-01 0.196E-01 -.466E+00   0.538E-01 -.689E-02 -.104E+00
   0.482E+00 0.171E+01 0.136E+04   -.488E+00 -.166E+01 -.136E+04   -.178E-01 -.287E-01 -.452E+00   -.135E-01 -.329E-01 -.106E+00
   0.328E-01 -.146E+01 -.135E+04   -.634E-01 0.145E+01 0.135E+04   0.587E-02 -.737E-03 0.400E+00   0.269E-01 0.246E-01 0.146E+00
   -.106E+00 -.609E+00 0.268E+04   0.156E+00 0.527E+00 -.268E+04   -.375E-01 0.690E-01 -.277E+00   -.308E-01 0.367E-01 -.557E-01
   0.669E+00 -.144E+01 0.136E+04   -.621E+00 0.143E+01 -.136E+04   -.105E-02 0.327E-01 -.437E+00   -.110E-01 0.419E-02 -.933E-01
   -.377E+00 0.322E+00 0.494E+01   0.348E+00 -.372E+00 -.494E+01   -.132E-02 0.492E-01 -.287E-01   0.291E-01 0.306E-01 0.259E-01
   -.768E+00 0.104E+01 -.134E+04   0.796E+00 -.105E+01 0.134E+04   -.149E-01 -.102E-01 0.422E+00   -.256E-01 0.188E-01 0.180E+00
   0.364E+01 0.186E+01 -.137E+04   -.372E+01 -.193E+01 0.137E+04   0.111E+00 0.787E-01 0.409E+00   -.381E-01 0.602E-02 0.145E+00
   -.266E+01 -.119E+01 -.136E+04   0.290E+01 0.127E+01 0.136E+04   -.202E+00 -.131E+00 0.284E+00   -.138E-01 0.605E-01 0.158E+00
   -.701E+00 -.997E-01 0.268E+04   0.695E+00 0.974E-01 -.268E+04   0.522E-01 -.254E-01 -.278E+00   -.525E-02 0.686E-04 -.823E-01
   0.189E+01 0.675E-01 0.268E+04   -.188E+01 -.641E-01 -.268E+04   -.638E-01 0.133E-01 -.232E+00   0.184E-01 -.225E-01 -.606E-01
   -.650E+00 -.983E+00 0.267E+04   0.567E+00 0.872E+00 -.267E+04   0.639E-01 0.726E-01 -.105E+00   0.670E-02 0.291E-01 -.739E-01
   0.225E+00 -.581E+00 0.136E+04   -.268E+00 0.620E+00 -.136E+04   -.160E-01 0.173E-01 -.464E+00   0.581E-01 -.455E-01 -.109E+00
   0.116E+01 0.131E+01 0.826E+01   -.122E+01 -.128E+01 -.829E+01   0.102E-01 0.508E-02 0.147E-01   0.637E-01 -.405E-01 0.140E-01
   -.121E+00 0.961E+00 0.136E+04   0.112E+00 -.953E+00 -.136E+04   -.111E-01 -.308E-01 -.457E+00   0.164E-01 -.477E-02 -.813E-01
   0.522E+01 -.338E+01 0.135E+04   -.528E+01 0.340E+01 -.135E+04   -.399E-01 0.314E-01 -.318E+00   0.312E-01 -.600E-02 -.109E+00
   -.399E-01 0.270E+01 -.135E+04   0.916E-01 -.293E+01 0.135E+04   0.914E-02 0.217E+00 0.340E+00   -.612E-01 -.183E-01 0.160E+00
   -.221E+00 0.131E+01 0.268E+04   0.244E+00 -.118E+01 -.268E+04   0.346E-03 -.882E-01 -.105E+00   -.920E-02 -.264E-01 -.676E-01
   0.286E+01 0.171E+01 0.136E+04   -.291E+01 -.169E+01 -.136E+04   -.298E-01 -.526E-02 -.472E+00   0.332E-01 -.434E-01 -.112E+00
   -.600E-01 0.223E+01 0.486E+01   0.115E+00 -.222E+01 -.497E+01   0.696E-02 -.222E-02 0.702E-01   -.619E-01 -.153E-01 0.511E-01
   0.429E+00 0.212E+00 -.267E+04   -.491E+00 -.191E+00 0.267E+04   0.417E-01 0.114E-01 0.206E+00   0.195E-01 -.318E-01 0.641E-01
   0.991E+01 0.860E+00 -.267E+04   -.980E+01 -.843E+00 0.267E+04   -.144E+00 -.313E-01 0.168E+00   0.185E-01 0.238E-01 0.543E-01
   0.342E+01 -.763E+01 -.266E+04   -.339E+01 0.757E+01 0.266E+04   -.220E-01 0.657E-01 0.162E+00   -.157E-01 -.255E-01 0.594E-01
   -.835E+01 0.926E+00 -.266E+04   0.819E+01 -.891E+00 0.266E+04   0.141E+00 -.286E-01 0.158E+00   0.295E-01 0.297E-02 0.756E-01
   -.348E+01 -.684E+01 -.266E+04   0.345E+01 0.676E+01 0.266E+04   0.480E-01 0.589E-01 0.159E+00   -.191E-01 0.171E-02 0.831E-01
   -.537E+01 0.751E+01 -.266E+04   0.526E+01 -.738E+01 0.266E+04   0.104E+00 -.987E-01 0.161E+00   0.774E-02 -.336E-01 0.780E-01
   0.814E+00 0.103E+01 -.267E+04   -.824E+00 -.996E+00 0.267E+04   0.191E-02 -.283E-01 0.223E+00   0.570E-02 -.725E-02 0.722E-01
   -.564E+00 0.104E+01 -.267E+04   0.579E+00 -.104E+01 0.267E+04   -.320E-01 0.804E-02 0.205E+00   0.153E-01 -.422E-02 0.875E-01
   0.688E+00 -.164E+01 -.267E+04   -.730E+00 0.168E+01 0.267E+04   -.941E-03 -.241E-01 0.210E+00   0.414E-01 0.583E-02 0.627E-01
   0.534E+01 0.849E+01 -.267E+04   -.525E+01 -.839E+01 0.267E+04   -.925E-01 -.113E+00 0.168E+00   -.686E-02 0.141E-01 0.799E-01
   -.545E+00 -.197E+02 -.268E+04   0.571E+00 0.205E+02 0.268E+04   0.830E-02 -.894E+00 -.289E-01   -.393E-01 0.164E-01 0.578E-01
   -.180E+02 0.101E+02 -.268E+04   0.186E+02 -.105E+02 0.268E+04   -.618E+00 0.320E+00 -.230E+00   -.154E-01 0.370E-02 0.758E-01
   0.621E+01 -.541E+01 -.265E+04   -.635E+01 0.550E+01 0.265E+04   0.159E+00 -.888E-01 0.237E+00   -.481E-02 0.679E-02 0.440E-01
   -.832E+00 0.811E+01 -.265E+04   0.823E+00 -.823E+01 0.265E+04   0.122E-01 0.157E+00 0.255E+00   -.632E-02 -.130E-01 0.866E-01
   -.171E+00 -.407E+01 -.137E+04   0.187E+00 0.418E+01 0.137E+04   0.918E-02 -.133E+00 0.419E+00   -.274E-01 0.260E-01 0.148E+00
   0.106E+01 -.158E+01 0.268E+04   -.107E+01 0.155E+01 -.268E+04   -.173E-01 0.322E-01 -.226E+00   0.305E-01 0.110E-01 -.643E-01
   0.190E+00 0.292E+00 -.134E+04   -.210E+00 -.241E+00 0.134E+04   0.607E-02 -.616E-01 0.500E+00   0.105E-01 0.120E-01 0.174E+00
   0.129E+01 -.138E+01 0.268E+04   -.135E+01 0.137E+01 -.268E+04   0.973E-03 0.325E-01 -.273E+00   0.339E-01 -.946E-02 -.738E-01
   0.124E+01 -.583E+00 0.136E+04   -.121E+01 0.520E+00 -.136E+04   -.312E-01 0.828E-02 -.451E+00   -.857E-02 0.201E-01 -.962E-01
   -.160E+01 -.465E+00 0.135E+04   0.163E+01 0.363E+00 -.135E+04   0.875E-02 0.166E-02 -.445E+00   -.291E-01 0.609E-01 -.754E-01
   0.802E+00 0.978E+00 -.134E+04   -.810E+00 -.939E+00 0.134E+04   0.280E-01 -.122E-01 0.430E+00   -.782E-02 -.320E-01 0.153E+00
   -.302E+00 -.148E+00 0.268E+04   0.369E+00 0.135E+00 -.268E+04   -.565E-01 -.985E-02 -.275E+00   -.353E-01 0.126E-01 -.544E-01
   -.688E+00 0.197E+01 0.136E+04   0.773E+00 -.195E+01 -.136E+04   0.192E-01 -.244E-01 -.453E+00   -.560E-01 -.111E-01 -.746E-01
   0.165E+02 0.100E+02 -.268E+04   -.171E+02 -.104E+02 0.268E+04   0.631E+00 0.315E+00 -.223E+00   -.299E-01 0.230E-01 0.548E-01
   0.437E+00 -.495E+00 -.217E+02   -.408E+00 0.471E+00 0.221E+02   -.464E-02 0.230E-01 -.409E+00   -.288E-01 0.183E-01 0.464E-01
   -.642E+01 -.447E+01 -.265E+04   0.654E+01 0.455E+01 0.265E+04   -.134E+00 -.920E-01 0.246E+00   0.499E-02 0.145E-01 0.887E-01
   -.121E+01 -.175E+01 0.136E+04   0.117E+01 0.172E+01 -.136E+04   0.164E-01 0.429E-01 -.447E+00   0.116E-01 0.224E-01 -.103E+00
   -.152E+00 -.480E+00 0.136E+04   0.209E+00 0.446E+00 -.136E+04   -.551E-02 0.318E-02 -.435E+00   -.543E-01 0.313E-01 -.898E-01
   -.145E+01 0.140E+01 0.655E+01   0.143E+01 -.139E+01 -.660E+01   -.192E-01 0.864E-02 0.395E-02   0.281E-01 -.222E-01 0.377E-01
   -.492E+00 -.658E-01 -.134E+04   0.401E+00 0.462E-01 0.134E+04   0.520E-01 0.226E-01 0.509E+00   0.504E-01 -.323E-02 0.137E+00
   -.397E+01 0.182E+01 -.138E+04   0.412E+01 -.191E+01 0.138E+04   -.912E-01 0.757E-01 0.396E+00   -.503E-01 0.261E-01 0.141E+00
   -.197E+00 0.607E+00 0.268E+04   0.241E+00 -.660E+00 -.268E+04   -.339E-01 0.477E-01 -.276E+00   -.228E-02 -.554E-02 -.437E-01
   -.688E+00 0.934E+00 0.267E+04   0.699E+00 -.946E+00 -.267E+04   0.182E-01 -.724E-02 -.235E+00   0.331E-02 -.170E-03 -.609E-01
   0.594E+00 0.600E+01 0.135E+04   -.567E+00 -.601E+01 -.135E+04   -.215E-01 -.369E-01 -.309E+00   -.163E-01 -.172E-01 -.905E-01
   -.465E+01 -.332E+01 0.135E+04   0.467E+01 0.329E+01 -.135E+04   0.297E-01 0.283E-01 -.307E+00   0.645E-02 0.345E-01 -.880E-01
   -.270E+01 -.141E+01 0.488E+00   0.272E+01 0.135E+01 -.563E+00   0.231E-01 -.319E-02 0.203E-01   -.210E-01 0.663E-01 0.572E-01
   0.255E+01 -.115E+01 -.135E+04   -.280E+01 0.130E+01 0.135E+04   0.214E+00 -.127E+00 0.300E+00   0.131E-01 -.860E-02 0.134E+00
   0.227E-02 -.880E+00 0.268E+04   0.110E+00 0.783E+00 -.268E+04   -.696E-01 0.675E-01 -.108E+00   -.649E-02 0.175E-01 -.455E-01
   -.657E+00 -.758E+00 0.835E+01   0.672E+00 0.808E+00 -.838E+01   -.580E-02 0.956E-02 0.137E-02   -.106E-01 -.429E-01 0.267E-01
   0.281E+01 0.491E+01 0.282E+01   -.285E+01 -.487E+01 -.291E+01   0.607E-01 -.184E-01 0.447E-01   -.309E-01 -.341E-01 0.378E-01
   0.494E+01 -.272E+00 0.343E+01   -.499E+01 0.222E+00 -.346E+01   0.239E-01 0.837E-01 0.263E-01   0.216E-01 -.137E-01 0.458E-02
   -.266E+01 0.501E+01 0.175E+01   0.277E+01 -.500E+01 -.185E+01   -.491E-01 -.159E-01 0.267E-01   -.609E-01 -.143E-01 0.597E-01
   0.537E+00 -.110E+01 0.642E+01   -.558E+00 0.112E+01 -.644E+01   0.132E-01 0.384E-02 -.209E-01   0.113E-01 -.851E-02 0.419E-01
   -.301E+01 0.207E+01 0.135E+04   0.307E+01 -.211E+01 -.135E+04   0.203E-01 -.312E-02 -.467E+00   -.334E-01 0.187E-01 -.573E-01
   -.288E-01 -.194E+01 0.726E+01   -.315E-01 0.198E+01 -.729E+01   -.589E-03 -.133E-01 -.572E-02   0.612E-01 -.393E-01 0.208E-01
   -.303E+00 0.363E+00 -.134E+04   0.278E+00 -.264E+00 0.134E+04   -.188E-02 -.632E-01 0.505E+00   0.229E-01 -.394E-01 0.146E+00
   0.848E-02 -.646E-01 -.134E+04   -.583E-01 0.708E-01 0.134E+04   0.501E-01 0.167E-02 0.527E+00   -.174E-02 -.114E-01 0.171E+00
   0.273E-01 -.444E+00 0.268E+04   0.363E-01 0.425E+00 -.268E+04   -.645E-01 0.126E-01 -.277E+00   0.653E-02 0.341E-02 -.462E-01
   0.113E+01 -.256E+00 0.268E+04   -.116E+01 0.324E+00 -.268E+04   -.236E-02 -.153E-01 -.271E+00   0.228E-01 -.399E-01 -.693E-01
   -.503E+01 -.146E+00 -.104E+01   0.507E+01 0.225E-01 0.968E+00   -.198E-01 0.793E-01 0.905E-02   -.232E-01 0.598E-01 0.642E-01
   0.230E+01 -.127E+01 0.440E+01   -.230E+01 0.125E+01 -.447E+01   -.180E-01 0.578E-02 0.537E-01   -.126E-01 0.149E-01 0.193E-01
   0.346E-01 -.519E-02 0.136E+04   -.441E-01 0.212E-01 -.136E+04   0.462E-02 0.116E-01 -.454E+00   0.113E-01 -.241E-01 -.773E-01
   0.232E+01 -.417E+01 0.472E+01   -.231E+01 0.422E+01 -.479E+01   -.238E-01 -.491E-01 0.548E-01   0.231E-01 -.434E-02 0.109E-01
   -.211E+01 -.435E+01 0.186E+01   0.205E+01 0.435E+01 -.195E+01   0.355E-01 -.529E-01 0.536E-01   0.104E-01 0.460E-01 0.492E-01
   -.184E+00 -.937E+00 -.319E+03   0.192E+00 0.105E+01 0.321E+03   -.473E-02 -.928E-01 -.164E+01   -.301E-02 0.161E-02 0.339E-02
 -----------------------------------------------------------------------------------------------
   0.826E-01 0.295E+00 0.142E+01   0.465E-12 -.726E-12 -.847E-11   -.102E+00 -.288E+00 -.326E+01   -.174E-02 0.892E-03 0.171E+01
 
 
 POSITION                                       TOTAL-FORCE (eV/Angst)
 -----------------------------------------------------------------------------------
     12.99275      8.03580      7.36461        -0.000175      0.003766     -0.011213
      5.00059      8.03729      7.34354         0.008912     -0.007006      0.007914
      3.66651      5.72520      7.34984        -0.006015     -0.008701     -0.005801
     13.01699      8.01154      0.20256         0.012565     -0.015578      0.015105
      5.02298      8.00900      0.20656        -0.001435      0.012971     -0.023350
      3.68983      5.70195      0.21045         0.000925     -0.002088     -0.025743
      7.68057      1.86158      2.61765        -0.013080      0.036564     -0.012884
      9.01270      8.78497      2.62059        -0.037733     -0.007411     -0.034119
      2.33276      3.41790      7.35954         0.002867      0.010063     -0.019514
      2.35894      3.39386      0.21148        -0.018308      0.023308     -0.044809
     10.34414      1.86096      2.61700         0.036301      0.028875     -0.028689
     12.99994      4.94483      4.99180        -0.000031      0.028463      0.004811
      3.66439      1.11381      7.35455        -0.011720      0.000580     -0.020899
      8.98816      5.72341      7.40566        -0.022801      0.004927      0.013126
      5.00847      3.42697      7.38610         0.014077      0.006947      0.016658
      3.68867      1.08692      0.21030         0.040159     -0.026961     -0.044920
      9.02153      5.70186      0.20679        -0.033482     -0.005846      0.012710
      5.02250      3.39313      0.21271        -0.012994     -0.009961      0.010118
     11.67678      8.78525      2.61762        -0.001507      0.011644     -0.006676
     11.66865      7.25550      4.98207         0.009849     -0.008060      0.001951
     13.01078      6.47742      2.61939        -0.003420     -0.028840     -0.002112
      9.01343      4.16895      2.61982        -0.062026      0.039418      0.119402
      7.66255      8.02404      7.37483        -0.000985     -0.020931      0.025746
      7.68689      8.01068      0.20712         0.013700      0.016654      0.015216
     10.34594      6.47730      2.61897        -0.045731     -0.031193     -0.009908
      2.33977      0.32823      4.98497        -0.000496     -0.001093      0.013936
     14.32185      8.81367      9.77993        -0.000244      0.001001     -0.020861
      3.66107      4.19939      9.77795        -0.014696      0.008729     -0.012668
      6.32390      8.81786      9.76621        -0.001364     -0.023832     -0.014978
     11.65762      4.19922      9.76727         0.012389      0.008131     -0.010750
      8.99459      8.81763      9.76581        -0.000252     -0.023211     -0.017626
     10.32250      1.88761      9.76376         0.004996      0.000206     -0.012735
      2.32958      1.89115      9.75183        -0.002428      0.000442      0.001571
     11.65688      8.81340      9.77984        -0.001089      0.003623     -0.018252
     12.98930      6.50334      9.78068        -0.001256      0.020645     -0.016264
      4.99683      1.88763      9.77256        -0.012129      0.001883     -0.013796
      7.65970      6.53745      9.89864        -0.004599     -0.005740      0.032466
      9.01742      4.18499      9.90479        -0.008642     -0.005228      0.026680
      4.98304      6.51297      9.73641         0.016314      0.002838      0.009299
      7.65940      1.87711      9.73249        -0.002440      0.019820      0.012653
      7.66250      3.42848      7.40551        -0.002171      0.012788      0.017441
      7.68752      3.39475      0.20640         0.001066      0.014909      0.011210
      6.32857      1.11482      7.34593        -0.000636      0.008382     -0.007192
      6.35605      1.08575      0.20493        -0.015671      0.007197     -0.018514
     11.67800      4.16933      2.62083        -0.010290     -0.035693     -0.025445
      3.68403      4.16936      2.62545         0.008388     -0.039590     -0.008784
      1.00150      1.11384      7.34951         0.011707     -0.004757     -0.018651
      1.02537      1.08636      0.20632        -0.024684     -0.009768     -0.043336
      6.34686      8.78490      2.62017         0.046643     -0.006124     -0.035645
      6.30150      4.18537      9.91094         0.003565     -0.002290      0.033843
      7.67061      4.94655      5.05166        -0.005138      0.017487      0.001425
     10.33551      6.51292      9.73075        -0.018344      0.003454      0.013546
      5.01497      1.86032      2.62358        -0.008420      0.035289     -0.020955
      2.35015      1.86129      2.62373        -0.002604      0.000775     -0.042096
     14.33142      7.25489      4.98552        -0.011906     -0.005417      0.001070
     11.65898      5.72520      7.34384         0.006620     -0.004851     -0.004072
      6.33685      5.72348      7.41079         0.020132      0.002296      0.007194
     11.68508      5.70209      0.20591         0.008057     -0.010104     -0.019729
      6.35421      5.70254      0.21091         0.031528     -0.018928      0.012332
      7.68150      6.47750      2.62192        -0.010775     -0.069521      0.131490
      6.34811      4.16888      2.62415         0.059856      0.033356      0.127704
      3.67315      2.64011      4.99469         0.021279     -0.001811     -0.000239
     10.31649      3.42686      7.37422        -0.016380      0.006974      0.015917
     10.35232      3.39382      0.20473         0.036544     -0.012716      0.014986
     10.33462      0.33024      4.98452        -0.000649      0.017158      0.009690
      9.00115      7.25185      4.99056        -0.007063     -0.015524     -0.007859
     10.33161      4.94603      4.98957        -0.005326      0.015885     -0.004743
      6.33883      7.25125      4.99271         0.004194     -0.014104     -0.010381
      5.00435      0.33093      4.98900         0.003108      0.017482      0.003670
      5.01519      6.47693      2.62313         0.054160     -0.027940     -0.002250
      7.66936      0.33004      4.98457         0.001402     -0.001523     -0.004482
      8.99745      1.11481      7.34228        -0.003484      0.003220     -0.006553
     10.32530      8.03722      7.34132        -0.006795     -0.007555      0.010666
      9.02032      1.08655      0.20166         0.005870     -0.002470     -0.020006
     10.35256      8.00941      0.20403        -0.009748      0.012893     -0.019872
      5.00879      4.94589      4.99847        -0.000606      0.012713      0.000057
     11.66649      2.63945      4.98653        -0.022586     -0.000163      0.000276
     14.34290      8.78548      2.61683         0.007889      0.004275     -0.005085
      9.00007      2.64205      4.98613         0.009604     -0.007197     -0.000218
      6.33897      2.64266      4.99197        -0.010550     -0.006821      0.004443
      7.66166      4.93838     10.91483         0.000237      0.018516     -0.001647
 -----------------------------------------------------------------------------------
    total drift:                               -0.020748      0.007767     -0.130729


--------------------------------------------------------------------------------------------------------



  FREE ENERGIE OF THE ION-ELECTRON SYSTEM (eV)
  ---------------------------------------------------
  free  energy   TOTEN  =      -518.16963080 eV

  energy  without entropy=     -518.10228428  energy(sigma->0) =     -518.14718196
 


--------------------------------------------------------------------------------------------------------


    POTLOK:  cpu time    0.1891: real time    0.1895


--------------------------------------------------------------------------------------------------------




--------------------------------------------------------------------------------------------------------


  
 reached required accuracy - stopping structural energy minimisation
     LOOP+:  cpu time  784.9447: real time  786.9937
    4ORBIT:  cpu time    0.0000: real time    0.0000

 total amount of memory used by VASP MPI-rank0   162159. kBytes
=======================================================================

   base      :      30000. kBytes
   nonlr-proj:      36193. kBytes
   fftplans  :      17966. kBytes
   grid      :      27754. kBytes
   one-center:        326. kBytes
   wavefun   :      49920. kBytes
 
  
  
 General timing and accounting informations for this job:
 ========================================================
  
                  Total CPU time used (sec):      795.527
                            User time (sec):      793.895
                          System time (sec):        1.632
                         Elapsed time (sec):      798.255
  
                   Maximum memory used (kb):      537592.
                   Average memory used (kb):           0.
  
                          Minor page faults:       331541
                          Major page faults:            0
                 Voluntary context switches:         4220
