 vasp.5.4.4.18Apr17-6-g9f103f2a35 (build Nov 30 2020 22:55:02) complex          
  
 executed on             LinuxIFC date 2023.09.10  15:36:21
 running on   40 total cores
 distrk:  each k-point on   40 cores,    1 groups
 distr:  one band on NCORES_PER_BAND=   4 cores,   10 groups


--------------------------------------------------------------------------------------------------------


 INCAR:
 POTCAR:    PAW_PBE Cu 22Jun2005                  
 POTCAR:    PAW_PBE Pt 04Feb2005                  
 POTCAR:    PAW_PBE H 15Jun2001                   
 POTCAR:    PAW_PBE Cu 22Jun2005                  
   VRHFIN =Cu: d10 p1                                                           
   LEXCH  = PE                                                                  
   EATOM  =  1390.9808 eV,  102.2342 Ry                                         
                                                                                
   TITEL  = PAW_PBE Cu 22Jun2005                                                
   LULTRA =        F    use ultrasoft PP ?                                      
   IUNSCR =        1    unscreen: 0-lin 1-nonlin 2-no                           
   RPACOR =    2.000    partial core radius                                     
   POMASS =   63.546; ZVAL   =   11.000    mass and valenz                      
   RCORE  =    2.300    outmost cutoff radius                                   
   RWIGS  =    2.200; RWIGS  =    1.164    wigner-seitz radius (au A)           
   ENMAX  =  295.446; ENMIN  =  221.585 eV                                      
   ICORE  =        3    local potential                                         
   LCOR   =        T    correct aug charges                                     
   LPAW   =        T    paw PP                                                  
   EAUG   =  586.980                                                            
   DEXC   =    0.000                                                            
   RMAX   =    2.344    core radius for proj-oper                               
   RAUG   =    1.300    factor for augmentation sphere                          
   RDEP   =    2.302    radius for radial grids                                 
   RDEPT  =    1.771    core radius for aug-charge                              
                                                                                
   Atomic configuration                                                         
    9 entries                                                                   
     n  l   j            E        occ.                                          
     1  0  0.50     -8850.2468   2.0000                                         
     2  0  0.50     -1062.3498   2.0000                                         
     2  1  1.50      -916.8226   6.0000                                         
     3  0  0.50      -114.6929   2.0000                                         
     3  1  1.50       -72.1325   6.0000                                         
     3  2  2.50        -5.0394  10.0000                                         
     4  0  0.50        -4.6097   1.0000                                         
     4  1  0.50        -4.0817   0.0000                                         
     4  3  2.50        -1.3606   0.0000                                         
   Description                                                                  
     l       E           TYP  RCUT    TYP  RCUT                                 
     2     -5.0393973     23  2.200                                             
     2     10.8846608     23  2.200                                             
     0     -4.6097109     23  2.200                                             
     0      8.2520465     23  2.200                                             
     1     -2.7211652     23  2.200                                             
     1     21.7055443     23  2.200                                             
     3      2.7211652     23  2.300                                             
  local pseudopotential read in
  partial core-charges read in
  partial kinetic energy density read in
  atomic valenz-charges read in
  non local Contribution for L=           2  read in
    real space projection operators read in
  non local Contribution for L=           2  read in
    real space projection operators read in
  non local Contribution for L=           0  read in
    real space projection operators read in
  non local Contribution for L=           0  read in
    real space projection operators read in
  non local Contribution for L=           1  read in
    real space projection operators read in
  non local Contribution for L=           1  read in
    real space projection operators read in
    PAW grid and wavefunctions read in
 
   number of l-projection  operators is LMAX  =           6
   number of lm-projection operators is LMMAX =          18
 
 POTCAR:    PAW_PBE Pt 04Feb2005                  
   VRHFIN =Pt: s1d9                                                             
   LEXCH  = PE                                                                  
   EATOM  =   729.1176 eV,   53.5886 Ry                                         
                                                                                
   TITEL  = PAW_PBE Pt 04Feb2005                                                
   LULTRA =        F    use ultrasoft PP ?                                      
   IUNSCR =        1    unscreen: 0-lin 1-nonlin 2-no                           
   RPACOR =    2.330    partial core radius                                     
   POMASS =  195.080; ZVAL   =   10.000    mass and valenz                      
   RCORE  =    2.600    outmost cutoff radius                                   
   RWIGS  =    2.750; RWIGS  =    1.455    wigner-seitz radius (au A)           
   ENMAX  =  230.283; ENMIN  =  172.712 eV                                      
   ICORE  =        3    local potential                                         
   LCOR   =        T    correct aug charges                                     
   LPAW   =        T    paw PP                                                  
   EAUG   =  358.966                                                            
   DEXC   =    0.000                                                            
   RMAX   =    2.658    core radius for proj-oper                               
   RAUG   =    1.300    factor for augmentation sphere                          
   RDEP   =    2.761    radius for radial grids                                 
   RDEPT  =    2.203    core radius for aug-charge                              
                                                                                
   Atomic configuration                                                         
   16 entries                                                                   
     n  l   j            E        occ.                                          
     1  0  0.50    -78401.1885   2.0000                                         
     2  0  0.50    -13770.7750   2.0000                                         
     2  1  1.50    -11931.0468   6.0000                                         
     3  0  0.50     -3234.7234   2.0000                                         
     3  1  1.50     -2699.2216   6.0000                                         
     3  2  2.50     -2119.5714  10.0000                                         
     4  0  0.50      -695.1528   2.0000                                         
     4  1  1.50      -519.6034   6.0000                                         
     4  2  2.50      -306.6786  10.0000                                         
     4  3  3.50       -70.1041  14.0000                                         
     5  0  0.50      -101.7747   2.0000                                         
     5  1  1.50       -55.9873   6.0000                                         
     5  2  2.50        -6.1423   9.0000                                         
     6  0  0.50        -5.6573   1.0000                                         
     6  1  1.50        -6.8029   0.0000                                         
     5  3  2.50        -1.3606   0.0000                                         
   Description                                                                  
     l       E           TYP  RCUT    TYP  RCUT                                 
     2     -6.1423404     23  2.500                                             
     2     -7.5029230     23  2.500                                             
     0     -5.6573207     23  2.500                                             
     0      0.7416693     23  2.500                                             
     1     -2.7211652     23  2.600                                             
     1     20.4087390     23  2.600                                             
     3     -1.3605826     23  2.500                                             
  local pseudopotential read in
  partial core-charges read in
  partial kinetic energy density read in
  atomic valenz-charges read in
  non local Contribution for L=           2  read in
    real space projection operators read in
  non local Contribution for L=           2  read in
    real space projection operators read in
  non local Contribution for L=           0  read in
    real space projection operators read in
  non local Contribution for L=           0  read in
    real space projection operators read in
  non local Contribution for L=           1  read in
    real space projection operators read in
  non local Contribution for L=           1  read in
    real space projection operators read in
    PAW grid and wavefunctions read in
 
   number of l-projection  operators is LMAX  =           6
   number of lm-projection operators is LMMAX =          18
 
 POTCAR:    PAW_PBE H 15Jun2001                   
   VRHFIN =H: ultrasoft test                                                    
   LEXCH  = PE                                                                  
   EATOM  =    12.4884 eV,    0.9179 Ry                                         
                                                                                
   TITEL  = PAW_PBE H 15Jun2001                                                 
   LULTRA =        F    use ultrasoft PP ?                                      
   IUNSCR =        0    unscreen: 0-lin 1-nonlin 2-no                           
   RPACOR =    0.000    partial core radius                                     
   POMASS =    1.000; ZVAL   =    1.000    mass and valenz                      
   RCORE  =    1.100    outmost cutoff radius                                   
   RWIGS  =    0.700; RWIGS  =    0.370    wigner-seitz radius (au A)           
   ENMAX  =  250.000; ENMIN  =  200.000 eV                                      
   RCLOC  =    0.701    cutoff for local pot                                    
   LCOR   =        T    correct aug charges                                     
   LPAW   =        T    paw PP                                                  
   EAUG   =  400.000                                                            
   RMAX   =    1.123    core radius for proj-oper                               
   RAUG   =    1.200    factor for augmentation sphere                          
   RDEP   =    1.112    radius for radial grids                                 
   RDEPT  =    0.926    core radius for aug-charge                              
                                                                                
   Atomic configuration                                                         
    2 entries                                                                   
     n  l   j            E        occ.                                          
     1  0  0.50        -6.4927   1.0000                                         
     2  1  0.50        -3.4015   0.0000                                         
   Description                                                                  
     l       E           TYP  RCUT    TYP  RCUT                                 
     0     -6.4927494     23  1.100                                             
     0      6.8029130     23  1.100                                             
     1     -4.0817478     23  1.100                                             
  local pseudopotential read in
  atomic valenz-charges read in
  non local Contribution for L=           0  read in
    real space projection operators read in
  non local Contribution for L=           0  read in
    real space projection operators read in
  non local Contribution for L=           1  read in
    real space projection operators read in
    PAW grid and wavefunctions read in
 
   number of l-projection  operators is LMAX  =           3
   number of lm-projection operators is LMMAX =           5
 
 Optimization of the real space projectors (new method)

 maximal supplied QI-value         = 16.25
 optimisation between [QCUT,QGAM] = [ 11.86, 23.89] = [ 39.41,159.82] Ry 
 Optimized for a Real-space Cutoff    1.49 Angstroem

   l    n(q)    QCUT    max X(q) W(low)/X(q) W(high)/X(q)  e(spline) 
   2     10    11.864     4.610    0.10E-03    0.20E-03    0.29E-06
   2     10    11.864     8.522    0.17E-03    0.33E-03    0.50E-06
   0     11    11.864    51.609    0.52E-04    0.55E-04    0.33E-06
   0     11    11.864    27.747    0.46E-04    0.52E-04    0.31E-06
   1     10    11.864    20.408    0.54E-04    0.25E-04    0.21E-06
   1     10    11.864    13.425    0.48E-04    0.22E-04    0.18E-06
 Optimization of the real space projectors (new method)

 maximal supplied QI-value         = 14.36
 optimisation between [QCUT,QGAM] = [ 11.92, 23.98] = [ 39.79,161.09] Ry 
 Optimized for a Real-space Cutoff    1.49 Angstroem

   l    n(q)    QCUT    max X(q) W(low)/X(q) W(high)/X(q)  e(spline) 
   2     10    11.920    66.195    0.79E-04    0.18E-03    0.24E-06
   2     10    11.920    64.643    0.81E-04    0.19E-03    0.24E-06
   0     11    11.920    95.520    0.28E-04    0.54E-04    0.18E-06
   0     11    11.920    63.403    0.27E-04    0.52E-04    0.17E-06
   1     10    11.920    19.961    0.18E-04    0.11E-03    0.23E-06
   1     10    11.920    13.289    0.25E-04    0.87E-04    0.19E-06
 Optimization of the real space projectors (new method)

 maximal supplied QI-value         = 34.20
 optimisation between [QCUT,QGAM] = [ 11.97, 23.94] = [ 40.13,160.53] Ry 
 Optimized for a Real-space Cutoff    1.18 Angstroem

   l    n(q)    QCUT    max X(q) W(low)/X(q) W(high)/X(q)  e(spline) 
   0      8    11.971    19.460    0.15E-03    0.31E-03    0.25E-06
   0      8    11.971    12.209    0.13E-03    0.29E-03    0.25E-06
   1      8    11.971     4.655    0.22E-03    0.24E-03    0.21E-06
  PAW_PBE Cu 22Jun2005                  :
 energy of atom  1       EATOM=-1390.9808
 kinetic energy error for atom=    0.0036 (will be added to EATOM!!)
  PAW_PBE Pt 04Feb2005                  :
 energy of atom  2       EATOM= -729.1176
 kinetic energy error for atom=    0.0021 (will be added to EATOM!!)
  PAW_PBE H 15Jun2001                   :
 energy of atom  3       EATOM=  -12.4884
 kinetic energy error for atom=    0.0008 (will be added to EATOM!!)
 
 
 POSCAR: PtM\(2)                                 
  positions in direct lattice
  velocities in cartesian coordinates
  No initial velocities read in
 exchange correlation table for  LEXCH =        8
   RHO(1)=    0.500       N(1)  =     2000
   RHO(2)=  100.500       N(2)  =     4000
 


--------------------------------------------------------------------------------------------------------


 ion  position               nearest neighbor table
   1  0.785  0.869  0.314-  55 2.49  20 2.49  39 2.50  57 2.64   2 2.64  40 2.64   3 2.64  56 2.64
                            29 2.64  73 2.66  65 2.66  72 2.67
   2  0.035  0.870  0.314-  49 2.49  52 2.49  39 2.49  56 2.64  33 2.64   1 2.64  23 2.64   3 2.64
                            77 2.64  41 2.65  67 2.66  65 2.67
   3  0.035  0.619  0.314-  39 2.49  60 2.49  12 2.49   9 2.63  40 2.64  15 2.64   1 2.64   2 2.64
                            77 2.65  41 2.65  66 2.66  73 2.67
   4  0.786  0.868  0.045-  21 2.50  62 2.50  19 2.51  30 2.64  59 2.64  58 2.64  42 2.64   6 2.64
                             5 2.64
   5  0.036  0.868  0.045-  54 2.50  35 2.50  62 2.51  43 2.64   6 2.64  34 2.64  24 2.64  58 2.64
                             4 2.64
   6  0.036  0.618  0.045-  32 2.50  54 2.50  21 2.51   5 2.64  10 2.64  43 2.64   4 2.64  42 2.64
                            18 2.64
   7  0.619  0.202  0.135-  55 2.49  63 2.50  64 2.50  28 2.50  30 2.50  58 2.51  45 2.64  22 2.64
                            37 2.64  11 2.64  19 2.64  62 2.64
   8  0.369  0.952  0.135-  53 2.49  26 2.49  50 2.50  16 2.50  24 2.50  59 2.51  19 2.64  35 2.64
                            44 2.64  37 2.64  25 2.64  38 2.64
   9  0.035  0.370  0.314-  12 2.49  61 2.49  46 2.49   3 2.63  40 2.64  13 2.64  33 2.64  47 2.64
                            15 2.65  71 2.65  66 2.66  68 2.66
  10  0.036  0.368  0.045-  38 2.50  32 2.50  31 2.51  16 2.64   6 2.64  34 2.64  18 2.64  42 2.64
                            48 2.64
  11  0.869  0.202  0.135-  49 2.49  61 2.49  48 2.50  63 2.50  58 2.50  34 2.51  31 2.64  38 2.64
                            22 2.64  62 2.64   7 2.64  35 2.64
  12  0.952  0.535  0.225-   9 2.49  31 2.49   3 2.49  21 2.49  40 2.49  32 2.49  61 2.64  46 2.64
                            39 2.64  20 2.64  60 2.65  51 2.65
  13  0.285  0.119  0.314-  46 2.49  53 2.49  26 2.49  29 2.64  57 2.64  23 2.64  15 2.64   9 2.64
                            33 2.65  69 2.65  71 2.66  74 2.66
  14  0.534  0.619  0.316-  36 2.50  50 2.51  51 2.51  27 2.62  41 2.62  47 2.64  23 2.64  80 2.65
                            40 2.65  57 2.65  76 2.69  75 2.69
  15  0.285  0.370  0.315-  60 2.49  64 2.50  46 2.50  27 2.63  41 2.64   3 2.64  29 2.64  13 2.64
                             9 2.65  74 2.65  66 2.66  79 2.67
  16  0.286  0.118  0.045-   8 2.50  37 2.50  38 2.51  24 2.64  10 2.64  34 2.64  59 2.64  18 2.64
                            30 2.64
  17  0.536  0.618  0.045-  22 2.50  25 2.50  44 2.51  42 2.64  48 2.64  59 2.64  28 2.64  24 2.64
                            43 2.64
  18  0.286  0.368  0.045-  37 2.50  45 2.50  32 2.51  28 2.64  30 2.64  43 2.64  10 2.64  16 2.64
                             6 2.64
  19  0.619  0.952  0.135-  20 2.49  55 2.49  53 2.49  30 2.50  59 2.50   4 2.51  25 2.64   8 2.64
                            37 2.64  21 2.64   7 2.64  62 2.64
  20  0.702  0.785  0.225-  40 2.49  25 2.49  19 2.49  57 2.49   1 2.49  21 2.49  12 2.64  55 2.64
                            39 2.64  51 2.64  53 2.64  50 2.64
  21  0.869  0.702  0.135-  12 2.49  39 2.49  20 2.49   4 2.50  42 2.50   6 2.51  32 2.64  31 2.64
                            25 2.64  62 2.64  54 2.64  19 2.64
  22  0.619  0.452  0.135-  51 2.49  63 2.49  17 2.50  28 2.50  36 2.51  48 2.51  44 2.64  45 2.64
                             7 2.64  25 2.64  11 2.64  31 2.64
  23  0.285  0.869  0.315-  52 2.49  50 2.49  26 2.49  41 2.64  14 2.64  57 2.64   2 2.64  33 2.64
                            13 2.64  69 2.66  67 2.66  75 2.67
  24  0.286  0.868  0.045-  44 2.50   8 2.50  35 2.51  59 2.64  16 2.64  17 2.64  43 2.64   5 2.64
                            34 2.64
  25  0.619  0.702  0.135-  20 2.49  51 2.50  50 2.50  59 2.50  17 2.50  42 2.51  19 2.64  44 2.64
                             8 2.64  22 2.64  21 2.64  31 2.64
  26  0.202  0.036  0.225-  38 2.49  13 2.49  35 2.49  33 2.49   8 2.49  23 2.49  53 2.64  49 2.64
                            52 2.64  50 2.64  46 2.65  61 2.65
  27  0.534  0.370  0.316-  36 2.50  64 2.51  63 2.51  14 2.62  41 2.62  15 2.63  47 2.64  78 2.64
                            56 2.65  29 2.65  76 2.69  79 2.69
  28  0.536  0.368  0.045-   7 2.50  22 2.50  45 2.51  48 2.64  18 2.64  43 2.64  17 2.64  58 2.64
                            30 2.64
  29  0.535  0.119  0.314-  64 2.48  53 2.49  55 2.49  57 2.64  13 2.64   1 2.64  56 2.64  15 2.64
                            78 2.65  27 2.65  72 2.66  74 2.67
  30  0.536  0.118  0.045-  19 2.50   7 2.50  37 2.51   4 2.64  18 2.64  58 2.64  59 2.64  16 2.64
                            28 2.64
  31  0.869  0.452  0.135-  12 2.49  61 2.49  42 2.50  48 2.50  51 2.50  10 2.51  38 2.64  11 2.64
                            21 2.64  32 2.64  22 2.64  25 2.64
  32  0.119  0.452  0.135-  46 2.49  12 2.49  60 2.50   6 2.50  10 2.50  18 2.51  54 2.64  45 2.64
                            21 2.64  37 2.64  38 2.64  31 2.64
  33  0.035  0.119  0.314-  61 2.49  49 2.49  26 2.49  56 2.64   2 2.64  23 2.64  47 2.64   9 2.64
                            13 2.65  71 2.65  67 2.65  70 2.66
  34  0.036  0.118  0.045-  35 2.50  38 2.50  11 2.51  58 2.64  16 2.64   5 2.64  10 2.64  24 2.64
                            48 2.64
  35  0.119  0.952  0.135-  49 2.49  26 2.49  52 2.50  34 2.50   5 2.50  24 2.51   8 2.64  44 2.64
                            62 2.64  54 2.64  11 2.64  38 2.64
  36  0.452  0.536  0.226-  27 2.50  14 2.50  41 2.50  44 2.50  45 2.50  22 2.51  51 2.63  60 2.63
                            63 2.63  64 2.63  50 2.63  52 2.63
  37  0.369  0.202  0.135-  53 2.49  46 2.49  64 2.50  18 2.50  16 2.50  30 2.51  38 2.64  32 2.64
                             7 2.64   8 2.64  19 2.64  45 2.64
  38  0.119  0.202  0.135-  26 2.49  46 2.50  61 2.50  10 2.50  34 2.50  16 2.51  31 2.64  37 2.64
                            32 2.64  11 2.64   8 2.64  35 2.64
  39  0.952  0.785  0.225-   3 2.49   2 2.49  62 2.49  21 2.49  54 2.49   1 2.50  12 2.64  20 2.64
                            55 2.64  60 2.64  49 2.64  52 2.64
  40  0.785  0.619  0.314-  51 2.49  20 2.49  12 2.49   9 2.64   3 2.64  47 2.64   1 2.64  57 2.64
                            14 2.65  80 2.65  68 2.66  73 2.66
  41  0.286  0.619  0.316-  36 2.50  52 2.51  60 2.51  14 2.62  27 2.62  15 2.64  23 2.64   3 2.65
                             2 2.65  77 2.65  79 2.69  75 2.69
  42  0.786  0.618  0.045-  31 2.50  21 2.50  25 2.51  17 2.64  59 2.64  48 2.64   4 2.64   6 2.64
                            10 2.64
  43  0.286  0.618  0.045-  45 2.50  44 2.50  54 2.51  28 2.64   5 2.64  18 2.64  17 2.64  24 2.64
                             6 2.64
  44  0.369  0.702  0.135-  50 2.49  52 2.50  24 2.50  43 2.50  36 2.50  17 2.51  22 2.64  25 2.64
                            35 2.64   8 2.64  54 2.64  45 2.64
  45  0.369  0.452  0.135-  64 2.49  60 2.50  43 2.50  18 2.50  36 2.50  28 2.51  54 2.64  32 2.64
                             7 2.64  22 2.64  37 2.64  44 2.64
  46  0.202  0.286  0.225-  13 2.49  32 2.49   9 2.49  37 2.49  38 2.50  15 2.50  12 2.64  60 2.64
                            53 2.64  64 2.64  26 2.65  61 2.65
  47  0.784  0.370  0.315-  51 2.49  63 2.49  61 2.50  27 2.64  14 2.64  40 2.64  33 2.64  56 2.64
                             9 2.64  70 2.65  68 2.66  76 2.68
  48  0.786  0.368  0.045-  11 2.50  31 2.50  22 2.51  28 2.64  17 2.64  42 2.64  58 2.64  34 2.64
                            10 2.64
  49  0.952  0.036  0.225-   2 2.49  11 2.49  33 2.49  62 2.49  56 2.49  35 2.49  26 2.64  61 2.64
                            55 2.64  39 2.64  52 2.65  63 2.65
  50  0.452  0.785  0.225-  57 2.48  23 2.49  44 2.49   8 2.50  25 2.50  14 2.51  52 2.63  51 2.63
                            36 2.63  26 2.64  20 2.64  53 2.65
  51  0.701  0.536  0.225-  40 2.49  47 2.49  22 2.49  25 2.50  31 2.50  14 2.51  36 2.63  50 2.63
                            63 2.63  61 2.64  20 2.64  12 2.65
  52  0.203  0.785  0.225-   2 2.49  23 2.49  44 2.50  54 2.50  35 2.50  41 2.51  50 2.63  60 2.63
                            36 2.63  26 2.64  39 2.64  49 2.65
  53  0.452  0.036  0.225-  57 2.49  37 2.49   8 2.49  29 2.49  13 2.49  19 2.49  26 2.64  46 2.64
                            55 2.64  20 2.64  50 2.65  64 2.65
  54  0.119  0.702  0.135-  39 2.49  60 2.50  52 2.50   5 2.50   6 2.50  43 2.51  45 2.64  32 2.64
                            44 2.64  35 2.64  62 2.64  21 2.64
  55  0.702  0.036  0.225-  56 2.49   7 2.49  29 2.49  19 2.49   1 2.49  62 2.49  20 2.64  39 2.64
                            53 2.64  49 2.64  64 2.64  63 2.64
  56  0.785  0.119  0.314-  63 2.48  55 2.49  49 2.49   2 2.64  33 2.64   1 2.64  29 2.64  47 2.64
                            27 2.65  78 2.65  65 2.66  70 2.66
  57  0.535  0.870  0.314-  50 2.48  53 2.49  20 2.49  29 2.64  13 2.64   1 2.64  23 2.64  40 2.64
                            80 2.64  14 2.65  72 2.66  69 2.67
  58  0.786  0.118  0.045-  62 2.50  11 2.50   7 2.51  34 2.64  30 2.64   4 2.64  48 2.64  28 2.64
                             5 2.64
  59  0.536  0.868  0.045-  25 2.50  19 2.50   8 2.51  24 2.64  17 2.64  42 2.64   4 2.64  16 2.64
                            30 2.64
  60  0.203  0.536  0.225-   3 2.49  15 2.49  54 2.50  45 2.50  32 2.50  41 2.51  36 2.63  52 2.63
                            64 2.63  46 2.64  39 2.64  12 2.65
  61  0.951  0.286  0.225-  33 2.49  31 2.49   9 2.49  11 2.49  38 2.50  47 2.50  12 2.64  51 2.64
                            63 2.64  49 2.64  26 2.65  46 2.65
  62  0.869  0.952  0.135-  39 2.49  49 2.49  55 2.49  58 2.50   4 2.50   5 2.51  35 2.64  54 2.64
                            11 2.64  21 2.64  19 2.64   7 2.64
  63  0.701  0.286  0.225-  56 2.48  47 2.49  22 2.49   7 2.50  11 2.50  27 2.51  36 2.63  64 2.63
                            51 2.63  61 2.64  55 2.64  49 2.65
  64  0.452  0.286  0.225-  29 2.48  45 2.49  15 2.50   7 2.50  37 2.50  27 2.51  36 2.63  63 2.63
                            60 2.63  46 2.64  55 2.64  53 2.65
  65  0.868  0.954  0.414-  78 2.61  77 2.62  70 2.63  67 2.63  73 2.65  72 2.65  56 2.66   1 2.66
                             2 2.67
  66  0.117  0.454  0.414-  79 2.61  68 2.62  73 2.63  71 2.64  77 2.64  74 2.65   3 2.66   9 2.66
                            15 2.66
  67  0.117  0.954  0.413-  75 2.61  70 2.63  65 2.63  71 2.64  77 2.64  69 2.65  33 2.65  23 2.66
                             2 2.66
  68  0.868  0.454  0.414-  76 2.61  66 2.62  73 2.63  71 2.64  80 2.64  70 2.65  40 2.66  47 2.66
                             9 2.66
  69  0.368  0.954  0.413-  75 2.61  74 2.63  72 2.63  71 2.64  80 2.64  67 2.65  13 2.65  23 2.66
                            57 2.67
  70  0.868  0.203  0.414-  76 2.61  67 2.63  65 2.63  71 2.64  78 2.64  47 2.65  68 2.65  33 2.66
                            56 2.66
  71  0.117  0.204  0.413-  68 2.64  66 2.64  74 2.64  70 2.64  69 2.64  67 2.64   9 2.65  33 2.65
                            13 2.66
  72  0.617  0.954  0.414-  78 2.61  80 2.62  69 2.63  74 2.63  73 2.65  65 2.65  29 2.66  57 2.66
                             1 2.67
  73  0.868  0.703  0.414-  80 2.61  77 2.61  68 2.63  66 2.63  65 2.65  72 2.65   1 2.66  40 2.66
                             3 2.67
  74  0.368  0.203  0.414-  79 2.61  69 2.63  72 2.63  71 2.64  78 2.64  15 2.65  66 2.65  13 2.66
                            29 2.67
  75  0.365  0.709  0.416-  82 1.83  81 1.84  67 2.61  69 2.61  77 2.67  23 2.67  80 2.67  41 2.69
                            14 2.69  79 2.71  76 2.72
  76  0.622  0.451  0.416-  82 1.82  81 1.84  70 2.61  68 2.61  78 2.67  80 2.67  47 2.68  14 2.69
                            27 2.69  79 2.71  75 2.72
  77  0.114  0.705  0.413-  73 2.61  65 2.62  66 2.64  67 2.64   2 2.64   3 2.65  41 2.65  79 2.67
                            75 2.67
  78  0.619  0.200  0.413-  65 2.61  72 2.61  27 2.64  70 2.64  74 2.64  29 2.65  56 2.65  76 2.67
                            79 2.67
  79  0.365  0.451  0.416-  81 1.86  74 2.61  66 2.61  77 2.67  78 2.67  15 2.67  41 2.69  27 2.69
                            76 2.71  75 2.71
  80  0.619  0.705  0.413-  82 1.89  73 2.61  72 2.62  68 2.64  69 2.64  57 2.64  14 2.65  40 2.65
                            76 2.67  75 2.67
  81  0.451  0.539  0.461-  75 1.84  76 1.84  79 1.86
  82  0.533  0.619  0.461-  76 1.82  75 1.83  80 1.89
 
  LATTYP: Found a hexagonal cell.
 ALAT       =    10.5600004196
 C/A-ratio  =     2.0833332505
  
  Lattice vectors:
  
 A1 = (   5.2800002098,  -9.1452286274,   0.0000000000)
 A2 = ( -10.5600004196,   0.0000000000,   0.0000000000)
 A3 = (   0.0000000000,   0.0000000000, -22.0000000000)


Analysis of symmetry for initial positions (statically):
=====================================================================
 Subroutine PRICEL returns:
 Original cell was already a primitive cell.
 

 Routine SETGRP: Setting up the symmetry group for a 
 hexagonal supercell.


 Subroutine GETGRP returns: Found  1 space group operations
 (whereof  1 operations were pure point group operations)
 out of a pool of 24 trial point group operations.


The static configuration has the point symmetry C_1 .


Analysis of symmetry for dynamics (positions and initial velocities):
=====================================================================
 Subroutine PRICEL returns:
 Original cell was already a primitive cell.
 

 Routine SETGRP: Setting up the symmetry group for a 
 hexagonal supercell.


 Subroutine GETGRP returns: Found  1 space group operations
 (whereof  1 operations were pure point group operations)
 out of a pool of 24 trial point group operations.


The dynamic configuration has the point symmetry C_1 .


Analysis of constrained symmetry for selective dynamics:
=====================================================================
 Subroutine PRICEL returns:
 Original cell was already a primitive cell.
 

 Routine SETGRP: Setting up the symmetry group for a 
 hexagonal supercell.


 Subroutine GETGRP returns: Found  1 space group operations
 (whereof  1 operations were pure point group operations)
 out of a pool of 24 trial point group operations.


The constrained configuration has the point symmetry C_1 .


Analysis of structural, dynamic, and magnetic symmetry:
=====================================================================
 Subroutine PRICEL returns:
 Original cell was already a primitive cell.
 

 Routine SETGRP: Setting up the symmetry group for a 
 hexagonal supercell.


 Subroutine GETGRP returns: Found  1 space group operations
 (whereof  1 operations were pure point group operations)
 out of a pool of 24 trial point group operations.


The magnetic configuration has the point symmetry C_1 .


 Subroutine INISYM returns: Found  1 space group operations
 (whereof  1 operations are pure point group operations),
 and found     1 'primitive' translations

 
 
 KPOINTS: mesh auto                               

Automatic generation of k-mesh.
Space group operators:
 irot       det(A)        alpha          n_x          n_y          n_z        tau_x        tau_y        tau_z
    1     1.000000     0.000001     1.000000     0.000000     0.000000     0.000000     0.000000     0.000000
 
 Subroutine IBZKPT returns following result:
 ===========================================
 
 Found      4 irreducible k-points:
 
 Following reciprocal coordinates:
            Coordinates               Weight
  0.000000  0.000000  0.000000      1.000000
  0.500000  0.000000  0.000000      1.000000
  0.000000  0.500000  0.000000      1.000000
  0.500000  0.500000  0.000000      1.000000
 
 Following cartesian coordinates:
            Coordinates               Weight
  0.000000  0.000000  0.000000      1.000000
  0.047348 -0.027337  0.000000      1.000000
  0.000000  0.054673  0.000000      1.000000
  0.047348  0.027337  0.000000      1.000000
 


--------------------------------------------------------------------------------------------------------




 Dimension of arrays:
   k-points           NKPTS =      4   k-points in BZ     NKDIM =      4   number of bands    NBANDS=    560
   number of dos      NEDOS =    301   number of ions     NIONS =     82
   non local maximal  LDIM  =      6   non local SUM 2l+1 LMDIM =     18
   total plane-waves  NPLWV = ******
   max r-space proj   IRMAX =   7802   max aug-charges    IRDMAX=  33988
   dimension x,y,z NGX =    84 NGY =   84 NGZ =  168
   dimension x,y,z NGXF=   168 NGYF=  168 NGZF=  336
   support grid    NGXF=   168 NGYF=  168 NGZF=  336
   ions per type =              64  16   2
   NGX,Y,Z   is equivalent  to a cutoff of  13.22, 13.22, 12.70 a.u.
   NGXF,Y,Z  is equivalent  to a cutoff of  26.45, 26.45, 25.39 a.u.

 SYSTEM =  Pt111                                   
 POSCAR =  PtM\(2)                                 

 Startparameter for this run:
   NWRITE =      2    write-flag & timer
   PREC   = accura    normal or accurate (medium, high low for compatibility)
   ISTART =      0    job   : 0-new  1-cont  2-samecut
   ICHARG =      2    charge: 1-file 2-atom 10-const
   ISPIN  =      2    spin polarized calculation?
   LNONCOLLINEAR =      F non collinear calculations
   LSORBIT =      F    spin-orbit coupling
   INIWAV =      1    electr: 0-lowe 1-rand  2-diag
   LASPH  =      F    aspherical Exc in radial PAW
   METAGGA=      F    non-selfconsistent MetaGGA calc.

 Electronic Relaxation 1
   ENCUT  =  550.0 eV  40.42 Ry    6.36 a.u.  20.19 20.19 42.07*2*pi/ulx,y,z
   ENINI  =  550.0     initial cutoff
   ENAUG  =  587.0 eV  augmentation charge cutoff
   NELM   =    200;   NELMIN=  2; NELMDL= -5     # of ELM steps 
   EDIFF  = 0.1E-04   stopping-criterion for ELM
   LREAL  =      T    real-space projection
   NLSPLINE    = F    spline interpolate recip. space projectors
   LCOMPAT=      F    compatible to vasp.4.4
   GGA_COMPAT  = T    GGA compatible to vasp.4.4-vasp.4.6
   LMAXPAW     = -100 max onsite density
   LMAXMIX     =    2 max onsite mixed and CHGCAR
   VOSKOWN=      0    Vosko Wilk Nusair interpolation
   ROPT   =   -0.00025  -0.00025  -0.00025
 Ionic relaxation
   EDIFFG = -.5E-01   stopping-criterion for IOM
   NSW    =    300    number of steps for IOM
   NBLOCK =      1;   KBLOCK =    300    inner block; outer block 
   IBRION =      2    ionic relax: 0-MD 1-quasi-New 2-CG
   NFREE  =      1    steps in history (QN), initial steepest desc. (CG)
   ISIF   =      2    stress and relaxation
   IWAVPR =     11    prediction:  0-non 1-charg 2-wave 3-comb
   ISYM   =      2    0-nonsym 1-usesym 2-fastsym
   LCORR  =      T    Harris-Foulkes like correction to forces

   POTIM  = 0.5000    time-step for ionic-motion
   TEIN   =    0.0    initial temperature
   TEBEG  =    0.0;   TEEND  =   0.0 temperature during run
   SMASS  =  -3.00    Nose mass-parameter (am)
   estimated Nose-frequenzy (Omega)   =  0.10E-29 period in steps =****** mass=  -0.255E-26a.u.
   SCALEE = 1.0000    scale energy and forces
   NPACO  =    256;   APACO  = 16.0  distance and # of slots for P.C.
   PSTRESS=    0.0 pullay stress

  Mass of Ions in am
   POMASS =  63.55195.08  1.00
  Ionic Valenz
   ZVAL   =  11.00 10.00  1.00
  Atomic Wigner-Seitz radii
   RWIGS  =  -1.00 -1.00 -1.00
  virtual crystal weights 
   VCA    =   1.00  1.00  1.00
   NELECT =     866.0000    total number of electrons
   NUPDOWN=      -1.0000    fix difference up-down

 DOS related values:
   EMIN   =  10.00;   EMAX   =-10.00  energy-range for DOS
   EFERMI =   0.00
   ISMEAR =     1;   SIGMA  =   0.10  broadening in eV -4-tet -1-fermi 0-gaus

 Electronic relaxation 2 (details)
   IALGO  =     68    algorithm
   LDIAG  =      T    sub-space diagonalisation (order eigenvalues)
   LSUBROT=      F    optimize rotation matrix (better conditioning)
   TURBO    =      0    0=normal 1=particle mesh
   IRESTART =      0    0=no restart 2=restart with 2 vectors
   NREBOOT  =      0    no. of reboots
   NMIN     =      0    reboot dimension
   EREF     =   0.00    reference energy to select bands
   IMIX   =      4    mixing-type and parameters
     AMIX     =   0.40;   BMIX     =  1.00
     AMIX_MAG =   1.60;   BMIX_MAG =  1.00
     AMIN     =   0.10
     WC   =   100.;   INIMIX=   1;  MIXPRE=   1;  MAXMIX= -45

 Intra band minimization:
   WEIMIN = 0.0010     energy-eigenvalue tresh-hold
   EBREAK =  0.45E-08  absolut break condition
   DEPER  =   0.30     relativ break condition  

   TIME   =   0.40     timestep for ELM

  volume/ion in A,a.u.               =      25.91       174.85
  Fermi-wavevector in a.u.,A,eV,Ry     =   1.213818  2.293784 20.046215  1.473355
  Thomas-Fermi vector in A             =   2.349258
 
 Write flags
   LWAVE        =      F    write WAVECAR
   LDOWNSAMPLE  =      F    k-point downsampling of WAVECAR
   LCHARG       =      F    write CHGCAR
   LVTOT        =      F    write LOCPOT, total local potential
   LVHAR        =      F    write LOCPOT, Hartree potential only
   LELF         =      F    write electronic localiz. function (ELF)
   LORBIT       =      0    0 simple, 1 ext, 2 COOP (PROOUT), +10 PAW based schemes


 Dipole corrections
   LMONO  =      F    monopole corrections only (constant potential shift)
   LDIPOL =      F    correct potential (dipole corrections)
   IDIPOL =      0    1-x, 2-y, 3-z, 4-all directions 
   EPSILON=  1.0000000 bulk dielectric constant

 Exchange correlation treatment:
   GGA     =    --    GGA type
   LEXCH   =     8    internal setting for exchange type
   VOSKOWN=      0    Vosko Wilk Nusair interpolation
   LHFCALC =     F    Hartree Fock is set to
   LHFONE  =     F    Hartree Fock one center treatment
   AEXX    =    0.0000 exact exchange contribution

 Linear response parameters
   LEPSILON=     F    determine dielectric tensor
   LRPA    =     F    only Hartree local field effects (RPA)
   LNABLA  =     F    use nabla operator in PAW spheres
   LVEL    =     F    velocity operator in full k-point grid
   LINTERFAST=   F  fast interpolation
   KINTER  =     0    interpolate to denser k-point grid
   CSHIFT  =0.1000    complex shift for real part using Kramers Kronig
   OMEGAMAX=  -1.0    maximum frequency
   DEG_THRESHOLD= 0.2000000E-02 threshold for treating states as degnerate
   RTIME   =   -0.100 relaxation time in fs
  (WPLASMAI=    0.000 imaginary part of plasma frequency in eV, 0.658/RTIME)
   DFIELD  = 0.0000000 0.0000000 0.0000000 field for delta impulse in time
 
 Orbital magnetization related:
   ORBITALMAG=     F  switch on orbital magnetization
   LCHIMAG   =     F  perturbation theory with respect to B field
   DQ        =  0.001000  dq finite difference perturbation B field
   LLRAUG    =     F  two centre corrections for induced B field



--------------------------------------------------------------------------------------------------------


 conjugate gradient relaxation of ions
   using selective dynamics as specified on POSCAR
 charge density and potential will be updated during run
 spin polarized calculation
 RMM-DIIS sequential band-by-band and
  variant of blocked Davidson during initial phase
 perform sub-space diagonalisation
    before iterative eigenvector-optimisation
 modified Broyden-mixing scheme, WC =      100.0
 initial mixing is a Kerker type mixing with AMIX =  0.4000 and BMIX =      1.0000
 Hartree-type preconditioning will be used
 using additional bands          127
 real space projection scheme for non local part
 use partial core corrections
 calculate Harris-corrections to forces 
   (improved forces if not selfconsistent)
 use gradient corrections 
 use of overlap-Matrix (Vanderbilt PP)
 Methfessel and Paxton  Order N= 1 SIGMA  =   0.10


--------------------------------------------------------------------------------------------------------


  energy-cutoff  :      550.00
  volume of cell :     2124.62
      direct lattice vectors                 reciprocal lattice vectors
    10.560000420  0.000000000  0.000000000     0.094696966 -0.054673319  0.000000000
     5.280000210  9.145228627  0.000000000     0.000000000  0.109346638  0.000000000
     0.000000000  0.000000000 22.000000000     0.000000000  0.000000000  0.045454545

  length of vectors
    10.560000420 10.560000420 22.000000000     0.109346638  0.109346638  0.045454545


 
 k-points in units of 2pi/SCALE and weight: mesh auto                               
   0.00000000  0.00000000  0.00000000       0.250
   0.04734848 -0.02733666  0.00000000       0.250
   0.00000000  0.05467332  0.00000000       0.250
   0.04734848  0.02733666  0.00000000       0.250
 
 k-points in reciprocal lattice and weights: mesh auto                               
   0.00000000  0.00000000  0.00000000       0.250
   0.50000000  0.00000000  0.00000000       0.250
   0.00000000  0.50000000  0.00000000       0.250
   0.50000000  0.50000000  0.00000000       0.250
 
 position of ions in fractional coordinates (direct lattice) 
   0.78506449  0.86907521  0.31449814
   0.03475617  0.86950681  0.31422029
   0.03493731  0.61910542  0.31432054
   0.78624900  0.86835803  0.04490293
   0.03632593  0.86831096  0.04490378
   0.03629270  0.61834538  0.04490407
   0.61900594  0.20203528  0.13527817
   0.36902872  0.95201797  0.13527936
   0.03478302  0.36969157  0.31443770
   0.03632232  0.36834008  0.04490425
   0.86903544  0.20201704  0.13528693
   0.95208200  0.53542073  0.22480552
   0.28524614  0.11943581  0.31435420
   0.53442841  0.61885000  0.31605394
   0.28529563  0.36967483  0.31503549
   0.28627437  0.11834063  0.04490500
   0.53631616  0.61834530  0.04488591
   0.28635483  0.36832902  0.04489700
   0.61901160  0.95199349  0.13527291
   0.70202693  0.78546178  0.22483278
   0.86905623  0.70197733  0.13528016
   0.61901543  0.45202163  0.13527904
   0.28491422  0.86943498  0.31485148
   0.28633138  0.86834683  0.04488814
   0.61902971  0.70201856  0.13527944
   0.20201455  0.03558156  0.22490357
   0.53445727  0.37036625  0.31610232
   0.53629100  0.36836874  0.04488825
   0.53503908  0.11901411  0.31424719
   0.53631492  0.11831875  0.04489277
   0.86908216  0.45197647  0.13527762
   0.11905660  0.45201537  0.13528985
   0.03455842  0.11940777  0.31433607
   0.03628167  0.11834476  0.04490753
   0.11906013  0.95198965  0.13527885
   0.45204311  0.53555523  0.22566307
   0.36902445  0.20201498  0.13528569
   0.11903031  0.20204112  0.13529147
   0.95212347  0.78544378  0.22483531
   0.78514504  0.61912255  0.31432458
   0.28590150  0.61891172  0.31599592
   0.78625855  0.61835147  0.04489831
   0.28631485  0.61834448  0.04489351
   0.36906041  0.70200853  0.13527467
   0.36902898  0.45201831  0.13528487
   0.20211867  0.28603854  0.22499327
   0.78436028  0.36964329  0.31504105
   0.78624559  0.36836494  0.04489780
   0.95211843  0.03571653  0.22477596
   0.45193851  0.78505917  0.22528370
   0.70120042  0.53568513  0.22524028
   0.20260876  0.78511931  0.22526881
   0.45176104  0.03571524  0.22477790
   0.11907534  0.70197617  0.13528836
   0.70201028  0.03555753  0.22483619
   0.78514544  0.11901344  0.31424827
   0.53496587  0.86951576  0.31422776
   0.78630020  0.11833290  0.04491016
   0.53626603  0.86832649  0.04487574
   0.20269821  0.53568090  0.22523953
   0.95144049  0.28604624  0.22498499
   0.86907018  0.95198510  0.13528489
   0.70138704  0.28621728  0.22526043
   0.45203126  0.28621535  0.22526213
   0.86759678  0.95387341  0.41364078
   0.11667950  0.45388273  0.41363593
   0.11674620  0.95404549  0.41347865
   0.86807404  0.45394231  0.41361939
   0.36775735  0.95410149  0.41348562
   0.86796422  0.20284937  0.41350018
   0.11745387  0.20363791  0.41291066
   0.61699115  0.95391605  0.41365765
   0.86756641  0.70338148  0.41365600
   0.36765431  0.20298068  0.41353267
   0.36493334  0.70855402  0.41602648
   0.62222142  0.45113141  0.41635921
   0.11422659  0.70509329  0.41304681
   0.61908777  0.20039334  0.41305964
   0.36520317  0.45138442  0.41628960
   0.61929247  0.70512816  0.41305843
   0.45133150  0.53883168  0.46077936
   0.53300000  0.61900000  0.46070000
 
 position of ions in cartesian coordinates  (Angst):
  12.87899866  7.94789149  6.91895913
   4.95802135  7.95183857  6.91284645
   3.63781475  5.66186059  6.91505191
  12.88772033  7.94133272  0.98786446
   4.96828393  7.94090224  0.98788306
   3.64811462  5.65490987  0.98788947
   7.60344927  1.84765881  2.97611975
   8.92359848  8.70642196  2.97614598
   2.31928022  3.38091389  6.91762948
   2.32839939  3.36855426  0.98789358
  10.24366464  1.84749206  2.97631248
  12.88100789  4.89654500  4.94572143
   3.64282050  1.09226777  6.91579244
   8.91109235  5.65952472  6.95318664
   4.96460520  3.38076087  6.93078078
   3.64789606  1.08225215  0.98791005
   8.92836215  5.65490912  0.98748999
   4.96868441  3.36845313  0.98773405
  11.56328854  8.70619814  2.97600392
  11.56064306  7.18322757  4.94632117
  12.88367467  6.41974322  2.97616357
   8.92347749  4.13384112  2.97613890
   7.59931110  7.95118164  6.92673264
   7.60853096  7.94123032  0.98753917
  10.24361217  6.42012028  2.97614778
   2.32114435  0.32540151  4.94787851
   7.59940289  3.38708403  6.95425096
   7.60822020  3.36881638  0.98754146
   6.27840740  1.08841120  6.91343818
   6.28820881  1.08205200  0.98764103
  11.56394379  4.13342813  2.97610764
   3.64387901  4.13378388  2.97637661
   0.99540999  1.09201140  6.91539351
   1.00799478  1.08228986  0.98796576
   6.28378054  8.70616301  2.97613461
   7.60130714  4.89777499  4.96458754
   4.96353744  1.84747315  2.97628524
   2.32373725  1.84771228  2.97641232
  14.20156761  7.18306296  4.94637679
  11.56009918  5.66201723  6.91514075
   6.28697394  5.66008913  6.95191031
  11.56778653  5.65496554  0.98776285
   6.28834392  5.65490162  0.98765720
   7.60388330  6.42002854  2.97604272
   6.28360299  4.13381078  2.97626705
   3.64465679  2.61588783  4.94985200
  10.23456156  3.38047241  6.93090304
  10.24772068  3.36878157  0.98775169
  10.24295426  0.32663582  4.94507116
   8.91758342  7.17954561  4.95624146
  10.23309430  4.89896297  4.95528620
   6.28497868  7.18009559  4.95591382
   4.95917323  0.32662402  4.94511370
   4.96386992  6.41973253  2.97634381
   7.60097269  0.32518178  4.94639608
   8.91952715  1.08840508  6.91346186
  10.24028314  7.95192038  6.91301063
   8.92812813  1.08218139  0.98802358
  10.24773354  7.94104423  0.98726635
   4.96888844  4.89892430  4.95526968
  11.55753617  2.61595830  4.94966968
  14.20386302  8.70612141  2.97626755
   8.91787468  2.61752245  4.95572935
   6.28466743  2.61750481  4.95576696
  14.19827411  8.72339037  9.10009722
   3.62863647  4.15086131  9.09999050
   6.27020031  8.72496408  9.09653035
  11.56367769  4.15140618  9.09962658
   8.92117381  8.72547622  9.09668370
  10.23674726  1.85510389  9.09700401
   2.31552109  1.86231525  9.08403460
  11.55210377  8.72378033  9.10046824
  12.87535597  6.43258440  9.10043190
   4.95416773  1.85630472  9.09771876
   7.59486161  6.47988848  9.15258250
   8.95263241  4.12569993  9.15990253
   4.92912560  6.44823936  9.08702975
   7.59564395  1.83264293  9.08731203
   6.23985542  4.12801368  9.15837111
  10.26280559  6.44855823  9.08728543
   7.61109220  4.92773890 10.13714594
   8.89680035  5.66089652 10.13540000
 


--------------------------------------------------------------------------------------------------------


 k-point  1 :   0.0000 0.0000 0.0000  plane waves:   62167
 k-point  2 :   0.5000 0.0000 0.0000  plane waves:   62242
 k-point  3 :   0.0000 0.5000 0.0000  plane waves:   62242
 k-point  4 :   0.5000 0.5000 0.0000  plane waves:   62242

 maximum and minimum number of plane-waves per node :     15586    15521

 maximum number of plane-waves:     62242
 maximum index in each direction: 
   IXMAX=   20   IYMAX=   20   IZMAX=   42
   IXMIN=  -20   IYMIN=  -20   IZMIN=  -42


 real space projection operators:
  total allocation   :      84984.04 KBytes
  max/ min on nodes  :      21257.09      21236.94


 parallel 3D FFT for wavefunctions:
    minimum data exchange during FFTs selected (reduces bandwidth)
 parallel 3D FFT for charge:
    minimum data exchange during FFTs selected (reduces bandwidth)


 total amount of memory used by VASP MPI-rank0   248534. kBytes
=======================================================================

   base      :      30000. kBytes
   nonlr-proj:      37011. kBytes
   fftplans  :      17962. kBytes
   grid      :      48722. kBytes
   one-center:        653. kBytes
   wavefun   :     114186. kBytes
 
     INWAV:  cpu time    0.0001: real time    0.0000
 Broyden mixing: mesh for mixing (old mesh)
   NGX = 41   NGY = 41   NGZ = 85
  (NGX  =168   NGY  =168   NGZ  =336)
  gives a total of 142885 points

 initial charge density was supplied:
 charge density of overlapping atoms calculated
 number of electron     866.0000000 magnetization      82.0000000
 keeping initial charge density in first step


--------------------------------------------------------------------------------------------------------


 Maximum index for non-local projection operator         1910
 Maximum index for augmentation-charges         1208 (set IRDMAX)


--------------------------------------------------------------------------------------------------------


 First call to EWALD:  gamma=   0.138
 Maximum number of real-space cells 4x 4x 2
 Maximum number of reciprocal cells 2x 2x 4

    FEWALD:  cpu time    0.0042: real time    0.0042


--------------------------------------- Iteration      1(   1)  ---------------------------------------


    POTLOK:  cpu time    0.4153: real time    0.4183
    SETDIJ:  cpu time    0.0295: real time    0.0299
     EDDAV:  cpu time   65.5270: real time   65.7280
       DOS:  cpu time    0.0016: real time    0.0016
    --------------------------------------------
      LOOP:  cpu time   65.9734: real time   66.1779

 eigenvalue-minimisations  :  8960
 total energy-change (2. order) : 0.9706486E+04  (-0.3651669E+05)
 number of electron     866.0000000 magnetization      82.0000000
 augmentation part      866.0000000 magnetization      82.0000000

 Free energy of the ion-electron system (eV)
  ---------------------------------------------------
  alpha Z        PSCENC =      2356.26949328
  Ewald energy   TEWEN  =    310876.17130976
  -Hartree energ DENC   =   -410497.69777515
  -exchange      EXHF   =         0.00000000
  -V(xc)+E(xc)   XCENC  =      2990.76384893
  PAW double counting   =     89738.56882376   -96058.82040362
  entropy T*S    EENTRO =         0.00423245
  eigenvalues    EBANDS =      9587.86120868
  atomic energy  EATOM  =    100713.36531073
  Solvation  Ediel_sol  =         0.00000000
  ---------------------------------------------------
  free energy    TOTEN  =      9706.48604882 eV

  energy without entropy =     9706.48181637  energy(sigma->0) =     9706.48463800


--------------------------------------------------------------------------------------------------------




--------------------------------------- Iteration      1(   2)  ---------------------------------------


     EDDAV:  cpu time   65.2524: real time   65.4426
       DOS:  cpu time    0.0016: real time    0.0016
    --------------------------------------------
      LOOP:  cpu time   65.2541: real time   65.4442

 eigenvalue-minimisations  :  8960
 total energy-change (2. order) :-0.7812692E+04  (-0.7355096E+04)
 number of electron     866.0000000 magnetization      82.0000000
 augmentation part      866.0000000 magnetization      82.0000000

 Free energy of the ion-electron system (eV)
  ---------------------------------------------------
  alpha Z        PSCENC =      2356.26949328
  Ewald energy   TEWEN  =    310876.17130976
  -Hartree energ DENC   =   -410497.69777515
  -exchange      EXHF   =         0.00000000
  -V(xc)+E(xc)   XCENC  =      2990.76384893
  PAW double counting   =     89738.56882376   -96058.82040362
  entropy T*S    EENTRO =         0.00586871
  eigenvalues    EBANDS =      1775.16751528
  atomic energy  EATOM  =    100713.36531073
  Solvation  Ediel_sol  =         0.00000000
  ---------------------------------------------------
  free energy    TOTEN  =      1893.79399167 eV

  energy without entropy =     1893.78812296  energy(sigma->0) =     1893.79203543


--------------------------------------------------------------------------------------------------------




--------------------------------------- Iteration      1(   3)  ---------------------------------------


     EDDAV:  cpu time   64.9730: real time   65.1630
       DOS:  cpu time    0.0018: real time    0.0018
    --------------------------------------------
      LOOP:  cpu time   64.9748: real time   65.1648

 eigenvalue-minimisations  :  8960
 total energy-change (2. order) :-0.1960085E+04  (-0.1712127E+04)
 number of electron     866.0000000 magnetization      82.0000000
 augmentation part      866.0000000 magnetization      82.0000000

 Free energy of the ion-electron system (eV)
  ---------------------------------------------------
  alpha Z        PSCENC =      2356.26949328
  Ewald energy   TEWEN  =    310876.17130976
  -Hartree energ DENC   =   -410497.69777515
  -exchange      EXHF   =         0.00000000
  -V(xc)+E(xc)   XCENC  =      2990.76384893
  PAW double counting   =     89738.56882376   -96058.82040362
  entropy T*S    EENTRO =         0.00661069
  eigenvalues    EBANDS =      -184.91857614
  atomic energy  EATOM  =    100713.36531073
  Solvation  Ediel_sol  =         0.00000000
  ---------------------------------------------------
  free energy    TOTEN  =       -66.29135778 eV

  energy without entropy =      -66.29796846  energy(sigma->0) =      -66.29356134


--------------------------------------------------------------------------------------------------------




--------------------------------------- Iteration      1(   4)  ---------------------------------------


     EDDAV:  cpu time   90.3473: real time   90.5757
       DOS:  cpu time    0.0021: real time    0.0021
    --------------------------------------------
      LOOP:  cpu time   90.3493: real time   90.5778

 eigenvalue-minimisations  : 13540
 total energy-change (2. order) :-0.2921934E+03  (-0.2515711E+03)
 number of electron     866.0000000 magnetization      82.0000000
 augmentation part      866.0000000 magnetization      82.0000000

 Free energy of the ion-electron system (eV)
  ---------------------------------------------------
  alpha Z        PSCENC =      2356.26949328
  Ewald energy   TEWEN  =    310876.17130976
  -Hartree energ DENC   =   -410497.69777515
  -exchange      EXHF   =         0.00000000
  -V(xc)+E(xc)   XCENC  =      2990.76384893
  PAW double counting   =     89738.56882376   -96058.82040362
  entropy T*S    EENTRO =         0.02164051
  eigenvalues    EBANDS =      -477.12703672
  atomic energy  EATOM  =    100713.36531073
  Solvation  Ediel_sol  =         0.00000000
  ---------------------------------------------------
  free energy    TOTEN  =      -358.48478852 eV

  energy without entropy =     -358.50642903  energy(sigma->0) =     -358.49200203


--------------------------------------------------------------------------------------------------------




--------------------------------------- Iteration      1(   5)  ---------------------------------------


     EDDAV:  cpu time   89.5872: real time   89.8058
       DOS:  cpu time    0.0020: real time    0.0020
    CHARGE:  cpu time    4.3913: real time    4.4018
    MIXING:  cpu time    0.0096: real time    0.0101
    --------------------------------------------
      LOOP:  cpu time   93.9901: real time   94.2197

 eigenvalue-minimisations  : 13400
 total energy-change (2. order) :-0.1697383E+02  (-0.1641840E+02)
 number of electron     866.0000423 magnetization      73.8910954
 augmentation part      462.2430600 magnetization      71.0367033

 Broyden mixing:
  rms(total) = 0.91249E+01    rms(broyden)= 0.91248E+01
  rms(prec ) = 0.94296E+01
  weight for this iteration     100.00

 Free energy of the ion-electron system (eV)
  ---------------------------------------------------
  alpha Z        PSCENC =      2356.26949328
  Ewald energy   TEWEN  =    310876.17130976
  -Hartree energ DENC   =   -410497.69777515
  -exchange      EXHF   =         0.00000000
  -V(xc)+E(xc)   XCENC  =      2990.76384893
  PAW double counting   =     89738.56882376   -96058.82040362
  entropy T*S    EENTRO =         0.02943855
  eigenvalues    EBANDS =      -494.10866539
  atomic energy  EATOM  =    100713.36531073
  Solvation  Ediel_sol  =         0.00000000
  ---------------------------------------------------
  free energy    TOTEN  =      -375.45861915 eV

  energy without entropy =     -375.48805770  energy(sigma->0) =     -375.46843200


--------------------------------------------------------------------------------------------------------




--------------------------------------- Iteration      1(   6)  ---------------------------------------


    POTLOK:  cpu time    0.3974: real time    0.3983
    SETDIJ:  cpu time    0.0297: real time    0.0298
    EDDIAG:  cpu time   11.1356: real time   11.1626
  RMM-DIIS:  cpu time   39.3348: real time   39.4280
    ORTHCH:  cpu time    1.1708: real time    1.1736
       DOS:  cpu time    0.0021: real time    0.0021
    CHARGE:  cpu time    4.3687: real time    4.3791
    MIXING:  cpu time    0.0102: real time    0.0106
    --------------------------------------------
      LOOP:  cpu time   56.4493: real time   56.5840

 eigenvalue-minimisations  :  8999
 total energy-change (2. order) : 0.5994153E+01  (-0.7672587E+02)
 number of electron     866.0000486 magnetization      70.3188915
 augmentation part      514.7957897 magnetization      48.8914257

 Broyden mixing:
  rms(total) = 0.60097E+01    rms(broyden)= 0.60097E+01
  rms(prec ) = 0.84157E+01
  weight for this iteration     100.00

 eigenvalues of (default mixing * dielectric matrix)
  average eigenvalue GAMMA=   0.7379
  0.7379

 Free energy of the ion-electron system (eV)
  ---------------------------------------------------
  alpha Z        PSCENC =      2356.26949328
  Ewald energy   TEWEN  =    310876.17130976
  -Hartree energ DENC   =   -408351.55466460
  -exchange      EXHF   =         0.00000000
  -V(xc)+E(xc)   XCENC  =      2910.55493391
  PAW double counting   =     92241.99487835   -98214.01858087
  entropy T*S    EENTRO =        -0.04182009
  eigenvalues    EBANDS =     -2902.20532626
  atomic energy  EATOM  =    100713.36531073
  Solvation  Ediel_sol  =         0.00000000
  ---------------------------------------------------
  free energy    TOTEN  =      -369.46446579 eV

  energy without entropy =     -369.42264571  energy(sigma->0) =     -369.45052576


--------------------------------------------------------------------------------------------------------




--------------------------------------- Iteration      1(   7)  ---------------------------------------


    POTLOK:  cpu time    0.3953: real time    0.3963
    SETDIJ:  cpu time    0.0297: real time    0.0298
    EDDIAG:  cpu time   11.1737: real time   11.2005
  RMM-DIIS:  cpu time   41.7188: real time   41.8368
    ORTHCH:  cpu time    1.1729: real time    1.1762
       DOS:  cpu time    0.0020: real time    0.0020
    CHARGE:  cpu time    4.3881: real time    4.4011
    MIXING:  cpu time    0.0100: real time    0.0101
    --------------------------------------------
      LOOP:  cpu time   58.8907: real time   59.0527

 eigenvalue-minimisations  :  9594
 total energy-change (2. order) :-0.5842221E+02  (-0.2439874E+02)
 number of electron     866.0000416 magnetization      68.0734272
 augmentation part      486.2238098 magnetization      50.7135771

 Broyden mixing:
  rms(total) = 0.10364E+02    rms(broyden)= 0.10364E+02
  rms(prec ) = 0.14073E+02
  weight for this iteration     100.00

 eigenvalues of (default mixing * dielectric matrix)
  average eigenvalue GAMMA=   0.4562
  0.8015  0.1110

 Free energy of the ion-electron system (eV)
  ---------------------------------------------------
  alpha Z        PSCENC =      2356.26949328
  Ewald energy   TEWEN  =    310876.17130976
  -Hartree energ DENC   =   -409741.12244853
  -exchange      EXHF   =         0.00000000
  -V(xc)+E(xc)   XCENC  =      2938.68838397
  PAW double counting   =     94149.57026505  -100485.21108755
  entropy T*S    EENTRO =        -0.04772235
  eigenvalues    EBANDS =     -1235.57017946
  atomic energy  EATOM  =    100713.36531073
  Solvation  Ediel_sol  =         0.00000000
  ---------------------------------------------------
  free energy    TOTEN  =      -427.88667510 eV

  energy without entropy =     -427.83895275  energy(sigma->0) =     -427.87076765


--------------------------------------------------------------------------------------------------------




--------------------------------------- Iteration      1(   8)  ---------------------------------------


    POTLOK:  cpu time    0.3974: real time    0.3983
    SETDIJ:  cpu time    0.0299: real time    0.0299
    EDDIAG:  cpu time   11.1529: real time   11.1854
  RMM-DIIS:  cpu time   39.6956: real time   39.8114
    ORTHCH:  cpu time    1.2257: real time    1.2291
       DOS:  cpu time    0.0020: real time    0.0020
    CHARGE:  cpu time    4.3596: real time    4.3726
    MIXING:  cpu time    0.0105: real time    0.0105
    --------------------------------------------
      LOOP:  cpu time   56.8737: real time   57.0394

 eigenvalue-minimisations  :  9066
 total energy-change (2. order) : 0.8510413E+02  (-0.2547525E+01)
 number of electron     866.0000454 magnetization      65.3251307
 augmentation part      495.5395016 magnetization      50.6713203

 Broyden mixing:
  rms(total) = 0.62887E+01    rms(broyden)= 0.62885E+01
  rms(prec ) = 0.74097E+01
  weight for this iteration     100.00

 eigenvalues of (default mixing * dielectric matrix)
  average eigenvalue GAMMA=   0.4432
  0.8988  0.2154  0.2154

 Free energy of the ion-electron system (eV)
  ---------------------------------------------------
  alpha Z        PSCENC =      2356.26949328
  Ewald energy   TEWEN  =    310876.17130976
  -Hartree energ DENC   =   -409752.06980767
  -exchange      EXHF   =         0.00000000
  -V(xc)+E(xc)   XCENC  =      2937.72665821
  PAW double counting   =     94998.83236077  -101385.97560016
  entropy T*S    EENTRO =        -0.07030446
  eigenvalues    EBANDS =     -1087.03196429
  atomic energy  EATOM  =    100713.36531073
  Solvation  Ediel_sol  =         0.00000000
  ---------------------------------------------------
  free energy    TOTEN  =      -342.78254383 eV

  energy without entropy =     -342.71223936  energy(sigma->0) =     -342.75910900


--------------------------------------------------------------------------------------------------------




--------------------------------------- Iteration      1(   9)  ---------------------------------------


    POTLOK:  cpu time    0.3975: real time    0.3984
    SETDIJ:  cpu time    0.0299: real time    0.0300
    EDDIAG:  cpu time   11.1435: real time   11.1760
  RMM-DIIS:  cpu time   39.9519: real time   40.0681
    ORTHCH:  cpu time    1.1767: real time    1.1806
       DOS:  cpu time    0.0020: real time    0.0020
    CHARGE:  cpu time    4.2816: real time    4.2939
    MIXING:  cpu time    0.0105: real time    0.0106
    --------------------------------------------
      LOOP:  cpu time   56.9936: real time   57.1595

 eigenvalue-minimisations  :  9085
 total energy-change (2. order) : 0.3117257E+02  (-0.2812459E+01)
 number of electron     866.0000446 magnetization      58.7277759
 augmentation part      498.8572758 magnetization      41.8719705

 Broyden mixing:
  rms(total) = 0.41374E+01    rms(broyden)= 0.41374E+01
  rms(prec ) = 0.53623E+01
  weight for this iteration     100.00

 eigenvalues of (default mixing * dielectric matrix)
  average eigenvalue GAMMA=   0.5527
  0.9288  0.6884  0.4089  0.1849

 Free energy of the ion-electron system (eV)
  ---------------------------------------------------
  alpha Z        PSCENC =      2356.26949328
  Ewald energy   TEWEN  =    310876.17130976
  -Hartree energ DENC   =   -409428.46554604
  -exchange      EXHF   =         0.00000000
  -V(xc)+E(xc)   XCENC  =      2940.86030929
  PAW double counting   =     95724.62633924  -102138.65425396
  entropy T*S    EENTRO =         0.00330224
  eigenvalues    EBANDS =     -1355.78623830
  atomic energy  EATOM  =    100713.36531073
  Solvation  Ediel_sol  =         0.00000000
  ---------------------------------------------------
  free energy    TOTEN  =      -311.60997377 eV

  energy without entropy =     -311.61327601  energy(sigma->0) =     -311.61107451


--------------------------------------------------------------------------------------------------------




--------------------------------------- Iteration      1(  10)  ---------------------------------------


    POTLOK:  cpu time    0.3988: real time    0.3997
    SETDIJ:  cpu time    0.0301: real time    0.0302
    EDDIAG:  cpu time   11.1148: real time   11.1470
  RMM-DIIS:  cpu time   39.5293: real time   39.6442
    ORTHCH:  cpu time    1.1754: real time    1.1787
       DOS:  cpu time    0.0022: real time    0.0022
    CHARGE:  cpu time    4.2995: real time    4.3122
    MIXING:  cpu time    0.0107: real time    0.0107
    --------------------------------------------
      LOOP:  cpu time   56.5607: real time   56.7249

 eigenvalue-minimisations  :  9027
 total energy-change (2. order) : 0.2713666E+02  (-0.3589499E+01)
 number of electron     866.0000452 magnetization      54.1075848
 augmentation part      495.4356798 magnetization      37.2862291

 Broyden mixing:
  rms(total) = 0.23429E+01    rms(broyden)= 0.23429E+01
  rms(prec ) = 0.25044E+01
  weight for this iteration     100.00

 eigenvalues of (default mixing * dielectric matrix)
  average eigenvalue GAMMA=   0.6081
  1.2376  0.6412  0.6412  0.3356  0.1849

 Free energy of the ion-electron system (eV)
  ---------------------------------------------------
  alpha Z        PSCENC =      2356.26949328
  Ewald energy   TEWEN  =    310876.17130976
  -Hartree energ DENC   =   -409522.55696394
  -exchange      EXHF   =         0.00000000
  -V(xc)+E(xc)   XCENC  =      2954.71079556
  PAW double counting   =     97173.29291287  -103635.98822327
  entropy T*S    EENTRO =        -0.04357876
  eigenvalues    EBANDS =     -1199.69437384
  atomic energy  EATOM  =    100713.36531073
  Solvation  Ediel_sol  =         0.00000000
  ---------------------------------------------------
  free energy    TOTEN  =      -284.47331761 eV

  energy without entropy =     -284.42973885  energy(sigma->0) =     -284.45879136


--------------------------------------------------------------------------------------------------------




--------------------------------------- Iteration      1(  11)  ---------------------------------------


    POTLOK:  cpu time    0.3966: real time    0.3976
    SETDIJ:  cpu time    0.0304: real time    0.0305
    EDDIAG:  cpu time   11.1406: real time   11.1729
  RMM-DIIS:  cpu time   39.4385: real time   39.5531
    ORTHCH:  cpu time    1.1631: real time    1.1663
       DOS:  cpu time    0.0022: real time    0.0022
    CHARGE:  cpu time    4.3095: real time    4.3218
    MIXING:  cpu time    0.0113: real time    0.0114
    --------------------------------------------
      LOOP:  cpu time   56.4924: real time   56.6557

 eigenvalue-minimisations  :  8994
 total energy-change (2. order) : 0.1526866E+01  (-0.1004048E+01)
 number of electron     866.0000456 magnetization      50.6095815
 augmentation part      496.4334870 magnetization      36.7817720

 Broyden mixing:
  rms(total) = 0.18597E+01    rms(broyden)= 0.18597E+01
  rms(prec ) = 0.19913E+01
  weight for this iteration     100.00

 eigenvalues of (default mixing * dielectric matrix)
  average eigenvalue GAMMA=   0.5936
  1.4220  0.6264  0.5103  0.5103  0.1851  0.3073

 Free energy of the ion-electron system (eV)
  ---------------------------------------------------
  alpha Z        PSCENC =      2356.26949328
  Ewald energy   TEWEN  =    310876.17130976
  -Hartree energ DENC   =   -409516.88632335
  -exchange      EXHF   =         0.00000000
  -V(xc)+E(xc)   XCENC  =      2950.89719918
  PAW double counting   =     97846.92534914  -104324.90377313
  entropy T*S    EENTRO =        -0.00945461
  eigenvalues    EBANDS =     -1184.77556258
  atomic energy  EATOM  =    100713.36531073
  Solvation  Ediel_sol  =         0.00000000
  ---------------------------------------------------
  free energy    TOTEN  =      -282.94645158 eV

  energy without entropy =     -282.93699697  energy(sigma->0) =     -282.94330004


--------------------------------------------------------------------------------------------------------




--------------------------------------- Iteration      1(  12)  ---------------------------------------


    POTLOK:  cpu time    0.3987: real time    0.4001
    SETDIJ:  cpu time    0.0303: real time    0.0304
    EDDIAG:  cpu time   11.1950: real time   11.2276
  RMM-DIIS:  cpu time   39.4010: real time   39.5221
    ORTHCH:  cpu time    1.1776: real time    1.1811
       DOS:  cpu time    0.0019: real time    0.0020
    CHARGE:  cpu time    4.3202: real time    4.3324
    MIXING:  cpu time    0.0115: real time    0.0116
    --------------------------------------------
      LOOP:  cpu time   56.5363: real time   56.7072

 eigenvalue-minimisations  :  9007
 total energy-change (2. order) : 0.1439059E+00  (-0.1269870E+00)
 number of electron     866.0000456 magnetization      38.9803446
 augmentation part      497.7471937 magnetization      24.3298190

 Broyden mixing:
  rms(total) = 0.15028E+01    rms(broyden)= 0.15028E+01
  rms(prec ) = 0.15353E+01
  weight for this iteration     100.00

 eigenvalues of (default mixing * dielectric matrix)
  average eigenvalue GAMMA=   0.6498
  1.4366  0.7172  0.7172  0.7883  0.1854  0.3075  0.3962

 Free energy of the ion-electron system (eV)
  ---------------------------------------------------
  alpha Z        PSCENC =      2356.26949328
  Ewald energy   TEWEN  =    310876.17130976
  -Hartree energ DENC   =   -409534.72701474
  -exchange      EXHF   =         0.00000000
  -V(xc)+E(xc)   XCENC  =      2947.08848756
  PAW double counting   =     98174.95349966  -104660.88271635
  entropy T*S    EENTRO =        -0.01515509
  eigenvalues    EBANDS =     -1155.02576044
  atomic energy  EATOM  =    100713.36531073
  Solvation  Ediel_sol  =         0.00000000
  ---------------------------------------------------
  free energy    TOTEN  =      -282.80254564 eV

  energy without entropy =     -282.78739055  energy(sigma->0) =     -282.79749394


--------------------------------------------------------------------------------------------------------




--------------------------------------- Iteration      1(  13)  ---------------------------------------


    POTLOK:  cpu time    0.3988: real time    0.3997
    SETDIJ:  cpu time    0.0306: real time    0.0307
    EDDIAG:  cpu time   11.1972: real time   11.2306
  RMM-DIIS:  cpu time   39.6519: real time   39.7673
    ORTHCH:  cpu time    1.1784: real time    1.1824
       DOS:  cpu time    0.0021: real time    0.0021
    CHARGE:  cpu time    4.3261: real time    4.3385
    MIXING:  cpu time    0.0119: real time    0.0119
    --------------------------------------------
      LOOP:  cpu time   56.7970: real time   56.9632

 eigenvalue-minimisations  :  9048
 total energy-change (2. order) :-0.1585755E+02  (-0.6735206E+00)
 number of electron     866.0000457 magnetization      29.2830568
 augmentation part      500.0013281 magnetization      15.7122811

 Broyden mixing:
  rms(total) = 0.12316E+01    rms(broyden)= 0.12316E+01
  rms(prec ) = 0.14079E+01
  weight for this iteration     100.00

 eigenvalues of (default mixing * dielectric matrix)
  average eigenvalue GAMMA=   0.7991
  1.7666  1.7666  0.6865  0.6865  0.1853  0.3166  0.5266  0.4583

 Free energy of the ion-electron system (eV)
  ---------------------------------------------------
  alpha Z        PSCENC =      2356.26949328
  Ewald energy   TEWEN  =    310876.17130976
  -Hartree energ DENC   =   -409580.20741724
  -exchange      EXHF   =         0.00000000
  -V(xc)+E(xc)   XCENC  =      2931.54183862
  PAW double counting   =     98787.30485691  -105285.33950929
  entropy T*S    EENTRO =        -0.04985884
  eigenvalues    EBANDS =     -1097.71612013
  atomic energy  EATOM  =    100713.36531073
  Solvation  Ediel_sol  =         0.00000000
  ---------------------------------------------------
  free energy    TOTEN  =      -298.66009620 eV

  energy without entropy =     -298.61023736  energy(sigma->0) =     -298.64347659


--------------------------------------------------------------------------------------------------------




--------------------------------------- Iteration      1(  14)  ---------------------------------------


    POTLOK:  cpu time    0.3997: real time    0.4006
    SETDIJ:  cpu time    0.0303: real time    0.0303
    EDDIAG:  cpu time   11.1438: real time   11.1765
  RMM-DIIS:  cpu time   39.5277: real time   39.6445
    ORTHCH:  cpu time    1.1740: real time    1.1773
       DOS:  cpu time    0.0023: real time    0.0023
    CHARGE:  cpu time    4.2962: real time    4.3089
    MIXING:  cpu time    0.0124: real time    0.0125
    --------------------------------------------
      LOOP:  cpu time   56.5863: real time   56.7528

 eigenvalue-minimisations  :  9010
 total energy-change (2. order) :-0.1168133E+02  (-0.5935272E+00)
 number of electron     866.0000460 magnetization      19.8787808
 augmentation part      500.1885648 magnetization      11.7148877

 Broyden mixing:
  rms(total) = 0.10013E+01    rms(broyden)= 0.10013E+01
  rms(prec ) = 0.10831E+01
  weight for this iteration     100.00

 eigenvalues of (default mixing * dielectric matrix)
  average eigenvalue GAMMA=   0.9398
  3.6573  1.3865  0.6353  0.6353  0.1853  0.6110  0.6110  0.3197  0.4168

 Free energy of the ion-electron system (eV)
  ---------------------------------------------------
  alpha Z        PSCENC =      2356.26949328
  Ewald energy   TEWEN  =    310876.17130976
  -Hartree energ DENC   =   -409598.61824702
  -exchange      EXHF   =         0.00000000
  -V(xc)+E(xc)   XCENC  =      2922.57281305
  PAW double counting   =     99090.95768806  -105591.73788508
  entropy T*S    EENTRO =        -0.03774032
  eigenvalues    EBANDS =     -1079.28416815
  atomic energy  EATOM  =    100713.36531073
  Solvation  Ediel_sol  =         0.00000000
  ---------------------------------------------------
  free energy    TOTEN  =      -310.34142569 eV

  energy without entropy =     -310.30368538  energy(sigma->0) =     -310.32884559


--------------------------------------------------------------------------------------------------------




--------------------------------------- Iteration      1(  15)  ---------------------------------------


    POTLOK:  cpu time    0.3980: real time    0.3990
    SETDIJ:  cpu time    0.0302: real time    0.0303
    EDDIAG:  cpu time   11.1511: real time   11.1836
  RMM-DIIS:  cpu time   39.6394: real time   39.7547
    ORTHCH:  cpu time    1.1770: real time    1.1804
       DOS:  cpu time    0.0021: real time    0.0021
    CHARGE:  cpu time    4.2959: real time    4.3085
    MIXING:  cpu time    0.0127: real time    0.0128
    --------------------------------------------
      LOOP:  cpu time   56.7064: real time   56.8713

 eigenvalue-minimisations  :  9064
 total energy-change (2. order) :-0.6349144E+01  (-0.3516171E+00)
 number of electron     866.0000460 magnetization      12.0794283
 augmentation part      500.1915217 magnetization       4.2789203

 Broyden mixing:
  rms(total) = 0.93132E+00    rms(broyden)= 0.93132E+00
  rms(prec ) = 0.10464E+01
  weight for this iteration     100.00

 eigenvalues of (default mixing * dielectric matrix)
  average eigenvalue GAMMA=   1.0757
  5.0391  1.4018  1.0371  0.7121  0.7121  0.1853  0.4857  0.4857  0.3202  0.3782

 Free energy of the ion-electron system (eV)
  ---------------------------------------------------
  alpha Z        PSCENC =      2356.26949328
  Ewald energy   TEWEN  =    310876.17130976
  -Hartree energ DENC   =   -409649.05715647
  -exchange      EXHF   =         0.00000000
  -V(xc)+E(xc)   XCENC  =      2918.35396856
  PAW double counting   =     99319.46860586  -105833.72781583
  entropy T*S    EENTRO =        -0.04087253
  eigenvalues    EBANDS =     -1017.49341297
  atomic energy  EATOM  =    100713.36531073
  Solvation  Ediel_sol  =         0.00000000
  ---------------------------------------------------
  free energy    TOTEN  =      -316.69056961 eV

  energy without entropy =     -316.64969708  energy(sigma->0) =     -316.67694543


--------------------------------------------------------------------------------------------------------




--------------------------------------- Iteration      1(  16)  ---------------------------------------


    POTLOK:  cpu time    0.4245: real time    0.4273
    SETDIJ:  cpu time    0.0300: real time    0.0301
    EDDIAG:  cpu time   11.2480: real time   11.2752
  RMM-DIIS:  cpu time   39.4890: real time   39.5932
    ORTHCH:  cpu time    1.1826: real time    1.1859
       DOS:  cpu time    0.0021: real time    0.0021
    CHARGE:  cpu time    4.2936: real time    4.3058
    MIXING:  cpu time    0.0136: real time    0.0136
    --------------------------------------------
      LOOP:  cpu time   56.6834: real time   56.8331

 eigenvalue-minimisations  :  9030
 total energy-change (2. order) :-0.4985960E+01  (-0.4378932E+00)
 number of electron     866.0000459 magnetization       9.9005119
 augmentation part      499.4290320 magnetization       3.4564611

 Broyden mixing:
  rms(total) = 0.72317E+00    rms(broyden)= 0.72317E+00
  rms(prec ) = 0.84069E+00
  weight for this iteration     100.00

 eigenvalues of (default mixing * dielectric matrix)
  average eigenvalue GAMMA=   1.1839
  6.2216  1.8764  0.8536  0.8536  0.6925  0.6925  0.1853  0.5069  0.3178  0.4115
  0.4115

 Free energy of the ion-electron system (eV)
  ---------------------------------------------------
  alpha Z        PSCENC =      2356.26949328
  Ewald energy   TEWEN  =    310876.17130976
  -Hartree energ DENC   =   -409676.11337076
  -exchange      EXHF   =         0.00000000
  -V(xc)+E(xc)   XCENC  =      2916.63132387
  PAW double counting   =     99173.31833618  -105692.26863249
  entropy T*S    EENTRO =        -0.01798293
  eigenvalues    EBANDS =      -989.03231701
  atomic energy  EATOM  =    100713.36531073
  Solvation  Ediel_sol  =         0.00000000
  ---------------------------------------------------
  free energy    TOTEN  =      -321.67652938 eV

  energy without entropy =     -321.65854644  energy(sigma->0) =     -321.67053506


--------------------------------------------------------------------------------------------------------




--------------------------------------- Iteration      1(  17)  ---------------------------------------


    POTLOK:  cpu time    0.3847: real time    0.3860
    SETDIJ:  cpu time    0.0301: real time    0.0302
    EDDIAG:  cpu time   11.1600: real time   11.1923
  RMM-DIIS:  cpu time   39.6055: real time   39.7207
    ORTHCH:  cpu time    1.3231: real time    1.3268
       DOS:  cpu time    0.0020: real time    0.0020
    CHARGE:  cpu time    4.3027: real time    4.3151
    MIXING:  cpu time    0.0140: real time    0.0140
    --------------------------------------------
      LOOP:  cpu time   56.8221: real time   56.9871

 eigenvalue-minimisations  :  9044
 total energy-change (2. order) :-0.2512536E+01  (-0.3134344E+00)
 number of electron     866.0000459 magnetization       8.0957411
 augmentation part      498.4749179 magnetization       4.9296243

 Broyden mixing:
  rms(total) = 0.49252E+00    rms(broyden)= 0.49251E+00
  rms(prec ) = 0.55198E+00
  weight for this iteration     100.00

 eigenvalues of (default mixing * dielectric matrix)
  average eigenvalue GAMMA=   1.1867
  6.7327  2.0382  0.9981  0.9981  0.6738  0.6738  0.1853  0.5047  0.3190  0.3850
  0.3656  0.3656

 Free energy of the ion-electron system (eV)
  ---------------------------------------------------
  alpha Z        PSCENC =      2356.26949328
[...]
   -.333E+00 0.985E-01 0.390E+04   0.297E+00 -.769E-01 -.390E+04   0.265E-01 -.212E-01 -.314E+01   0.170E-02 0.129E-02 -.143E-02
   -.654E+00 -.359E+01 0.190E+04   0.668E+00 0.362E+01 -.190E+04   -.456E-02 -.108E-01 -.123E+01   0.613E-03 -.368E-03 0.183E-02
   0.143E+01 0.481E+01 0.190E+04   -.142E+01 -.483E+01 -.190E+04   -.187E-01 -.139E-01 -.127E+01   -.836E-03 0.513E-03 0.109E-02
   0.203E+01 0.108E+01 -.213E+04   -.206E+01 -.104E+01 0.213E+04   0.277E-01 -.410E-01 0.197E+01   0.132E-02 -.107E-02 0.949E-02
   0.545E+00 -.214E+00 0.390E+04   -.569E+00 0.239E+00 -.390E+04   0.127E-01 -.164E-01 -.318E+01   0.117E-02 0.266E-03 -.278E-02
   0.114E+01 -.288E+01 0.190E+04   -.118E+01 0.291E+01 -.190E+04   0.282E-01 -.173E-01 -.132E+01   -.276E-02 -.253E-02 0.246E-02
   0.231E+01 -.686E+00 -.114E+03   -.232E+01 0.667E+00 0.114E+03   0.193E-01 0.159E-01 -.261E+00   0.122E-02 0.220E-02 0.888E-02
   0.187E+01 0.123E+01 -.213E+04   -.184E+01 -.130E+01 0.213E+04   -.297E-01 0.629E-01 0.197E+01   -.457E-03 0.207E-02 0.945E-02
   -.203E+00 -.342E+00 -.220E+04   0.707E-01 0.257E+00 0.220E+04   0.146E+00 0.920E-01 0.217E+01   -.599E-02 -.256E-02 0.207E-02
   -.718E+01 -.420E+01 -.213E+04   0.738E+01 0.430E+01 0.213E+04   -.187E+00 -.973E-01 0.194E+01   0.508E-02 0.322E-02 0.680E-02
   0.217E+00 0.559E-01 0.390E+04   -.212E+00 -.773E-01 -.390E+04   -.622E-02 0.169E-01 -.317E+01   0.857E-03 0.705E-03 -.273E-02
   0.624E+00 0.192E+00 0.390E+04   -.654E+00 -.211E+00 -.389E+04   0.209E-01 0.194E-01 -.295E+01   -.183E-02 -.906E-03 -.239E-02
   -.370E+00 -.547E+00 0.390E+04   0.369E+00 0.549E+00 -.390E+04   -.705E-03 0.431E-02 -.309E+01   0.135E-02 0.739E-03 -.146E-02
   0.883E+00 0.762E+00 0.191E+04   -.855E+00 -.801E+00 -.191E+04   -.198E-01 0.274E-01 -.129E+01   0.326E-02 0.195E-02 0.985E-03
   0.371E+01 0.217E+01 -.119E+03   -.376E+01 -.221E+01 0.119E+03   0.487E-01 0.370E-01 -.297E+00   0.345E-02 0.192E-02 0.935E-02
   0.117E+01 0.504E+00 0.191E+04   -.118E+01 -.454E+00 -.191E+04   0.120E-01 -.379E-01 -.128E+01   0.337E-02 0.199E-02 0.994E-03
   0.161E+01 -.256E+01 0.190E+04   -.162E+01 0.263E+01 -.190E+04   0.551E-02 -.454E-01 -.117E+01   -.278E-02 -.244E-02 0.143E-02
   -.280E+01 0.497E+01 -.215E+04   0.284E+01 -.519E+01 0.215E+04   -.334E-01 0.203E+00 0.202E+01   -.787E-02 0.507E-02 0.553E-02
   0.259E+00 0.714E+00 0.390E+04   -.240E+00 -.717E+00 -.389E+04   -.246E-01 0.278E-02 -.306E+01   -.226E-02 -.554E-03 -.222E-02
   0.361E+01 0.225E+01 0.190E+04   -.366E+01 -.227E+01 -.190E+04   0.247E-01 0.514E-02 -.117E+01   0.420E-04 0.207E-03 0.560E-03
   0.281E-02 0.354E+01 -.124E+03   0.634E-02 -.356E+01 0.124E+03   -.139E-01 0.994E-02 -.203E+00   -.194E-02 0.255E-02 0.776E-02
   0.726E+00 -.609E+01 -.217E+04   -.667E+00 0.624E+01 0.217E+04   -.604E-01 -.129E+00 0.203E+01   0.106E-02 -.291E-02 0.932E-02
   -.748E-01 -.782E+00 0.390E+04   0.103E+00 0.822E+00 -.389E+04   -.316E-01 -.325E-01 -.298E+01   -.864E-03 -.115E-02 -.980E-03
   -.414E+00 -.318E+01 -.212E+04   0.491E+00 0.317E+01 0.212E+04   -.840E-01 0.183E-01 0.194E+01   0.582E-02 -.321E-02 0.817E-02
   0.518E-01 -.702E+00 0.390E+04   -.594E-01 0.677E+00 -.390E+04   -.249E-02 0.254E-01 -.314E+01   0.183E-02 0.745E-03 -.143E-02
   0.488E+01 -.127E+01 0.190E+04   -.489E+01 0.130E+01 -.190E+04   -.221E-01 -.873E-02 -.127E+01   0.922E-04 -.973E-03 0.107E-02
   -.286E+01 -.136E+01 0.190E+04   0.288E+01 0.136E+01 -.190E+04   0.631E-02 0.137E-01 -.130E+01   0.287E-02 0.159E-02 0.110E-02
   -.248E+01 -.158E+01 -.213E+04   0.241E+01 0.153E+01 0.213E+04   0.632E-01 0.513E-01 0.199E+01   -.258E-02 -.116E-02 0.123E-01
   0.199E+00 -.136E+00 0.390E+04   -.202E+00 0.147E+00 -.390E+04   -.322E-02 -.878E-02 -.316E+01   -.190E-02 -.125E-02 -.196E-02
   -.193E+01 0.246E+01 0.190E+04   0.193E+01 -.251E+01 -.190E+04   -.509E-03 0.312E-01 -.131E+01   -.340E-02 -.128E-02 0.250E-02
   -.177E+01 -.119E+01 -.144E+03   0.173E+01 0.115E+01 0.144E+03   0.384E-01 0.323E-01 -.264E+00   -.310E-02 -.170E-02 0.975E-02
   -.264E+01 -.184E+01 0.191E+04   0.263E+01 0.186E+01 -.190E+04   0.240E-01 0.118E-02 -.130E+01   0.278E-02 0.154E-02 0.111E-02
   0.221E+01 0.135E+01 0.190E+04   -.217E+01 -.133E+01 -.190E+04   -.594E-01 -.298E-01 -.132E+01   -.791E-03 -.665E-03 0.160E-02
   -.148E+01 0.113E+01 -.116E+03   0.150E+01 -.119E+01 0.116E+03   -.246E-01 0.640E-01 -.272E+00   0.197E-02 0.233E-02 0.861E-02
   0.895E+01 -.113E+01 -.213E+04   -.906E+01 0.121E+01 0.213E+04   0.936E-01 -.652E-01 0.195E+01   0.855E-03 0.203E-02 0.686E-02
   -.489E+01 0.359E+01 -.217E+04   0.506E+01 -.362E+01 0.217E+04   -.153E+00 0.219E-01 0.203E+01   -.229E-02 0.363E-02 0.917E-02
   0.800E+00 0.309E+00 0.390E+04   -.794E+00 -.314E+00 -.390E+04   -.916E-02 0.256E-02 -.303E+01   0.153E-02 0.788E-03 -.308E-02
   -.593E+00 0.802E-01 0.390E+04   0.634E+00 -.636E-01 -.389E+04   -.398E-01 -.152E-01 -.298E+01   -.140E-02 -.415E-04 -.932E-03
   -.128E+01 0.277E+01 0.190E+04   0.133E+01 -.281E+01 -.190E+04   -.378E-01 0.185E-01 -.117E+01   -.356E-02 -.950E-03 0.147E-02
   -.436E+01 -.252E+01 0.190E+04   0.439E+01 0.255E+01 -.190E+04   0.278E-02 -.335E-02 -.119E+01   0.587E-04 0.105E-03 0.159E-02
   -.169E+01 -.964E+00 -.113E+03   0.167E+01 0.942E+00 0.113E+03   0.124E-01 0.166E-01 -.150E+00   0.499E-02 0.308E-02 0.639E-02
   0.262E+01 -.465E+01 -.215E+04   -.278E+01 0.478E+01 0.215E+04   0.153E+00 -.112E+00 0.202E+01   -.842E-03 -.850E-02 0.557E-02
   0.470E+00 -.486E+00 0.390E+04   -.480E+00 0.516E+00 -.389E+04   0.566E-02 -.258E-01 -.307E+01   -.165E-02 -.170E-02 -.234E-02
   -.440E+00 -.201E+00 -.114E+03   0.475E+00 0.210E+00 0.114E+03   -.369E-01 -.100E-01 -.284E+00   -.391E-02 -.234E-02 0.947E-02
   0.222E+00 0.456E+01 -.137E+03   -.235E+00 -.455E+01 0.137E+03   0.192E-01 -.479E-02 -.236E+00   -.214E-02 -.416E-03 0.785E-02
   0.408E+01 -.226E+01 -.137E+03   -.406E+01 0.223E+01 0.137E+03   -.283E-02 0.317E-01 -.238E+00   -.176E-02 -.131E-02 0.785E-02
   -.260E+01 0.414E+01 -.128E+03   0.265E+01 -.413E+01 0.128E+03   -.489E-01 -.151E-02 -.327E+00   -.338E-02 -.778E-03 0.103E-01
   0.624E+00 0.243E+01 -.113E+03   -.638E+00 -.245E+01 0.114E+03   0.155E-01 0.247E-01 -.260E+00   0.232E-02 -.165E-03 0.885E-02
   -.352E+01 0.128E+01 0.190E+04   0.355E+01 -.127E+01 -.190E+04   -.119E-01 -.308E-02 -.123E+01   0.114E-03 0.816E-03 0.185E-02
   0.220E+00 -.172E+01 -.115E+03   -.256E+00 0.176E+01 0.116E+03   0.352E-01 -.379E-01 -.272E+00   0.312E-02 -.943E-04 0.885E-02
   0.161E+01 -.351E+01 -.213E+04   -.161E+01 0.350E+01 0.213E+04   0.180E-02 0.233E-01 0.198E+01   0.963E-03 -.583E-02 0.160E-01
   0.362E+01 0.846E+01 -.213E+04   -.360E+01 -.860E+01 0.213E+04   -.196E-01 0.124E+00 0.195E+01   0.167E-02 0.466E-03 0.688E-02
   0.410E-01 -.760E+00 0.390E+04   -.329E-01 0.769E+00 -.390E+04   -.112E-01 -.842E-04 -.308E+01   -.842E-03 -.103E-02 -.816E-03
   0.656E+00 0.517E+00 0.390E+04   -.663E+00 -.490E+00 -.390E+04   0.680E-03 -.201E-01 -.302E+01   0.131E-02 0.105E-02 -.302E-02
   -.491E+01 -.116E+01 -.126E+03   0.489E+01 0.118E+01 0.126E+03   0.201E-01 -.254E-01 -.223E+00   -.121E-03 0.155E-02 0.825E-02
   0.296E+01 -.161E+01 -.124E+03   -.296E+01 0.161E+01 0.124E+03   -.604E-02 -.687E-02 -.204E+00   0.714E-03 -.240E-02 0.772E-02
   -.718E+00 -.439E+00 0.191E+04   0.693E+00 0.429E+00 -.191E+04   0.216E-01 0.973E-02 -.131E+01   0.893E-03 0.445E-03 0.204E-02
   0.220E+01 -.416E+01 -.127E+03   -.217E+01 0.420E+01 0.128E+03   -.304E-01 -.312E-01 -.332E+00   -.273E-02 -.287E-02 0.105E-01
   -.332E+01 -.363E+01 -.126E+03   0.333E+01 0.359E+01 0.126E+03   -.224E-01 0.427E-01 -.227E+00   0.127E-02 -.116E-02 0.830E-02
   0.533E+01 0.302E+01 -.349E+04   -.532E+01 -.302E+01 0.349E+04   -.250E-01 -.153E-01 0.149E+01   0.998E-02 0.669E-02 0.105E-01
   0.250E+01 0.455E+01 -.349E+04   -.248E+01 -.451E+01 0.349E+04   -.127E-01 -.553E-01 0.152E+01   -.196E-02 -.126E-02 0.139E-01
   0.456E+01 -.682E+01 -.349E+04   -.447E+01 0.679E+01 0.349E+04   -.759E-01 0.229E-01 0.151E+01   -.959E-02 -.249E-02 -.859E-03
   -.276E+01 -.141E+01 -.348E+04   0.302E+01 0.112E+01 0.348E+04   -.281E+00 0.271E+00 0.163E+01   0.136E-02 -.595E-02 0.100E-01
   -.276E+01 -.160E+01 -.348E+04   0.265E+01 0.197E+01 0.348E+04   0.107E+00 -.380E+00 0.164E+01   -.647E-02 0.583E-02 0.929E-02
   -.375E+01 0.775E+01 -.349E+04   0.376E+01 -.766E+01 0.349E+04   -.106E-01 -.935E-01 0.151E+01   -.743E-02 -.650E-02 -.110E-02
   -.437E+01 -.232E+01 -.349E+04   0.435E+01 0.230E+01 0.349E+04   0.576E-01 0.301E-01 0.147E+01   -.114E-01 -.531E-02 0.745E-02
   -.705E+01 0.121E+01 -.349E+04   0.695E+01 -.113E+01 0.349E+04   0.100E+00 -.976E-01 0.151E+01   0.989E-02 -.910E-02 0.127E-01
   -.253E+01 -.667E+01 -.349E+04   0.255E+01 0.654E+01 0.349E+04   -.296E-01 0.129E+00 0.151E+01   -.419E-02 0.154E-01 0.123E-01
   0.524E+01 0.269E+00 -.349E+04   -.519E+01 -.261E+00 0.349E+04   -.517E-01 -.166E-02 0.152E+01   -.381E-02 0.428E-03 0.132E-01
   0.836E+01 -.123E+02 -.349E+04   -.929E+01 0.139E+02 0.349E+04   0.937E+00 -.165E+01 0.153E+01   -.183E-01 -.185E-02 -.150E-01
   -.593E+01 0.132E+02 -.349E+04   0.691E+01 -.148E+02 0.349E+04   -.998E+00 0.165E+01 0.158E+01   -.128E-01 -.129E-01 -.123E-01
   0.240E+01 0.124E+01 -.348E+04   -.271E+01 -.980E+00 0.348E+04   0.350E+00 -.274E+00 0.159E+01   0.735E-02 0.110E-01 0.815E-02
   0.210E+01 0.185E+01 -.348E+04   -.203E+01 -.224E+01 0.348E+04   -.548E-01 0.424E+00 0.159E+01   0.111E-01 0.368E-02 0.807E-02
   0.117E+02 0.686E+01 -.347E+04   -.121E+02 -.708E+01 0.347E+04   0.413E+00 0.238E+00 0.350E+00   0.138E-01 0.981E-02 0.761E-02
   -.132E+02 -.763E+01 -.346E+04   0.136E+02 0.785E+01 0.346E+04   -.404E+00 -.234E+00 0.321E+00   0.713E-02 0.684E-02 -.261E-02
   -.101E+01 -.397E+00 -.397E+03   0.150E+01 0.665E+00 0.399E+03   -.486E+00 -.262E+00 -.174E+01   -.596E-03 -.356E-03 -.631E-03
   0.852E+00 0.558E+00 -.398E+03   -.135E+01 -.852E+00 0.399E+03   0.490E+00 0.287E+00 -.174E+01   -.982E-04 -.322E-04 0.472E-03
 -----------------------------------------------------------------------------------------------
   0.239E+00 -.912E-01 0.224E+02   -.890E-12 -.572E-12 0.676E-11   -.213E+00 0.806E-01 -.227E+02   -.185E-01 0.194E-01 0.362E+00
 
 
 POSITION                                       TOTAL-FORCE (eV/Angst)
 -----------------------------------------------------------------------------------
     12.87955      7.95043      6.91006         0.001878     -0.000262     -0.015099
      4.96053      7.95446      6.90739         0.002949     -0.002534     -0.004476
      3.64296      5.66474      6.90231         0.000084     -0.002219     -0.018881
     12.88772      7.94133      0.98786        -0.007897     -0.000744      0.029713
      4.96828      7.94090      0.98788        -0.000741      0.001755      0.020526
      3.64811      5.65491      0.98789        -0.008711      0.001874      0.015939
      7.60345      1.84766      2.97612         0.010131      0.013128     -0.018250
      8.92360      8.70642      2.97615        -0.004479     -0.036670     -0.016207
      2.31733      3.37609      6.90661         0.004679     -0.005789     -0.006660
      2.32840      3.36855      0.98789        -0.010648      0.008691      0.026330
     10.24366      1.84749      2.97631        -0.014616      0.009955     -0.035386
     12.88165      4.89724      4.93941         0.005263     -0.001485      0.002176
      3.63684      1.09058      6.90603        -0.000582      0.004494     -0.005805
      8.91584      5.66208      6.98127         0.003009      0.000678      0.027419
      4.94884      3.37150      6.90782         0.011760      0.005383      0.009328
      3.64790      1.08225      0.98791        -0.001661     -0.003596      0.026438
      8.92836      5.65491      0.98749        -0.010781     -0.000620      0.009847
      4.96868      3.36845      0.98773        -0.000781      0.006367      0.029128
     11.56329      8.70620      2.97600         0.011078     -0.008856     -0.045439
     11.55852      7.18391      4.94369         0.001687      0.000724      0.015786
     12.88367      6.41974      2.97616        -0.002417      0.012759     -0.045654
      8.92348      4.13384      2.97614        -0.013553      0.019900      0.012153
      7.59847      7.93557      6.93405         0.002722     -0.012848      0.003967
      7.60853      7.94123      0.98754        -0.008036     -0.000335      0.025991
     10.24361      6.42012      2.97615        -0.018408     -0.011302      0.006977
      2.32094      0.31932      4.94875        -0.006317      0.001617     -0.005155
      7.60410      3.38882      6.94570        -0.001382      0.013668      0.025148
      7.60822      3.36882      0.98754        -0.004153      0.006625      0.016438
      6.28214      1.09390      6.90238        -0.001229     -0.000616     -0.020238
      6.28821      1.08205      0.98764        -0.008543      0.001317      0.016011
     11.56394      4.13343      2.97611        -0.033405      0.014422     -0.018095
      3.64388      4.13378      2.97638         0.029067      0.010096     -0.042241
      0.99418      1.08820      6.91195        -0.002573     -0.001580     -0.004739
      1.00799      1.08229      0.98797        -0.008269      0.001125      0.012494
      6.28378      8.70616      2.97613         0.001827     -0.019330     -0.033211
      7.60840      4.90329      4.96944        -0.006036     -0.003776     -0.000418
      4.96354      1.84747      2.97629         0.023220      0.019877     -0.042826
      2.32374      1.84771      2.97641        -0.018241     -0.012976     -0.039338
     14.20223      7.18579      4.94149         0.000244      0.001757     -0.000092
     11.56474      5.66197      6.91031        -0.016247      0.009596     -0.006788
      6.29178      5.66271      6.94641         0.012479     -0.011076      0.024646
     11.56779      5.65497      0.98776        -0.001046     -0.001616      0.018480
      6.28834      5.65490      0.98766        -0.000899      0.001540      0.016683
      7.60388      6.42003      2.97604         0.009819     -0.022905      0.013661
      6.28360      4.13381      2.97627         0.034893      0.019759     -0.001254
      3.63763      2.61097      4.93887        -0.004315     -0.003317      0.003045
     10.22590      3.38441      6.93362        -0.007442      0.005635      0.005259
     10.24772      3.36878      0.98775        -0.006947      0.003120      0.025646
     10.24444      0.32850      4.94111        -0.003618     -0.002662     -0.004460
      8.91839      7.17509      4.96056         0.004378      0.013527      0.005998
     10.23100      4.90157      4.96030         0.014391     -0.003281      0.005575
      6.28620      7.18130      4.95347         0.000942      0.002776      0.005023
      4.95989      0.32812      4.93880         0.002302      0.004153      0.003711
      4.96387      6.41973      2.97634         0.017689      0.000804     -0.017142
      7.60208      0.32727      4.94123         0.001684     -0.001446      0.000262
      8.92312      1.09029      6.90764         0.001328      0.001838     -0.003136
     10.24040      7.95665      6.91015         0.000335     -0.022009     -0.007202
      8.92813      1.08218      0.98802        -0.004250      0.008202      0.020377
     10.24773      7.94104      0.98727        -0.005807      0.008138      0.019619
      4.97245      4.90065      4.95126        -0.006780     -0.003875     -0.005625
     11.55483      2.61637      4.94907        -0.001546     -0.007434     -0.005032
     14.20386      8.70612      2.97627        -0.001292     -0.000358     -0.047585
      8.91999      2.61919      4.95323         0.003364     -0.002050      0.004056
      6.28807      2.62178      4.95093        -0.006121     -0.005080     -0.005920
     14.20835      8.72333      9.08538        -0.005495     -0.002824     -0.001083
      3.62441      4.14782      9.08184         0.009287     -0.011269     -0.007995
      6.27551      8.72268      9.09526         0.002297     -0.012494      0.001068
     11.57951      4.13305      9.07915        -0.013113     -0.022817      0.004386
      8.91807      8.74189      9.07823        -0.020501     -0.001719      0.003193
     10.24079      1.85498      9.09563        -0.006077      0.000703     -0.000341
      2.30856      1.85330      9.08252         0.023453      0.008512     -0.004425
     11.56012      8.73487      9.08034         0.004752     -0.017850     -0.001178
     12.89426      6.42430      9.08053        -0.011603      0.005598      0.000789
      4.95356      1.84535      9.08140        -0.001752      0.005920     -0.007530
      7.57438      6.47608      9.21258        -0.026852     -0.000577      0.014282
      8.94524      4.10219      9.21048        -0.014024     -0.029079      0.008307
      4.93535      6.44507      9.07545         0.040346      0.002487     -0.001297
      7.59848      1.83248      9.07642         0.027156      0.031917     -0.002403
      6.21382      4.10704      9.13259         0.032428      0.017227     -0.003953
     10.30607      6.47036      9.12615         0.015488      0.005455     -0.004237
      7.39419      4.80161     10.16279         0.002528      0.004643     -0.005772
      9.12326      5.78932     10.15667        -0.011748     -0.006484      0.026692
 -----------------------------------------------------------------------------------
    total drift:                                0.007366      0.008809      0.004179


--------------------------------------------------------------------------------------------------------



  FREE ENERGIE OF THE ION-ELECTRON SYSTEM (eV)
  ---------------------------------------------------
  free  energy   TOTEN  =      -366.00424040 eV

  energy  without entropy=     -365.95908931  energy(sigma->0) =     -365.98919004
 
 d Force = 0.1233981E-02[-0.229E-03, 0.270E-02]  d Energy = 0.1170872E-02 0.631E-04
 d Force =-0.2743417E+02[-0.275E+02,-0.274E+02]  d Ewald  =-0.2743416E+02-0.888E-05


--------------------------------------------------------------------------------------------------------


    POTLOK:  cpu time    0.4309: real time    0.4320


--------------------------------------------------------------------------------------------------------


 Conjugate gradient step on ions:
 trial-energy change:   -0.001171  1 .order   -0.001234   -0.002697    0.000229
  (g-gl).g = 0.169E-02      g.g   = 0.197E-02  gl.gl    = 0.230E-02
 g(Force)  = 0.197E-02   g(Stress)= 0.000E+00 ortho     =-0.257E-03
 gamma     =   0.73382
 trial     =   1.51428
 opt step  =   1.37971  (harmonic =   1.39557) maximal distance =0.00717313
 next E    =  -366.004251   (d E  =  -0.00118)


--------------------------------------------------------------------------------------------------------


  
 reached required accuracy - stopping structural energy minimisation
     LOOP+:  cpu time  636.5839: real time  638.1930
    4ORBIT:  cpu time    0.0000: real time    0.0000

 total amount of memory used by VASP MPI-rank0   248534. kBytes
=======================================================================

   base      :      30000. kBytes
   nonlr-proj:      37011. kBytes
   fftplans  :      17962. kBytes
   grid      :      48722. kBytes
   one-center:        653. kBytes
   wavefun   :     114186. kBytes
 
  
  
 General timing and accounting informations for this job:
 ========================================================
  
                  Total CPU time used (sec):    11092.068
                            User time (sec):    11084.578
                          System time (sec):        7.491
                         Elapsed time (sec):    11124.761
  
                   Maximum memory used (kb):      832068.
                   Average memory used (kb):           0.
  
                          Minor page faults:      2226846
                          Major page faults:            0
                 Voluntary context switches:         4578
