 vasp.5.4.4.18Apr17-6-g9f103f2a35 (build Nov 30 2020 22:55:02) complex          
  
 executed on             LinuxIFC date 2023.08.07  17:33:43
 running on   40 total cores
 distrk:  each k-point on   40 cores,    1 groups
 distr:  one band on NCORES_PER_BAND=   4 cores,   10 groups


--------------------------------------------------------------------------------------------------------


 INCAR:
 POTCAR:    PAW_PBE Pt 04Feb2005                  
 POTCAR:    PAW_PBE H 15Jun2001                   
 POTCAR:    PAW_PBE Pt 04Feb2005                  
   VRHFIN =Pt: s1d9                                                             
   LEXCH  = PE                                                                  
   EATOM  =   729.1176 eV,   53.5886 Ry                                         
                                                                                
   TITEL  = PAW_PBE Pt 04Feb2005                                                
   LULTRA =        F    use ultrasoft PP ?                                      
   IUNSCR =        1    unscreen: 0-lin 1-nonlin 2-no                           
   RPACOR =    2.330    partial core radius                                     
   POMASS =  195.080; ZVAL   =   10.000    mass and valenz                      
   RCORE  =    2.600    outmost cutoff radius                                   
   RWIGS  =    2.750; RWIGS  =    1.455    wigner-seitz radius (au A)           
   ENMAX  =  230.283; ENMIN  =  172.712 eV                                      
   ICORE  =        3    local potential                                         
   LCOR   =        T    correct aug charges                                     
   LPAW   =        T    paw PP                                                  
   EAUG   =  358.966                                                            
   DEXC   =    0.000                                                            
   RMAX   =    2.658    core radius for proj-oper                               
   RAUG   =    1.300    factor for augmentation sphere                          
   RDEP   =    2.761    radius for radial grids                                 
   RDEPT  =    2.203    core radius for aug-charge                              
                                                                                
   Atomic configuration                                                         
   16 entries                                                                   
     n  l   j            E        occ.                                          
     1  0  0.50    -78401.1885   2.0000                                         
     2  0  0.50    -13770.7750   2.0000                                         
     2  1  1.50    -11931.0468   6.0000                                         
     3  0  0.50     -3234.7234   2.0000                                         
     3  1  1.50     -2699.2216   6.0000                                         
     3  2  2.50     -2119.5714  10.0000                                         
     4  0  0.50      -695.1528   2.0000                                         
     4  1  1.50      -519.6034   6.0000                                         
     4  2  2.50      -306.6786  10.0000                                         
     4  3  3.50       -70.1041  14.0000                                         
     5  0  0.50      -101.7747   2.0000                                         
     5  1  1.50       -55.9873   6.0000                                         
     5  2  2.50        -6.1423   9.0000                                         
     6  0  0.50        -5.6573   1.0000                                         
     6  1  1.50        -6.8029   0.0000                                         
     5  3  2.50        -1.3606   0.0000                                         
   Description                                                                  
     l       E           TYP  RCUT    TYP  RCUT                                 
     2     -6.1423404     23  2.500                                             
     2     -7.5029230     23  2.500                                             
     0     -5.6573207     23  2.500                                             
     0      0.7416693     23  2.500                                             
     1     -2.7211652     23  2.600                                             
     1     20.4087390     23  2.600                                             
     3     -1.3605826     23  2.500                                             
  local pseudopotential read in
  partial core-charges read in
  partial kinetic energy density read in
  atomic valenz-charges read in
  non local Contribution for L=           2  read in
    real space projection operators read in
  non local Contribution for L=           2  read in
    real space projection operators read in
  non local Contribution for L=           0  read in
    real space projection operators read in
  non local Contribution for L=           0  read in
    real space projection operators read in
  non local Contribution for L=           1  read in
    real space projection operators read in
  non local Contribution for L=           1  read in
    real space projection operators read in
    PAW grid and wavefunctions read in
 
   number of l-projection  operators is LMAX  =           6
   number of lm-projection operators is LMMAX =          18
 
 POTCAR:    PAW_PBE H 15Jun2001                   
   VRHFIN =H: ultrasoft test                                                    
   LEXCH  = PE                                                                  
   EATOM  =    12.4884 eV,    0.9179 Ry                                         
                                                                                
   TITEL  = PAW_PBE H 15Jun2001                                                 
   LULTRA =        F    use ultrasoft PP ?                                      
   IUNSCR =        0    unscreen: 0-lin 1-nonlin 2-no                           
   RPACOR =    0.000    partial core radius                                     
   POMASS =    1.000; ZVAL   =    1.000    mass and valenz                      
   RCORE  =    1.100    outmost cutoff radius                                   
   RWIGS  =    0.700; RWIGS  =    0.370    wigner-seitz radius (au A)           
   ENMAX  =  250.000; ENMIN  =  200.000 eV                                      
   RCLOC  =    0.701    cutoff for local pot                                    
   LCOR   =        T    correct aug charges                                     
   LPAW   =        T    paw PP                                                  
   EAUG   =  400.000                                                            
   RMAX   =    1.123    core radius for proj-oper                               
   RAUG   =    1.200    factor for augmentation sphere                          
   RDEP   =    1.112    radius for radial grids                                 
   RDEPT  =    0.926    core radius for aug-charge                              
                                                                                
   Atomic configuration                                                         
    2 entries                                                                   
     n  l   j            E        occ.                                          
     1  0  0.50        -6.4927   1.0000                                         
     2  1  0.50        -3.4015   0.0000                                         
   Description                                                                  
     l       E           TYP  RCUT    TYP  RCUT                                 
     0     -6.4927494     23  1.100                                             
     0      6.8029130     23  1.100                                             
     1     -4.0817478     23  1.100                                             
  local pseudopotential read in
  atomic valenz-charges read in
  non local Contribution for L=           0  read in
    real space projection operators read in
  non local Contribution for L=           0  read in
    real space projection operators read in
  non local Contribution for L=           1  read in
    real space projection operators read in
    PAW grid and wavefunctions read in
 
   number of l-projection  operators is LMAX  =           3
   number of lm-projection operators is LMMAX =           5
 
 Optimization of the real space projectors (new method)

 maximal supplied QI-value         = 14.36
 optimisation between [QCUT,QGAM] = [ 11.92, 23.98] = [ 39.79,161.09] Ry 
 Optimized for a Real-space Cutoff    1.49 Angstroem

   l    n(q)    QCUT    max X(q) W(low)/X(q) W(high)/X(q)  e(spline) 
   2     10    11.920    66.195    0.79E-04    0.18E-03    0.24E-06
   2     10    11.920    64.643    0.81E-04    0.19E-03    0.24E-06
   0     11    11.920    95.520    0.28E-04    0.54E-04    0.18E-06
   0     11    11.920    63.403    0.27E-04    0.52E-04    0.17E-06
   1     10    11.920    19.961    0.18E-04    0.11E-03    0.23E-06
   1     10    11.920    13.289    0.25E-04    0.87E-04    0.19E-06
 Optimization of the real space projectors (new method)

 maximal supplied QI-value         = 34.20
 optimisation between [QCUT,QGAM] = [ 11.97, 23.94] = [ 40.13,160.53] Ry 
 Optimized for a Real-space Cutoff    1.18 Angstroem

   l    n(q)    QCUT    max X(q) W(low)/X(q) W(high)/X(q)  e(spline) 
   0      8    11.971    19.460    0.15E-03    0.31E-03    0.25E-06
   0      8    11.971    12.209    0.13E-03    0.29E-03    0.25E-06
   1      8    11.971     4.655    0.22E-03    0.24E-03    0.21E-06
  PAW_PBE Pt 04Feb2005                  :
 energy of atom  1       EATOM= -729.1176
 kinetic energy error for atom=    0.0021 (will be added to EATOM!!)
  PAW_PBE H 15Jun2001                   :
 energy of atom  2       EATOM=  -12.4884
 kinetic energy error for atom=    0.0008 (will be added to EATOM!!)
 
 
 POSCAR: Pt111\(1\1\1)\(2)                       
  positions in cartesian coordinates
  No initial velocities read in
 exchange correlation table for  LEXCH =        8
   RHO(1)=    0.500       N(1)  =     2000
   RHO(2)=  100.500       N(2)  =     4000
 


--------------------------------------------------------------------------------------------------------


 ion  position               nearest neighbor table
   1  1.000  0.000  0.056-   5 2.64   9 2.64  13 2.64  29 2.64  57 2.64  37 2.64  42 2.87  14 2.87
                            54 2.87
   2  0.333  0.167  0.178-  30 2.64  26 2.64  38 2.64  42 2.64  14 2.64   6 2.64  15 2.84   7 2.84
                            11 2.84   9 2.87  21 2.87  13 2.87
   3  0.167  0.333  0.297-  39 2.64  27 2.64  43 2.64   7 2.64  15 2.64  31 2.64  14 2.84   6 2.84
                            10 2.84  12 2.87   8 2.87  48 2.87
   4  0.000  1.000  0.419-   8 2.64  12 2.64  16 2.64  32 2.64  40 2.64  60 2.64  27 2.87   7 2.87
                            63 2.87
   5  1.000  0.250  0.056-   1 2.64  45 2.64  33 2.64   9 2.64  29 2.64  25 2.64  14 2.87  10 2.87
                            18 2.87
   6  0.333  0.417  0.178-  26 2.64  62 2.64  10 2.64  34 2.64  14 2.64   2 2.64  43 2.84   3 2.84
                            15 2.84  45 2.87  49 2.87   9 2.87
   7  0.167  0.083  0.297-  27 2.64  15 2.64   3 2.64  63 2.64  11 2.64  35 2.64  42 2.84   2 2.84
                            14 2.84  16 2.87   4 2.87  12 2.87
   8  0.000  0.250  0.419-   4 2.64  48 2.64  36 2.64  12 2.64  32 2.64  28 2.64  31 2.87   3 2.87
                            27 2.87
   9  0.250  0.250  0.056-  21 2.64  13 2.64   1 2.64  49 2.64  45 2.64   5 2.64   2 2.87  14 2.87
                             6 2.87
  10  0.083  0.417  0.178-  34 2.64   6 2.64  46 2.64  14 2.64  18 2.64  22 2.64  39 2.84  31 2.84
                             3 2.84  33 2.87  45 2.87   5 2.87
  11  0.417  0.083  0.297-  19 2.64  15 2.64   7 2.64  47 2.64  35 2.64  23 2.64  30 2.84  38 2.84
                             2 2.84  20 2.87  16 2.87  24 2.87
  12  0.250  0.250  0.419-  24 2.64  16 2.64   4 2.64  52 2.64  48 2.64   8 2.64   3 2.87  15 2.87
                             7 2.87
  13  0.250  0.000  0.056-  21 2.64   9 2.64  17 2.64   1 2.64  37 2.64  41 2.64  38 2.87   2 2.87
                            42 2.87
  14  0.083  0.167  0.178-  42 2.64  54 2.64   6 2.64   2 2.64  10 2.64  18 2.64  27 2.84   3 2.84
                             7 2.84   5 2.87   1 2.87   9 2.87
  15  0.417  0.333  0.297-  43 2.64   7 2.64   3 2.64  11 2.64  55 2.64  19 2.64  26 2.84   2 2.84
                             6 2.84  24 2.87  12 2.87  52 2.87
  16  0.250  1.000  0.419-  24 2.64  12 2.64  20 2.64   4 2.64  40 2.64  44 2.64   7 2.87  11 2.87
                            35 2.87
  17  0.500  0.000  0.056-  29 2.64  25 2.64  13 2.64  21 2.64  41 2.64  53 2.64  58 2.87  30 2.87
                            38 2.87
  18  0.833  0.167  0.178-  54 2.64  58 2.64  22 2.64  10 2.64  30 2.64  14 2.64  23 2.84  31 2.84
                            27 2.84  25 2.87  29 2.87   5 2.87
  19  0.667  0.333  0.297-  55 2.64  31 2.64  59 2.64  11 2.64  23 2.64  15 2.64  22 2.84  30 2.84
                            26 2.84  28 2.87  64 2.87  24 2.87
  20  0.500  1.000  0.419-  32 2.64  28 2.64  16 2.64  24 2.64  44 2.64  56 2.64  11 2.87  23 2.87
                            47 2.87
  21  0.500  0.250  0.056-  25 2.64  61 2.64   9 2.64  13 2.64  49 2.64  17 2.64  30 2.87   2 2.87
                            26 2.87
  22  0.833  0.417  0.178-  50 2.64  26 2.64  30 2.64  18 2.64  46 2.64  10 2.64  19 2.84  59 2.84
                            31 2.84  61 2.87  25 2.87  33 2.87
  23  0.667  0.083  0.297-  27 2.64  31 2.64  19 2.64  51 2.64  47 2.64  11 2.64  18 2.84  58 2.84
                            30 2.84  32 2.87  28 2.87  20 2.87
  24  0.500  0.250  0.419-  28 2.64  64 2.64  12 2.64  16 2.64  52 2.64  20 2.64  15 2.87  11 2.87
                            19 2.87
  25  0.750  0.250  0.056-  17 2.64  21 2.64  29 2.64  61 2.64  33 2.64   5 2.64  18 2.87  22 2.87
                            30 2.87
  26  0.583  0.417  0.178-   6 2.64   2 2.64  22 2.64  30 2.64  62 2.64  50 2.64  55 2.84  15 2.84
                            19 2.84  49 2.87  61 2.87  21 2.87
  27  0.917  0.083  0.297-  23 2.64   7 2.64   3 2.64  51 2.64  31 2.64  63 2.64  54 2.84  14 2.84
                            18 2.84   4 2.87   8 2.87  32 2.87
  28  0.750  0.250  0.419-  20 2.64  24 2.64  32 2.64  64 2.64  36 2.64   8 2.64  19 2.87  23 2.87
                            31 2.87
  29  0.750  0.000  0.056-  17 2.64  25 2.64   5 2.64  53 2.64   1 2.64  57 2.64  54 2.87  18 2.87
                            58 2.87
  30  0.583  0.167  0.178-   2 2.64  38 2.64  58 2.64  26 2.64  22 2.64  18 2.64  11 2.84  19 2.84
                            23 2.84  21 2.87  17 2.87  25 2.87
  31  0.917  0.333  0.297-  59 2.64  19 2.64  23 2.64  39 2.64   3 2.64  27 2.64  18 2.84  10 2.84
                            22 2.84   8 2.87  36 2.87  28 2.87
  32  0.750  1.000  0.419-  20 2.64  28 2.64   8 2.64  56 2.64   4 2.64  60 2.64  23 2.87  27 2.87
                            51 2.87
  33  1.000  0.500  0.056-  37 2.64  41 2.64   5 2.64  45 2.64  25 2.64  61 2.64  10 2.87  46 2.87
                            22 2.87
  34  0.333  0.667  0.178-  62 2.64  10 2.64  58 2.64  46 2.64   6 2.64  38 2.64  47 2.84  39 2.84
                            43 2.84  41 2.87  45 2.87  53 2.87
  35  0.167  0.833  0.297-  63 2.64  59 2.64   7 2.64  11 2.64  47 2.64  39 2.64  46 2.84  38 2.84
                            42 2.84  44 2.87  40 2.87  16 2.87
  36  0.000  0.500  0.419-  40 2.64  44 2.64   8 2.64  48 2.64  28 2.64  64 2.64  59 2.87  39 2.87
                            31 2.87
  37  1.000  0.750  0.056-  33 2.64  41 2.64  61 2.64  57 2.64  13 2.64   1 2.64  46 2.87  50 2.87
                            42 2.87
  38  0.333  0.917  0.178-  58 2.64  30 2.64   2 2.64  42 2.64  34 2.64  46 2.64  11 2.84  35 2.84
                            47 2.84  13 2.87  17 2.87  41 2.87
  39  0.167  0.583  0.297-   3 2.64  31 2.64  59 2.64  43 2.64  47 2.64  35 2.64  10 2.84  34 2.84
                            46 2.84  48 2.87  36 2.87  44 2.87
  40  0.000  0.750  0.419-  36 2.64  44 2.64  64 2.64  60 2.64  16 2.64   4 2.64  63 2.87  35 2.87
                            59 2.87
  41  0.250  0.750  0.056-  45 2.64  33 2.64  37 2.64  53 2.64  17 2.64  13 2.64  34 2.87  46 2.87
                            38 2.87
  42  0.083  0.917  0.178-  14 2.64   2 2.64  38 2.64  46 2.64  50 2.64  54 2.64   7 2.84  63 2.84
                            35 2.84   1 2.87  13 2.87  37 2.87
  43  0.417  0.583  0.297-  15 2.64   3 2.64  39 2.64  51 2.64  47 2.64  55 2.64  62 2.84   6 2.84
                            34 2.84  52 2.87  56 2.87  48 2.87
  44  0.250  0.750  0.419-  48 2.64  36 2.64  40 2.64  56 2.64  20 2.64  16 2.64  35 2.87  39 2.87
                            47 2.87
  45  0.250  0.500  0.056-  41 2.64  53 2.64   5 2.64   9 2.64  49 2.64  33 2.64   6 2.87  10 2.87
                            34 2.87
  46  0.083  0.667  0.178-  34 2.64  50 2.64  10 2.64  42 2.64  22 2.64  38 2.64  59 2.84  35 2.84
                            39 2.84  37 2.87  33 2.87  41 2.87
  47  0.417  0.833  0.297-  39 2.64  43 2.64  11 2.64  23 2.64  35 2.64  51 2.64  58 2.84  34 2.84
                            38 2.84  56 2.87  44 2.87  20 2.87
  48  0.250  0.500  0.419-  44 2.64  56 2.64   8 2.64  12 2.64  52 2.64  36 2.64  39 2.87   3 2.87
                            43 2.87
  49  0.500  0.500  0.056-  61 2.64  53 2.64  57 2.64  21 2.64   9 2.64  45 2.64  26 2.87   6 2.87
                            62 2.87
  50  0.833  0.667  0.178-  22 2.64  46 2.64  26 2.64  42 2.64  54 2.64  62 2.64  55 2.84  63 2.84
                            59 2.84  57 2.87  61 2.87  37 2.87
  51  0.667  0.833  0.297-  63 2.64  27 2.64  43 2.64  55 2.64  23 2.64  47 2.64  54 2.84  62 2.84
                            58 2.84  60 2.87  32 2.87  56 2.87
  52  0.500  0.500  0.419-  64 2.64  56 2.64  60 2.64  24 2.64  12 2.64  48 2.64  43 2.87  15 2.87
                            55 2.87
  53  0.500  0.750  0.056-  49 2.64  57 2.64  45 2.64  41 2.64  29 2.64  17 2.64  62 2.87  34 2.87
                            58 2.87
  54  0.833  0.917  0.178-  18 2.64  14 2.64  50 2.64  58 2.64  42 2.64  62 2.64  51 2.84  27 2.84
                            63 2.84  29 2.87   1 2.87  57 2.87
  55  0.667  0.583  0.297-  19 2.64  59 2.64  63 2.64  15 2.64  51 2.64  43 2.64  50 2.84  26 2.84
                            62 2.84  64 2.87  60 2.87  52 2.87
  56  0.500  0.750  0.419-  52 2.64  60 2.64  48 2.64  44 2.64  32 2.64  20 2.64  47 2.87  43 2.87
                            51 2.87
  57  0.750  0.750  0.056-  61 2.64  49 2.64  53 2.64  37 2.64   1 2.64  29 2.64  50 2.87  62 2.87
                            54 2.87
  58  0.583  0.917  0.178-  38 2.64  30 2.64  18 2.64  34 2.64  62 2.64  54 2.64  47 2.84  23 2.84
                            51 2.84  17 2.87  29 2.87  53 2.87
  59  0.917  0.583  0.297-  31 2.64  55 2.64  19 2.64  39 2.64  35 2.64  63 2.64  22 2.84  46 2.84
                            50 2.84  36 2.87  40 2.87  64 2.87
  60  0.750  0.750  0.419-  64 2.64  52 2.64  56 2.64  40 2.64   4 2.64  32 2.64  51 2.87  55 2.87
                            63 2.87
  61  0.750  0.500  0.056-  49 2.64  57 2.64  21 2.64  25 2.64  37 2.64  33 2.64  22 2.87  26 2.87
                            50 2.87
  62  0.583  0.667  0.178-  34 2.64   6 2.64  26 2.64  58 2.64  54 2.64  50 2.64  43 2.84  51 2.84
                            55 2.84  53 2.87  49 2.87  57 2.87
  63  0.917  0.833  0.297-  51 2.64  35 2.64  55 2.64   7 2.64  59 2.64  27 2.64  50 2.84  42 2.84
                            54 2.84  40 2.87   4 2.87  60 2.87
  64  0.750  0.500  0.419-  52 2.64  60 2.64  24 2.64  28 2.64  40 2.64  36 2.64  55 2.87  19 2.87
                            59 2.87
  65  0.380  0.412  0.567-  66 0.76
  66  0.372  0.337  0.573-  65 0.76
 
  LATTYP: Found a hexagonal cell.
 ALAT       =    10.5600004196
 C/A-ratio  =     1.8939393187
  
  Lattice vectors:
  
 A1 = (  10.5600004196,   0.0000000000,   0.0000000000)
 A2 = (  -5.2800002098,   9.1452286274,   0.0000000000)
 A3 = (   0.0000000000,   0.0000000000,  20.0000000000)


Analysis of symmetry for initial positions (statically):
=====================================================================
 Subroutine PRICEL returns:
 Original cell was already a primitive cell.
 

 Routine SETGRP: Setting up the symmetry group for a 
 hexagonal supercell.


 Subroutine GETGRP returns: Found  1 space group operations
 (whereof  1 operations were pure point group operations)
 out of a pool of 24 trial point group operations.


The static configuration has the point symmetry C_1 .


Analysis of symmetry for dynamics (positions and initial velocities):
=====================================================================
 Subroutine PRICEL returns:
 Original cell was already a primitive cell.
 

 Routine SETGRP: Setting up the symmetry group for a 
 hexagonal supercell.


 Subroutine GETGRP returns: Found  1 space group operations
 (whereof  1 operations were pure point group operations)
 out of a pool of 24 trial point group operations.


The dynamic configuration has the point symmetry C_1 .


Analysis of constrained symmetry for selective dynamics:
=====================================================================
 Subroutine PRICEL returns:
 Original cell was already a primitive cell.
 

 Routine SETGRP: Setting up the symmetry group for a 
 hexagonal supercell.


 Subroutine GETGRP returns: Found  1 space group operations
 (whereof  1 operations were pure point group operations)
 out of a pool of 24 trial point group operations.


The constrained configuration has the point symmetry C_1 .


 Subroutine INISYM returns: Found  1 space group operations
 (whereof  1 operations are pure point group operations),
 and found     1 'primitive' translations

 
 
 KPOINTS: mesh auto                               

Automatic generation of k-mesh.
Space group operators:
 irot       det(A)        alpha          n_x          n_y          n_z        tau_x        tau_y        tau_z
    1     1.000000     0.000000     1.000000     0.000000     0.000000     0.000000     0.000000     0.000000
 
 Subroutine IBZKPT returns following result:
 ===========================================
 
 Found      4 irreducible k-points:
 
 Following reciprocal coordinates:
            Coordinates               Weight
  0.000000  0.000000  0.000000      1.000000
  0.500000 -0.000000  0.000000      1.000000
  0.000000  0.500000  0.000000      1.000000
  0.500000  0.500000  0.000000      1.000000
 
 Following cartesian coordinates:
            Coordinates               Weight
  0.000000  0.000000  0.000000      1.000000
  0.047348  0.027337  0.000000      1.000000
  0.000000  0.054673  0.000000      1.000000
  0.047348  0.082010  0.000000      1.000000
 


--------------------------------------------------------------------------------------------------------




 Dimension of arrays:
   k-points           NKPTS =      4   k-points in BZ     NKDIM =      4   number of bands    NBANDS=    390
   number of dos      NEDOS =    301   number of ions     NIONS =     66
   non local maximal  LDIM  =      6   non local SUM 2l+1 LMDIM =     18
   total plane-waves  NPLWV = ******
   max r-space proj   IRMAX =   8171   max aug-charges    IRDMAX=  35597
   dimension x,y,z NGX =    84 NGY =   84 NGZ =  160
   dimension x,y,z NGXF=   168 NGYF=  168 NGZF=  320
   support grid    NGXF=   168 NGYF=  168 NGZF=  320
   ions per type =              64   2
   NGX,Y,Z   is equivalent  to a cutoff of  13.22, 13.22, 13.30 a.u.
   NGXF,Y,Z  is equivalent  to a cutoff of  26.45, 26.45, 26.60 a.u.

 SYSTEM =  Pt111                                   
 POSCAR =  Pt111\(1\1\1)\(2)                       

 Startparameter for this run:
   NWRITE =      2    write-flag & timer
   PREC   = accura    normal or accurate (medium, high low for compatibility)
   ISTART =      0    job   : 0-new  1-cont  2-samecut
   ICHARG =      2    charge: 1-file 2-atom 10-const
   ISPIN  =      1    spin polarized calculation?
   LNONCOLLINEAR =      F non collinear calculations
   LSORBIT =      F    spin-orbit coupling
   INIWAV =      1    electr: 0-lowe 1-rand  2-diag
   LASPH  =      F    aspherical Exc in radial PAW
   METAGGA=      F    non-selfconsistent MetaGGA calc.

 Electronic Relaxation 1
   ENCUT  =  550.0 eV  40.42 Ry    6.36 a.u.  20.19 20.19 38.24*2*pi/ulx,y,z
   ENINI  =  550.0     initial cutoff
   ENAUG  =  400.0 eV  augmentation charge cutoff
   NELM   =    200;   NELMIN=  2; NELMDL= -5     # of ELM steps 
   EDIFF  = 0.1E-04   stopping-criterion for ELM
   LREAL  =      T    real-space projection
   NLSPLINE    = F    spline interpolate recip. space projectors
   LCOMPAT=      F    compatible to vasp.4.4
   GGA_COMPAT  = T    GGA compatible to vasp.4.4-vasp.4.6
   LMAXPAW     = -100 max onsite density
   LMAXMIX     =    2 max onsite mixed and CHGCAR
   VOSKOWN=      0    Vosko Wilk Nusair interpolation
   ROPT   =   -0.00025  -0.00025
 Ionic relaxation
   EDIFFG = -.5E-01   stopping-criterion for IOM
   NSW    =    300    number of steps for IOM
   NBLOCK =      1;   KBLOCK =    300    inner block; outer block 
   IBRION =      2    ionic relax: 0-MD 1-quasi-New 2-CG
   NFREE  =      1    steps in history (QN), initial steepest desc. (CG)
   ISIF   =      2    stress and relaxation
   IWAVPR =     11    prediction:  0-non 1-charg 2-wave 3-comb
   ISYM   =      2    0-nonsym 1-usesym 2-fastsym
   LCORR  =      T    Harris-Foulkes like correction to forces

   POTIM  = 0.5000    time-step for ionic-motion
   TEIN   =    0.0    initial temperature
   TEBEG  =    0.0;   TEEND  =   0.0 temperature during run
   SMASS  =  -3.00    Nose mass-parameter (am)
   estimated Nose-frequenzy (Omega)   =  0.10E-29 period in steps =****** mass=  -0.255E-26a.u.
   SCALEE = 1.0000    scale energy and forces
   NPACO  =    256;   APACO  = 16.0  distance and # of slots for P.C.
   PSTRESS=    0.0 pullay stress

  Mass of Ions in am
   POMASS = 195.08  1.00
  Ionic Valenz
   ZVAL   =  10.00  1.00
  Atomic Wigner-Seitz radii
   RWIGS  =  -1.00 -1.00
  virtual crystal weights 
   VCA    =   1.00  1.00
   NELECT =     642.0000    total number of electrons
   NUPDOWN=      -1.0000    fix difference up-down

 DOS related values:
   EMIN   =  10.00;   EMAX   =-10.00  energy-range for DOS
   EFERMI =   0.00
   ISMEAR =     1;   SIGMA  =   0.10  broadening in eV -4-tet -1-fermi 0-gaus

 Electronic relaxation 2 (details)
   IALGO  =     68    algorithm
   LDIAG  =      T    sub-space diagonalisation (order eigenvalues)
   LSUBROT=      F    optimize rotation matrix (better conditioning)
   TURBO    =      0    0=normal 1=particle mesh
   IRESTART =      0    0=no restart 2=restart with 2 vectors
   NREBOOT  =      0    no. of reboots
   NMIN     =      0    reboot dimension
   EREF     =   0.00    reference energy to select bands
   IMIX   =      4    mixing-type and parameters
     AMIX     =   0.40;   BMIX     =  1.00
     AMIX_MAG =   1.60;   BMIX_MAG =  1.00
     AMIN     =   0.10
     WC   =   100.;   INIMIX=   1;  MIXPRE=   1;  MAXMIX= -45

 Intra band minimization:
   WEIMIN = 0.0010     energy-eigenvalue tresh-hold
   EBREAK =  0.64E-08  absolut break condition
   DEPER  =   0.30     relativ break condition  

   TIME   =   0.40     timestep for ELM

  volume/ion in A,a.u.               =      29.26       197.49
  Fermi-wavevector in a.u.,A,eV,Ry     =   1.134028  2.143002 17.497349  1.286019
  Thomas-Fermi vector in A             =   2.270731
 
 Write flags
   LWAVE        =      F    write WAVECAR
   LDOWNSAMPLE  =      F    k-point downsampling of WAVECAR
   LCHARG       =      F    write CHGCAR
   LVTOT        =      F    write LOCPOT, total local potential
   LVHAR        =      F    write LOCPOT, Hartree potential only
   LELF         =      F    write electronic localiz. function (ELF)
   LORBIT       =      0    0 simple, 1 ext, 2 COOP (PROOUT), +10 PAW based schemes


 Dipole corrections
   LMONO  =      F    monopole corrections only (constant potential shift)
   LDIPOL =      F    correct potential (dipole corrections)
   IDIPOL =      0    1-x, 2-y, 3-z, 4-all directions 
   EPSILON=  1.0000000 bulk dielectric constant

 Exchange correlation treatment:
   GGA     =    --    GGA type
   LEXCH   =     8    internal setting for exchange type
   VOSKOWN=      0    Vosko Wilk Nusair interpolation
   LHFCALC =     F    Hartree Fock is set to
   LHFONE  =     F    Hartree Fock one center treatment
   AEXX    =    0.0000 exact exchange contribution

 Linear response parameters
   LEPSILON=     F    determine dielectric tensor
   LRPA    =     F    only Hartree local field effects (RPA)
   LNABLA  =     F    use nabla operator in PAW spheres
   LVEL    =     F    velocity operator in full k-point grid
   LINTERFAST=   F  fast interpolation
   KINTER  =     0    interpolate to denser k-point grid
   CSHIFT  =0.1000    complex shift for real part using Kramers Kronig
   OMEGAMAX=  -1.0    maximum frequency
   DEG_THRESHOLD= 0.2000000E-02 threshold for treating states as degnerate
   RTIME   =   -0.100 relaxation time in fs
  (WPLASMAI=    0.000 imaginary part of plasma frequency in eV, 0.658/RTIME)
   DFIELD  = 0.0000000 0.0000000 0.0000000 field for delta impulse in time
 
 Orbital magnetization related:
   ORBITALMAG=     F  switch on orbital magnetization
   LCHIMAG   =     F  perturbation theory with respect to B field
   DQ        =  0.001000  dq finite difference perturbation B field
   LLRAUG    =     F  two centre corrections for induced B field



--------------------------------------------------------------------------------------------------------


 conjugate gradient relaxation of ions
   using selective dynamics as specified on POSCAR
   WARNING: If single coordinates had been selected the selection of coordinates
            is made according to the corresponding   d i r e c t   coordinates!
            Don't support selection of single cartesian coordinates -- sorry ...
  !
 charge density and potential will be updated during run
 non-spin polarized calculation
 RMM-DIIS sequential band-by-band and
  variant of blocked Davidson during initial phase
 perform sub-space diagonalisation
    before iterative eigenvector-optimisation
 modified Broyden-mixing scheme, WC =      100.0
 initial mixing is a Kerker type mixing with AMIX =  0.4000 and BMIX =      1.0000
 Hartree-type preconditioning will be used
 using additional bands           69
 real space projection scheme for non local part
 use partial core corrections
 calculate Harris-corrections to forces 
   (improved forces if not selfconsistent)
 use gradient corrections 
 use of overlap-Matrix (Vanderbilt PP)
 Methfessel and Paxton  Order N= 1 SIGMA  =   0.10


--------------------------------------------------------------------------------------------------------


  energy-cutoff  :      550.00
  volume of cell :     1931.47
      direct lattice vectors                 reciprocal lattice vectors
    10.560000420  0.000000000  0.000000000     0.094696966  0.054673319  0.000000000
    -5.280000210  9.145228627  0.000000000     0.000000000  0.109346638  0.000000000
     0.000000000  0.000000000 20.000000000     0.000000000  0.000000000  0.050000000

  length of vectors
    10.560000420 10.560000420 20.000000000     0.109346638  0.109346638  0.050000000


 
 k-points in units of 2pi/SCALE and weight: mesh auto                               
   0.00000000  0.00000000  0.00000000       0.250
   0.04734848  0.02733666  0.00000000       0.250
   0.00000000  0.05467332  0.00000000       0.250
   0.04734848  0.08200998  0.00000000       0.250
 
 k-points in reciprocal lattice and weights: mesh auto                               
   0.00000000  0.00000000  0.00000000       0.250
   0.50000000 -0.00000000  0.00000000       0.250
   0.00000000  0.50000000  0.00000000       0.250
   0.50000000  0.50000000  0.00000000       0.250
 
 position of ions in fractional coordinates (direct lattice) 
   0.99999844  0.00000156  0.05579229
   0.33333173  0.16666826  0.17752397
   0.16666826  0.33333171  0.29729603
   0.00000156  0.99999844  0.41902774
   0.99999844  0.25000155  0.05579229
   0.33333172  0.41666827  0.17752397
   0.16666826  0.08333172  0.29729603
   0.00000155  0.24999844  0.41902774
   0.24999844  0.25000155  0.05579229
   0.08333172  0.41666827  0.17752397
   0.41666827  0.08333172  0.29729603
   0.25000155  0.24999844  0.41902774
   0.24999844  0.00000156  0.05579229
   0.08333172  0.16666826  0.17752397
   0.41666826  0.33333171  0.29729603
   0.25000156  0.99999844  0.41902774
   0.49999844  0.00000156  0.05579229
   0.83333168  0.16666826  0.17752397
   0.66666828  0.33333171  0.29729603
   0.50000156  0.99999844  0.41902774
   0.49999843  0.25000155  0.05579229
   0.83333168  0.41666827  0.17752397
   0.66666830  0.08333172  0.29729603
   0.50000154  0.24999844  0.41902774
   0.74999841  0.25000155  0.05579229
   0.58333168  0.41666827  0.17752397
   0.91666827  0.08333172  0.29729603
   0.75000152  0.24999844  0.41902774
   0.74999842  0.00000156  0.05579229
   0.58333166  0.16666826  0.17752397
   0.91666826  0.33333171  0.29729603
   0.75000153  0.99999844  0.41902774
   0.99999844  0.50000154  0.05579229
   0.33333171  0.66666826  0.17752397
   0.16666825  0.83333170  0.29729603
   0.00000155  0.49999843  0.41902774
   0.99999843  0.75000151  0.05579229
   0.33333173  0.91666828  0.17752397
   0.16666826  0.58333168  0.29729603
   0.00000154  0.74999840  0.41902774
   0.24999843  0.75000151  0.05579229
   0.08333173  0.91666828  0.17752397
   0.41666828  0.58333168  0.29729603
   0.25000154  0.74999840  0.41902774
   0.24999844  0.50000154  0.05579229
   0.08333171  0.66666826  0.17752397
   0.41666827  0.83333170  0.29729603
   0.25000155  0.49999843  0.41902774
   0.49999844  0.50000154  0.05579229
   0.83333171  0.66666826  0.17752397
   0.66666830  0.83333170  0.29729603
   0.50000155  0.49999843  0.41902774
   0.49999843  0.75000151  0.05579229
   0.83333170  0.91666828  0.17752397
   0.66666830  0.58333168  0.29729603
   0.50000154  0.74999840  0.41902774
   0.74999841  0.75000151  0.05579229
   0.58333168  0.91666828  0.17752397
   0.91666828  0.58333168  0.29729603
   0.75000152  0.74999840  0.41902774
   0.74999839  0.50000154  0.05579229
   0.58333166  0.66666826  0.17752397
   0.91666827  0.83333170  0.29729603
   0.75000150  0.49999843  0.41902774
   0.38000000  0.41160000  0.56700000
   0.37200000  0.33700000  0.57300000
 
 position of ions in cartesian coordinates  (Angst):
  10.55997578  0.00001422  1.11584590
   2.63997474  1.52421935  3.55047947
   0.00002535  3.04839473  5.94592065
  -5.27997557  9.14521440  8.38055470
   9.23997574  2.28632132  1.11584590
   1.31997457  3.81052657  3.55047947
   1.32002541  0.76208763  5.94592065
  -1.31997541  2.28629287  8.38055470
   1.31997542  2.28632132  1.11584590
  -1.32002553  3.81052657  3.55047947
   3.96002563  0.76208763  5.94592065
   1.32002469  2.28629287  8.38055470
   2.63997547  0.00001422  1.11584590
  -0.00002541  1.52421935  3.55047947
   2.64002545  3.04839473  5.94592065
  -2.63997547  9.14521440  8.38055470
   5.27997557  0.00001422  1.11584590
   7.91997448  1.52421935  3.55047947
   5.28002580  3.04839473  5.94592065
   0.00002464  9.14521440  8.38055470
   3.95997540  2.28632132  1.11584590
   6.59997431  3.81052657  3.55047947
   6.60002598  0.76208763  5.94592065
   3.96002467  2.28629287  8.38055470
   6.59997527  2.28632132  1.11584590
   3.95997420  3.81052657  3.55047947
   9.24002584  0.76208763  5.94592065
   6.60002455  2.28629287  8.38055470
   7.91997543  0.00001422  1.11584590
   5.27997414  1.52421935  3.55047947
   7.92002566  3.04839473  5.94592065
   2.64002450  9.14521440  8.38055470
   7.91997567  4.57262842  1.11584590
  -0.00002559  6.09683366  3.55047947
  -2.63997474  7.62100892  5.94592065
  -2.63997547  4.57259997  8.38055470
   6.59997574  6.85893527  1.11584590
  -1.32002553  8.38314100  3.55047947
  -1.31997445  5.33470159  5.94592065
  -3.95997540  6.85890683  8.38055470
  -1.32002457  6.85893527  1.11584590
  -3.96002563  8.38314100  3.55047947
   1.32002577  5.33470159  5.94592065
  -1.31997530  6.85890683  8.38055470
  -0.00002464  4.57262842  1.11584590
  -2.64002570  6.09683366  3.55047947
   0.00002559  7.62100892  5.94592065
   0.00002463  4.57259997  8.38055470
   2.63997546  4.57262842  1.11584590
   5.27997462  6.09683366  3.55047947
   2.64002594  7.62100892  5.94592065
   2.64002474  4.57259997  8.38055470
   1.31997553  6.85893527  1.11584590
   3.95997444  8.38314100  3.55047947
   3.96002611  5.33470159  5.94592065
   1.32002481  6.85890683  8.38055470
   3.95997540  6.85893527  1.11584590
   1.31997410  8.38314100  3.55047947
   6.60002598  5.33470159  5.94592065
   3.96002468  6.85890683  8.38055470
   5.27997509  4.57262842  1.11584590
   2.63997404  6.09683366  3.55047947
   5.28002580  7.62100892  5.94592065
   5.28002437  4.57259997  8.38055470
   1.83955207  3.76417610 11.34000000
   2.14896009  3.08194205 11.46000000
 


--------------------------------------------------------------------------------------------------------


 k-point  1 :   0.0000 0.0000 0.0000  plane waves:   56579
 k-point  2 :   0.5000-0.0000 0.0000  plane waves:   56606
 k-point  3 :   0.0000 0.5000 0.0000  plane waves:   56606
 k-point  4 :   0.5000 0.5000 0.0000  plane waves:   56606

 maximum and minimum number of plane-waves per node :     14185    14108

 maximum number of plane-waves:     56606
 maximum index in each direction: 
   IXMAX=   20   IYMAX=   20   IZMAX=   38
   IXMIN=  -20   IYMIN=  -20   IZMIN=  -38


 real space projection operators:
  total allocation   :      71348.50 KBytes
  max/ min on nodes  :      17837.59      17836.73


 parallel 3D FFT for wavefunctions:
    minimum data exchange during FFTs selected (reduces bandwidth)
 parallel 3D FFT for charge:
    minimum data exchange during FFTs selected (reduces bandwidth)


 total amount of memory used by VASP MPI-rank0   141000. kBytes
=======================================================================

   base      :      30000. kBytes
   nonlr-proj:      31089. kBytes
   fftplans  :      17093. kBytes
   grid      :      26437. kBytes
   one-center:        264. kBytes
   wavefun   :      36117. kBytes
 
     INWAV:  cpu time    0.0001: real time    0.0001
 Broyden mixing: mesh for mixing (old mesh)
   NGX = 41   NGY = 41   NGZ = 77
  (NGX  =168   NGY  =168   NGZ  =320)
  gives a total of 129437 points

 initial charge density was supplied:
 charge density of overlapping atoms calculated
 number of electron     642.0000000 magnetization 
 keeping initial charge density in first step


--------------------------------------------------------------------------------------------------------


 Maximum index for non-local projection operator         2015
 Maximum index for augmentation-charges         2177 (set IRDMAX)


--------------------------------------------------------------------------------------------------------


 First call to EWALD:  gamma=   0.142
 Maximum number of real-space cells 4x 4x 2
 Maximum number of reciprocal cells 2x 2x 4

    FEWALD:  cpu time    0.0042: real time    0.0043


--------------------------------------- Iteration      1(   1)  ---------------------------------------


    POTLOK:  cpu time    0.2340: real time    0.2599
    SETDIJ:  cpu time    0.0608: real time    0.0615
     EDDAV:  cpu time   22.5298: real time   22.6084
       DOS:  cpu time    0.0057: real time    0.0058
    --------------------------------------------
      LOOP:  cpu time   22.8303: real time   22.9355

 eigenvalue-minimisations  :  3120
 total energy-change (2. order) : 0.4556885E+04  (-0.3138773E+05)
 number of electron     642.0000000 magnetization 
 augmentation part      642.0000000 magnetization 

 Free energy of the ion-electron system (eV)
  ---------------------------------------------------
  alpha Z        PSCENC =      2023.78361127
  Ewald energy   TEWEN  =    125232.27964671
  -Hartree energ DENC   =   -176344.68198258
  -exchange      EXHF   =         0.00000000
  -V(xc)+E(xc)   XCENC  =       241.32026774
  PAW double counting   =     44556.17432227   -42746.06468925
  entropy T*S    EENTRO =         0.00724782
  eigenvalues    EBANDS =      4905.69635006
  atomic energy  EATOM  =     46688.37031544
  Solvation  Ediel_sol  =         0.00000000
  ---------------------------------------------------
  free energy    TOTEN  =      4556.88508948 eV

  energy without entropy =     4556.87784166  energy(sigma->0) =     4556.88267354


--------------------------------------------------------------------------------------------------------




--------------------------------------- Iteration      1(   2)  ---------------------------------------


     EDDAV:  cpu time   24.4090: real time   24.4826
       DOS:  cpu time    0.0014: real time    0.0014
    --------------------------------------------
      LOOP:  cpu time   24.4104: real time   24.4840

 eigenvalue-minimisations  :  3500
 total energy-change (2. order) :-0.4670164E+04  (-0.4323623E+04)
 number of electron     642.0000000 magnetization 
 augmentation part      642.0000000 magnetization 

 Free energy of the ion-electron system (eV)
  ---------------------------------------------------
  alpha Z        PSCENC =      2023.78361127
  Ewald energy   TEWEN  =    125232.27964671
  -Hartree energ DENC   =   -176344.68198258
  -exchange      EXHF   =         0.00000000
  -V(xc)+E(xc)   XCENC  =       241.32026774
  PAW double counting   =     44556.17432227   -42746.06468925
  entropy T*S    EENTRO =        -0.00131798
  eigenvalues    EBANDS =       235.54127269
  atomic energy  EATOM  =     46688.37031544
  Solvation  Ediel_sol  =         0.00000000
  ---------------------------------------------------
  free energy    TOTEN  =      -113.27855370 eV

  energy without entropy =     -113.27723571  energy(sigma->0) =     -113.27811437


--------------------------------------------------------------------------------------------------------




--------------------------------------- Iteration      1(   3)  ---------------------------------------


     EDDAV:  cpu time   25.3170: real time   25.3939
       DOS:  cpu time    0.0013: real time    0.0013
    --------------------------------------------
      LOOP:  cpu time   25.3183: real time   25.3952

 eigenvalue-minimisations  :  3670
 total energy-change (2. order) :-0.2753135E+03  (-0.2479808E+03)
 number of electron     642.0000000 magnetization 
 augmentation part      642.0000000 magnetization 

 Free energy of the ion-electron system (eV)
  ---------------------------------------------------
  alpha Z        PSCENC =      2023.78361127
  Ewald energy   TEWEN  =    125232.27964671
  -Hartree energ DENC   =   -176344.68198258
  -exchange      EXHF   =         0.00000000
  -V(xc)+E(xc)   XCENC  =       241.32026774
  PAW double counting   =     44556.17432227   -42746.06468925
  entropy T*S    EENTRO =        -0.13164881
  eigenvalues    EBANDS =       -39.64190900
  atomic energy  EATOM  =     46688.37031544
  Solvation  Ediel_sol  =         0.00000000
  ---------------------------------------------------
  free energy    TOTEN  =      -388.59206621 eV

  energy without entropy =     -388.46041740  energy(sigma->0) =     -388.54818327


--------------------------------------------------------------------------------------------------------




--------------------------------------- Iteration      1(   4)  ---------------------------------------


     EDDAV:  cpu time   26.6536: real time   26.7400
       DOS:  cpu time    0.0014: real time    0.0014
    --------------------------------------------
      LOOP:  cpu time   26.6550: real time   26.7414

 eigenvalue-minimisations  :  3890
 total energy-change (2. order) :-0.1079263E+02  (-0.1042873E+02)
 number of electron     642.0000000 magnetization 
 augmentation part      642.0000000 magnetization 

 Free energy of the ion-electron system (eV)
  ---------------------------------------------------
  alpha Z        PSCENC =      2023.78361127
  Ewald energy   TEWEN  =    125232.27964671
  -Hartree energ DENC   =   -176344.68198258
  -exchange      EXHF   =         0.00000000
  -V(xc)+E(xc)   XCENC  =       241.32026774
  PAW double counting   =     44556.17432227   -42746.06468925
  entropy T*S    EENTRO =        -0.16813744
  eigenvalues    EBANDS =       -50.39804851
  atomic energy  EATOM  =     46688.37031544
  Solvation  Ediel_sol  =         0.00000000
  ---------------------------------------------------
  free energy    TOTEN  =      -399.38469436 eV

  energy without entropy =     -399.21655692  energy(sigma->0) =     -399.32864854


--------------------------------------------------------------------------------------------------------




--------------------------------------- Iteration      1(   5)  ---------------------------------------


     EDDAV:  cpu time   25.9572: real time   26.0351
       DOS:  cpu time    0.0012: real time    0.0012
    CHARGE:  cpu time    1.7308: real time    1.7362
    MIXING:  cpu time    0.0066: real time    0.0073
    --------------------------------------------
      LOOP:  cpu time   27.6959: real time   27.7799

 eigenvalue-minimisations  :  3780
 total energy-change (2. order) :-0.2883200E+00  (-0.2874655E+00)
 number of electron     642.0000121 magnetization 
 augmentation part      185.4802722 magnetization 

 Broyden mixing:
  rms(total) = 0.10262E+02    rms(broyden)= 0.10262E+02
  rms(prec ) = 0.10378E+02
  weight for this iteration     100.00

 Free energy of the ion-electron system (eV)
  ---------------------------------------------------
  alpha Z        PSCENC =      2023.78361127
  Ewald energy   TEWEN  =    125232.27964671
  -Hartree energ DENC   =   -176344.68198258
  -exchange      EXHF   =         0.00000000
  -V(xc)+E(xc)   XCENC  =       241.32026774
  PAW double counting   =     44556.17432227   -42746.06468925
  entropy T*S    EENTRO =        -0.16820765
  eigenvalues    EBANDS =       -50.68629826
  atomic energy  EATOM  =     46688.37031544
  Solvation  Ediel_sol  =         0.00000000
  ---------------------------------------------------
  free energy    TOTEN  =      -399.67301431 eV

  energy without entropy =     -399.50480667  energy(sigma->0) =     -399.61694510


--------------------------------------------------------------------------------------------------------




--------------------------------------- Iteration      1(   6)  ---------------------------------------


    POTLOK:  cpu time    0.1939: real time    0.1949
    SETDIJ:  cpu time    0.0190: real time    0.0191
    EDDIAG:  cpu time    3.9464: real time    3.9597
  RMM-DIIS:  cpu time   14.2024: real time   14.2461
    ORTHCH:  cpu time    0.4027: real time    0.4038
       DOS:  cpu time    0.0011: real time    0.0011
    CHARGE:  cpu time    1.6779: real time    1.6829
    MIXING:  cpu time    0.0070: real time    0.0073
    --------------------------------------------
      LOOP:  cpu time   20.4505: real time   20.5149

 eigenvalue-minimisations  :  3127
 total energy-change (2. order) : 0.1682530E+02  (-0.5425221E+01)
 number of electron     642.0000130 magnetization 
 augmentation part      194.5320502 magnetization 

 Broyden mixing:
  rms(total) = 0.66794E+01    rms(broyden)= 0.66794E+01
  rms(prec ) = 0.69837E+01
  weight for this iteration     100.00

 eigenvalues of (default mixing * dielectric matrix)
  average eigenvalue GAMMA=   1.7192
  1.7192

 Free energy of the ion-electron system (eV)
  ---------------------------------------------------
  alpha Z        PSCENC =      2023.78361127
  Ewald energy   TEWEN  =    125232.27964671
  -Hartree energ DENC   =   -175629.95900902
  -exchange      EXHF   =         0.00000000
  -V(xc)+E(xc)   XCENC  =       226.24003800
  PAW double counting   =     50834.77967799   -49132.62852031
  entropy T*S    EENTRO =        -0.15458881
  eigenvalues    EBANDS =      -625.55888359
  atomic energy  EATOM  =     46688.37031544
  Solvation  Ediel_sol  =         0.00000000
  ---------------------------------------------------
  free energy    TOTEN  =      -382.84771230 eV

  energy without entropy =     -382.69312350  energy(sigma->0) =     -382.79618270


--------------------------------------------------------------------------------------------------------




--------------------------------------- Iteration      1(   7)  ---------------------------------------


    POTLOK:  cpu time    0.1865: real time    0.1870
    SETDIJ:  cpu time    0.0196: real time    0.0196
    EDDIAG:  cpu time    3.9349: real time    3.9468
  RMM-DIIS:  cpu time   13.9577: real time   14.0000
    ORTHCH:  cpu time    0.4411: real time    0.4423
       DOS:  cpu time    0.0011: real time    0.0011
    CHARGE:  cpu time    1.7156: real time    1.7208
    MIXING:  cpu time    0.0090: real time    0.0090
    --------------------------------------------
      LOOP:  cpu time   20.2655: real time   20.3266

 eigenvalue-minimisations  :  3126
 total energy-change (2. order) :-0.1225367E+03  (-0.1767778E+02)
 number of electron     642.0000135 magnetization 
 augmentation part      191.9235993 magnetization 

 Broyden mixing:
  rms(total) = 0.98534E+01    rms(broyden)= 0.98534E+01
  rms(prec ) = 0.12118E+02
  weight for this iteration     100.00

 eigenvalues of (default mixing * dielectric matrix)
  average eigenvalue GAMMA=   1.2707
  2.2867  0.2547

 Free energy of the ion-electron system (eV)
  ---------------------------------------------------
  alpha Z        PSCENC =      2023.78361127
  Ewald energy   TEWEN  =    125232.27964671
  -Hartree energ DENC   =   -176182.03294718
  -exchange      EXHF   =         0.00000000
  -V(xc)+E(xc)   XCENC  =       219.99698803
  PAW double counting   =     56535.59669494   -54898.84842177
  entropy T*S    EENTRO =        -0.03445263
  eigenvalues    EBANDS =      -124.49586962
  atomic energy  EATOM  =     46688.37031544
  Solvation  Ediel_sol  =         0.00000000
  ---------------------------------------------------
  free energy    TOTEN  =      -505.38443482 eV

  energy without entropy =     -505.34998219  energy(sigma->0) =     -505.37295061


--------------------------------------------------------------------------------------------------------




--------------------------------------- Iteration      1(   8)  ---------------------------------------


    POTLOK:  cpu time    0.1911: real time    0.1915
    SETDIJ:  cpu time    0.0294: real time    0.0295
    EDDIAG:  cpu time    3.9689: real time    3.9808
  RMM-DIIS:  cpu time   14.0192: real time   14.0609
    ORTHCH:  cpu time    0.3989: real time    0.4004
       DOS:  cpu time    0.0013: real time    0.0013
    CHARGE:  cpu time    1.6773: real time    1.6824
    MIXING:  cpu time    0.0068: real time    0.0068
    --------------------------------------------
      LOOP:  cpu time   20.2929: real time   20.3537

 eigenvalue-minimisations  :  3133
 total energy-change (2. order) : 0.1217018E+03  (-0.5024846E+01)
 number of electron     642.0000135 magnetization 
 augmentation part      198.2977756 magnetization 

 Broyden mixing:
  rms(total) = 0.36151E+01    rms(broyden)= 0.36151E+01
  rms(prec ) = 0.45418E+01
  weight for this iteration     100.00

 eigenvalues of (default mixing * dielectric matrix)
  average eigenvalue GAMMA=   1.0752
  1.9254  0.9515  0.3487

 Free energy of the ion-electron system (eV)
  ---------------------------------------------------
  alpha Z        PSCENC =      2023.78361127
  Ewald energy   TEWEN  =    125232.27964671
  -Hartree energ DENC   =   -175601.29455136
  -exchange      EXHF   =         0.00000000
  -V(xc)+E(xc)   XCENC  =       216.89225806
  PAW double counting   =     60449.30182142   -58861.58376690
  entropy T*S    EENTRO =         0.02140317
  eigenvalues    EBANDS =      -531.45341646
  atomic energy  EATOM  =     46688.37031544
  Solvation  Ediel_sol  =         0.00000000
  ---------------------------------------------------
  free energy    TOTEN  =      -383.68267865 eV

  energy without entropy =     -383.70408183  energy(sigma->0) =     -383.68981304


--------------------------------------------------------------------------------------------------------




--------------------------------------- Iteration      1(   9)  ---------------------------------------


    POTLOK:  cpu time    0.1980: real time    0.1985
    SETDIJ:  cpu time    0.0215: real time    0.0216
    EDDIAG:  cpu time    3.9443: real time    3.9561
  RMM-DIIS:  cpu time   14.0452: real time   14.0876
    ORTHCH:  cpu time    0.4015: real time    0.4027
       DOS:  cpu time    0.0013: real time    0.0013
    CHARGE:  cpu time    1.6825: real time    1.6875
    MIXING:  cpu time    0.0072: real time    0.0072
    --------------------------------------------
      LOOP:  cpu time   20.3015: real time   20.3624

 eigenvalue-minimisations  :  3133
 total energy-change (2. order) : 0.3228760E+01  (-0.2928090E+01)
 number of electron     642.0000134 magnetization 
 augmentation part      197.5549595 magnetization 

 Broyden mixing:
  rms(total) = 0.29586E+01    rms(broyden)= 0.29586E+01
  rms(prec ) = 0.39030E+01
  weight for this iteration     100.00

 eigenvalues of (default mixing * dielectric matrix)
  average eigenvalue GAMMA=   0.9114
  2.0353  1.0272  0.2916  0.2916

 Free energy of the ion-electron system (eV)
  ---------------------------------------------------
  alpha Z        PSCENC =      2023.78361127
  Ewald energy   TEWEN  =    125232.27964671
  -Hartree energ DENC   =   -175547.43702324
  -exchange      EXHF   =         0.00000000
  -V(xc)+E(xc)   XCENC  =       220.41492981
  PAW double counting   =     59723.76595688   -58119.89253349
  entropy T*S    EENTRO =        -0.03766526
  eigenvalues    EBANDS =      -601.70115694
  atomic energy  EATOM  =     46688.37031544
  Solvation  Ediel_sol  =         0.00000000
  ---------------------------------------------------
  free energy    TOTEN  =      -380.45391883 eV

  energy without entropy =     -380.41625357  energy(sigma->0) =     -380.44136374


--------------------------------------------------------------------------------------------------------




--------------------------------------- Iteration      1(  10)  ---------------------------------------


    POTLOK:  cpu time    0.1978: real time    0.1985
    SETDIJ:  cpu time    0.0188: real time    0.0189
    EDDIAG:  cpu time    3.9464: real time    3.9582
  RMM-DIIS:  cpu time   14.0695: real time   14.1121
    ORTHCH:  cpu time    0.4297: real time    0.4313
       DOS:  cpu time    0.0016: real time    0.0016
    CHARGE:  cpu time    1.6889: real time    1.6936
    MIXING:  cpu time    0.0067: real time    0.0067
    --------------------------------------------
      LOOP:  cpu time   20.3595: real time   20.4209

 eigenvalue-minimisations  :  3157
 total energy-change (2. order) : 0.4574515E+00  (-0.2164812E+00)
 number of electron     642.0000133 magnetization 
 augmentation part      197.3474019 magnetization 

 Broyden mixing:
  rms(total) = 0.28395E+01    rms(broyden)= 0.28395E+01
  rms(prec ) = 0.38991E+01
  weight for this iteration     100.00

 eigenvalues of (default mixing * dielectric matrix)
  average eigenvalue GAMMA=   0.8924
  2.3777  1.1517  0.4199  0.4199  0.0928

 Free energy of the ion-electron system (eV)
  ---------------------------------------------------
  alpha Z        PSCENC =      2023.78361127
  Ewald energy   TEWEN  =    125232.27964671
  -Hartree energ DENC   =   -175557.40594061
  -exchange      EXHF   =         0.00000000
  -V(xc)+E(xc)   XCENC  =       220.36159214
  PAW double counting   =     59979.91000004   -58378.43181360
  entropy T*S    EENTRO =        -0.05224502
  eigenvalues    EBANDS =      -588.81163371
  atomic energy  EATOM  =     46688.37031544
  Solvation  Ediel_sol  =         0.00000000
  ---------------------------------------------------
  free energy    TOTEN  =      -379.99646733 eV

  energy without entropy =     -379.94422232  energy(sigma->0) =     -379.97905233


--------------------------------------------------------------------------------------------------------




--------------------------------------- Iteration      1(  11)  ---------------------------------------


    POTLOK:  cpu time    0.1984: real time    0.1992
    SETDIJ:  cpu time    0.0186: real time    0.0187
    EDDIAG:  cpu time    3.9484: real time    3.9612
  RMM-DIIS:  cpu time   14.0771: real time   14.1192
    ORTHCH:  cpu time    0.3961: real time    0.3971
       DOS:  cpu time    0.0013: real time    0.0013
    CHARGE:  cpu time    1.6714: real time    1.6766
    MIXING:  cpu time    0.0073: real time    0.0073
    --------------------------------------------
      LOOP:  cpu time   20.3186: real time   20.3805

 eigenvalue-minimisations  :  3133
 total energy-change (2. order) : 0.5964104E+01  (-0.1943622E+00)
 number of electron     642.0000130 magnetization 
 augmentation part      197.6566430 magnetization 

 Broyden mixing:
  rms(total) = 0.11721E+01    rms(broyden)= 0.11721E+01
  rms(prec ) = 0.13644E+01
  weight for this iteration     100.00

 eigenvalues of (default mixing * dielectric matrix)
  average eigenvalue GAMMA=   0.8264
  2.4989  1.1349  0.4728  0.4728  0.2921  0.0866

 Free energy of the ion-electron system (eV)
  ---------------------------------------------------
  alpha Z        PSCENC =      2023.78361127
  Ewald energy   TEWEN  =    125232.27964671
  -Hartree energ DENC   =   -175587.21342851
  -exchange      EXHF   =         0.00000000
  -V(xc)+E(xc)   XCENC  =       219.98153207
  PAW double counting   =     60785.50578585   -59192.43220619
  entropy T*S    EENTRO =        -0.16382544
  eigenvalues    EBANDS =      -544.14379479
  atomic energy  EATOM  =     46688.37031544
  Solvation  Ediel_sol  =         0.00000000
  ---------------------------------------------------
  free energy    TOTEN  =      -374.03236358 eV

  energy without entropy =     -373.86853814  energy(sigma->0) =     -373.97775510


--------------------------------------------------------------------------------------------------------




--------------------------------------- Iteration      1(  12)  ---------------------------------------


    POTLOK:  cpu time    0.1990: real time    0.1995
    SETDIJ:  cpu time    0.0188: real time    0.0188
    EDDIAG:  cpu time    3.9491: real time    3.9612
  RMM-DIIS:  cpu time   14.1865: real time   14.2290
    ORTHCH:  cpu time    0.4045: real time    0.4060
       DOS:  cpu time    0.0013: real time    0.0013
    CHARGE:  cpu time    1.6727: real time    1.6774
    MIXING:  cpu time    0.0079: real time    0.0080
    --------------------------------------------
      LOOP:  cpu time   20.4399: real time   20.5012

 eigenvalue-minimisations  :  3151
 total energy-change (2. order) : 0.7591380E+00  (-0.5011061E-01)
 number of electron     642.0000130 magnetization 
 augmentation part      197.5318444 magnetization 

 Broyden mixing:
  rms(total) = 0.67975E+00    rms(broyden)= 0.67975E+00
  rms(prec ) = 0.71879E+00
  weight for this iteration     100.00

 eigenvalues of (default mixing * dielectric matrix)
  average eigenvalue GAMMA=   0.7087
  2.4989  1.1354  0.4726  0.4726  0.2923  0.0867  0.0023

 Free energy of the ion-electron system (eV)
  ---------------------------------------------------
  alpha Z        PSCENC =      2023.78361127
  Ewald energy   TEWEN  =    125232.27964671
  -Hartree energ DENC   =   -175604.27832364
  -exchange      EXHF   =         0.00000000
  -V(xc)+E(xc)   XCENC  =       219.89472547
  PAW double counting   =     60968.62836098   -59377.45891121
  entropy T*S    EENTRO =        -0.21739898
  eigenvalues    EBANDS =      -524.27525160
  atomic energy  EATOM  =     46688.37031544
  Solvation  Ediel_sol  =         0.00000000
  ---------------------------------------------------
  free energy    TOTEN  =      -373.27322554 eV

  energy without entropy =     -373.05582657  energy(sigma->0) =     -373.20075922


--------------------------------------------------------------------------------------------------------




--------------------------------------- Iteration      1(  13)  ---------------------------------------


    POTLOK:  cpu time    0.1979: real time    0.1983
    SETDIJ:  cpu time    0.0186: real time    0.0187
    EDDIAG:  cpu time    3.9361: real time    3.9480
  RMM-DIIS:  cpu time   14.9306: real time   14.9849
    ORTHCH:  cpu time    0.3988: real time    0.3997
       DOS:  cpu time    0.0013: real time    0.0013
    CHARGE:  cpu time    1.6711: real time    1.6751
    MIXING:  cpu time    0.0075: real time    0.0075
    --------------------------------------------
      LOOP:  cpu time   21.1620: real time   21.2336

 eigenvalue-minimisations  :  3278
 total energy-change (2. order) : 0.6653743E-01  (-0.4968785E-02)
 number of electron     642.0000130 magnetization 
 augmentation part      197.5331093 magnetization 

 Broyden mixing:
  rms(total) = 0.59257E+00    rms(broyden)= 0.59257E+00
  rms(prec ) = 0.60609E+00
  weight for this iteration     100.00

 eigenvalues of (default mixing * dielectric matrix)
  average eigenvalue GAMMA=   0.6983
  2.4906  1.1780  0.4635  0.4614  0.4614  0.3205  0.0876  0.1232

 Free energy of the ion-electron system (eV)
  ---------------------------------------------------
  alpha Z        PSCENC =      2023.78361127
  Ewald energy   TEWEN  =    125232.27964671
  -Hartree energ DENC   =   -175606.42283005
  -exchange      EXHF   =         0.00000000
  -V(xc)+E(xc)   XCENC  =       219.89542629
  PAW double counting   =     60959.08414345   -59367.82977953
  entropy T*S    EENTRO =        -0.22740973
  eigenvalues    EBANDS =      -522.13981197
  atomic energy  EATOM  =     46688.37031544
  Solvation  Ediel_sol  =         0.00000000
  ---------------------------------------------------
  free energy    TOTEN  =      -373.20668812 eV

  energy without entropy =     -372.97927839  energy(sigma->0) =     -373.13088488


--------------------------------------------------------------------------------------------------------




--------------------------------------- Iteration      1(  14)  ---------------------------------------


    POTLOK:  cpu time    0.1974: real time    0.1979
    SETDIJ:  cpu time    0.0187: real time    0.0187
    EDDIAG:  cpu time    3.9367: real time    3.9461
  RMM-DIIS:  cpu time   14.1448: real time   14.1783
    ORTHCH:  cpu time    0.3986: real time    0.3995
       DOS:  cpu time    0.0013: real time    0.0013
    CHARGE:  cpu time    1.6734: real time    1.6773
    MIXING:  cpu time    0.0081: real time    0.0081
    --------------------------------------------
      LOOP:  cpu time   20.3790: real time   20.4273

 eigenvalue-minimisations  :  3147
 total energy-change (2. order) : 0.1222729E-01  (-0.3743596E-02)
 number of electron     642.0000130 magnetization 
 augmentation part      197.5052935 magnetization 

 Broyden mixing:
  rms(total) = 0.57897E+00    rms(broyden)= 0.57897E+00
  rms(prec ) = 0.61174E+00
  weight for this iteration     100.00

 eigenvalues of (default mixing * dielectric matrix)
  average eigenvalue GAMMA=   0.7880
  2.7007  0.9194  0.9194  0.9708  0.6609  0.4087  0.2836  0.0873  0.1408

 Free energy of the ion-electron system (eV)
  ---------------------------------------------------
  alpha Z        PSCENC =      2023.78361127
  Ewald energy   TEWEN  =    125232.27964671
  -Hartree energ DENC   =   -175610.79493889
  -exchange      EXHF   =         0.00000000
  -V(xc)+E(xc)   XCENC  =       219.91214047
  PAW double counting   =     60937.69303486   -59346.20656312
  entropy T*S    EENTRO =        -0.22008363
  eigenvalues    EBANDS =      -518.01162394
  atomic energy  EATOM  =     46688.37031544
  Solvation  Ediel_sol  =         0.00000000
  ---------------------------------------------------
  free energy    TOTEN  =      -373.19446083 eV

  energy without entropy =     -372.97437720  energy(sigma->0) =     -373.12109962


--------------------------------------------------------------------------------------------------------




--------------------------------------- Iteration      1(  15)  ---------------------------------------


    POTLOK:  cpu time    0.1952: real time    0.1957
    SETDIJ:  cpu time    0.0188: real time    0.0189
    EDDIAG:  cpu time    3.9534: real time    3.9628
  RMM-DIIS:  cpu time   14.1126: real time   14.1461
    ORTHCH:  cpu time    0.3967: real time    0.3976
       DOS:  cpu time    0.0013: real time    0.0013
    CHARGE:  cpu time    1.6708: real time    1.6747
    MIXING:  cpu time    0.0082: real time    0.0082
    --------------------------------------------
      LOOP:  cpu time   20.3570: real time   20.4053

 eigenvalue-minimisations  :  3140
 total energy-change (2. order) :-0.3630889E+00  (-0.3483083E-01)
 number of electron     642.0000131 magnetization 
 augmentation part      197.4877132 magnetization 

 Broyden mixing:
  rms(total) = 0.97352E+00    rms(broyden)= 0.97352E+00
  rms(prec ) = 0.11947E+01
  weight for this iteration     100.00

 eigenvalues of (default mixing * dielectric matrix)
  average eigenvalue GAMMA=   0.7933
  2.5055  1.2508  1.2508  0.8211  0.8211  0.4171  0.4171  0.2210  0.0873  0.1408

 Free energy of the ion-electron system (eV)
  ---------------------------------------------------
  alpha Z        PSCENC =      2023.78361127
  Ewald energy   TEWEN  =    125232.27964671
  -Hartree energ DENC   =   -175627.27451087
  -exchange      EXHF   =         0.00000000
  -V(xc)+E(xc)   XCENC  =       220.08971651
  PAW double counting   =     60958.90914678   -59367.23392137
  entropy T*S    EENTRO =        -0.28173425
  eigenvalues    EBANDS =      -502.19981994
  atomic energy  EATOM  =     46688.37031544
  Solvation  Ediel_sol  =         0.00000000
  ---------------------------------------------------
  free energy    TOTEN  =      -373.55754973 eV

  energy without entropy =     -373.27581548  energy(sigma->0) =     -373.46363831


--------------------------------------------------------------------------------------------------------




--------------------------------------- Iteration      1(  16)  ---------------------------------------


    POTLOK:  cpu time    0.1980: real time    0.1985
    SETDIJ:  cpu time    0.0191: real time    0.0191
    EDDIAG:  cpu time    3.9234: real time    3.9326
  RMM-DIIS:  cpu time   14.1318: real time   14.1727
    ORTHCH:  cpu time    0.4034: real time    0.4044
       DOS:  cpu time    0.0013: real time    0.0013
    CHARGE:  cpu time    1.6705: real time    1.6757
    MIXING:  cpu time    0.0093: real time    0.0094
    --------------------------------------------
      LOOP:  cpu time   20.3567: real time   20.4137

 eigenvalue-minimisations  :  3133
 total energy-change (2. order) : 0.4629803E+00  (-0.2068312E-01)
 number of electron     642.0000131 magnetization 
 augmentation part      197.4063883 magnetization 

 Broyden mixing:
  rms(total) = 0.33144E+00    rms(broyden)= 0.33144E+00
  rms(prec ) = 0.38242E+00
  weight for this iteration     100.00

 eigenvalues of (default mixing * dielectric matrix)
  average eigenvalue GAMMA=   0.7391
  2.3686  1.3464  1.3464  0.7934  0.7934  0.4274  0.4274  0.0873  0.1995  0.1995
  0.1412

 Free energy of the ion-electron system (eV)
  ---------------------------------------------------
  alpha Z        PSCENC =      2023.78361127
  Ewald energy   TEWEN  =    125232.27964671
  -Hartree energ DENC   =   -175629.38143385
  -exchange      EXHF   =         0.00000000
  -V(xc)+E(xc)   XCENC  =       220.46836611
  PAW double counting   =     60764.50551147   -59169.74744844
  entropy T*S    EENTRO =        -0.19016015
  eigenvalues    EBANDS =      -503.18297798
  atomic energy  EATOM  =     46688.37031544
  Solvation  Ediel_sol  =         0.00000000
  ---------------------------------------------------
  free energy    TOTEN  =      -373.09456941 eV

  energy without entropy =     -372.90440926  energy(sigma->0) =     -373.03118269


--------------------------------------------------------------------------------------------------------




--------------------------------------- Iteration      1(  17)  ---------------------------------------


    POTLOK:  cpu time    0.1980: real time    0.1984
    SETDIJ:  cpu time    0.0188: real time    0.0189
    EDDIAG:  cpu time    3.9153: real time    3.9271
  RMM-DIIS:  cpu time   14.0483: real time   14.0905
    ORTHCH:  cpu time    0.3932: real time    0.3943
       DOS:  cpu time    0.0013: real time    0.0013
    CHARGE:  cpu time    1.6756: real time    1.6806
    MIXING:  cpu time    0.0103: real time    0.0103
    --------------------------------------------
      LOOP:  cpu time   20.2607: real time   20.3214

 eigenvalue-minimisations  :  3139
 total energy-change (2. order) : 0.3896160E-01  (-0.3589291E-02)
 number of electron     642.0000131 magnetization 
 augmentation part      197.3950991 magnetization 

 Broyden mixing:
  rms(total) = 0.22814E+00    rms(broyden)= 0.22814E+00
  rms(prec ) = 0.24975E+00
  weight for this iteration     100.00

 eigenvalues of (default mixing * dielectric matrix)
  average eigenvalue GAMMA=   0.6991
  2.2441  1.4701  1.4701  0.8967  0.5010  0.5010  0.3392  0.2962  0.2962  0.0873
  0.1401  0.1468

 Free energy of the ion-electron system (eV)
  ---------------------------------------------------
  alpha Z        PSCENC =      2023.78361127
  Ewald energy   TEWEN  =    125232.27964671
  -Hartree energ DENC   =   -175630.08700958
  -exchange      EXHF   =         0.00000000
  -V(xc)+E(xc)   XCENC  =       220.54998294
  PAW double counting   =     60711.54433114   -59116.03286331
  entropy T*S    EENTRO =        -0.19278446
  eigenvalues    EBANDS =      -503.27083796
  atomic energy  EATOM  =     46688.37031544
  Solvation  Ediel_sol  =         0.00000000
  ---------------------------------------------------
  free energy    TOTEN  =      -373.05560781 eV

  energy without entropy =     -372.86282334  energy(sigma->0) =     -372.99134632


--------------------------------------------------------------------------------------------------------




--------------------------------------- Iteration      1(  18)  ---------------------------------------


    POTLOK:  cpu time    0.1986: real time    0.1992
    SETDIJ:  cpu time    0.0190: real time    0.0190
    EDDIAG:  cpu time    3.9946: real time    4.0064
  RMM-DIIS:  cpu time   14.1617: real time   14.2040
    ORTHCH:  cpu time    0.3980: real time    0.3995
       DOS:  cpu time    0.0013: real time    0.0013
    CHARGE:  cpu time    1.6683: real time    1.6733
    MIXING:  cpu time    0.0112: real time    0.0112
    --------------------------------------------
      LOOP:  cpu time   20.4526: real time   20.5140

 eigenvalue-minimisations  :  3148
 total energy-change (2. order) : 0.1143644E-03  (-0.7402741E-03)
 number of electron     642.0000131 magnetization 
 augmentation part      197.3867046 magnetization 

 Broyden mixing:
  rms(total) = 0.23704E+00    rms(broyden)= 0.23704E+00
  rms(prec ) = 0.26170E+00
  weight for this iteration     100.00

 eigenvalues of (default mixing * dielectric matrix)
  average eigenvalue GAMMA=   0.6733
  2.1784  1.5645  1.5645  0.8875  0.4734  0.4734  0.3657  0.3444  0.3444  0.0873
  0.1906  0.1396  0.1396

 Free energy of the ion-electron system (eV)
  ---------------------------------------------------
  alpha Z        PSCENC =      2023.78361127
  Ewald energy   TEWEN  =    125232.27964671
  -Hartree energ DENC   =   -175631.59589461
  -exchange      EXHF   =         0.00000000
  -V(xc)+E(xc)   XCENC  =       220.59590425
  PAW double counting   =     60681.48085163   -59085.53997990
  entropy T*S    EENTRO =        -0.19041964
  eigenvalues    EBANDS =      -502.23952859
  atomic energy  EATOM  =     46688.37031544
  Solvation  Ediel_sol  =         0.00000000
  ---------------------------------------------------
  free energy    TOTEN  =      -373.05549344 eV

  energy without entropy =     -372.86507381  energy(sigma->0) =     -372.99202023


--------------------------------------------------------------------------------------------------------




--------------------------------------- Iteration      1(  19)  ---------------------------------------


    POTLOK:  cpu time    0.1981: real time    0.1986
    SETDIJ:  cpu time    0.0191: real time    0.0192
    EDDIAG:  cpu time    3.9177: real time    3.9296
  RMM-DIIS:  cpu time   14.2475: real time   14.2903
    ORTHCH:  cpu time    0.3956: real time    0.3968
       DOS:  cpu time    0.0013: real time    0.0013
    CHARGE:  cpu time    1.6702: real time    1.6752
    MIXING:  cpu time    0.0094: real time    0.0094
    --------------------------------------------
      LOOP:  cpu time   20.4590: real time   20.5204

 eigenvalue-minimisations  :  3141
 total energy-change (2. order) : 0.1568155E-02  (-0.1121207E-03)
 number of electron     642.0000131 magnetization 
 augmentation part      197.3784493 magnetization 

 Broyden mixing:
  rms(total) = 0.22364E+00    rms(broyden)= 0.22364E+00
  rms(prec ) = 0.24742E+00
  weight for this iteration     100.00

 eigenvalues of (default mixing * dielectric matrix)
  average eigenvalue GAMMA=   0.7494
  1.9578  1.9578  1.7604  0.7581  0.7581  0.8327  0.7469  0.4230  0.4230  0.2724
  0.2330  0.0873  0.1404  0.1404

 Free energy of the ion-electron system (eV)
  ---------------------------------------------------
  alpha Z        PSCENC =      2023.78361127
  Ewald energy   TEWEN  =    125232.27964671
  -Hartree energ DENC   =   -175633.22677348
  -exchange      EXHF   =         0.00000000
  -V(xc)+E(xc)   XCENC  =       220.61686571
  PAW double counting   =     60670.23543428   -59074.11938798
  entropy T*S    EENTRO =        -0.19013806
  eigenvalues    EBANDS =      -500.80349918
  atomic energy  EATOM  =     46688.37031544
  Solvation  Ediel_sol  =         0.00000000
  ---------------------------------------------------
  free energy    TOTEN  =      -373.05392529 eV

  energy without entropy =     -372.86378723  energy(sigma->0) =     -372.99054593


--------------------------------------------------------------------------------------------------------




--------------------------------------- Iteration      1(  20)  ---------------------------------------


    POTLOK:  cpu time    0.1980: real time    0.1986
    SETDIJ:  cpu time    0.0189: real time    0.0189
    EDDIAG:  cpu time    3.9260: real time    3.9378
  RMM-DIIS:  cpu time   14.1586: real time   14.2014
    ORTHCH:  cpu time    0.3956: real time    0.3972
       DOS:  cpu time    0.0013: real time    0.0013
    CHARGE:  cpu time    1.6733: real time    1.6781
    MIXING:  cpu time    0.0111: real time    0.0115
    --------------------------------------------
      LOOP:  cpu time   20.3829: real time   20.4448

 eigenvalue-minimisations  :  3143
 total energy-change (2. order) : 0.6102179E-02  (-0.8065603E-03)
 number of electron     642.0000131 magnetization 
 augmentation part      197.3531163 magnetization 

 Broyden mixing:
  rms(total) = 0.16033E+00    rms(broyden)= 0.16033E+00
  rms(prec ) = 0.18322E+00
  weight for this iteration     100.00

 eigenvalues of (default mixing * dielectric matrix)
  average eigenvalue GAMMA=   0.8116
  2.4484  2.4484  1.8927  0.9543  0.9543  0.7388  0.7388  0.4182  0.4182  0.3159
  0.0873  0.2512  0.2266  0.1404  0.1404

 Free energy of the ion-electron system (eV)
  ---------------------------------------------------
  alpha Z        PSCENC =      2023.78361127
  Ewald energy   TEWEN  =    125232.27964671
  -Hartree energ DENC   =   -175639.12862888
  -exchange      EXHF   =         0.00000000
  -V(xc)+E(xc)   XCENC  =       220.67617925
  PAW double counting   =     60654.94277662   -59058.43670269
  entropy T*S    EENTRO =        -0.19699029
  eigenvalues    EBANDS =      -495.33803055
  atomic energy  EATOM  =     46688.37031544
  Solvation  Ediel_sol  =         0.00000000
  ---------------------------------------------------
  free energy    TOTEN  =      -373.04782311 eV

  energy without entropy =     -372.85083282  energy(sigma->0) =     -372.98215968


--------------------------------------------------------------------------------------------------------




--------------------------------------- Iteration      1(  21)  ---------------------------------------


    POTLOK:  cpu time    0.2019: real time    0.2023
    SETDIJ:  cpu time    0.0201: real time    0.0202
    EDDIAG:  cpu time    4.0063: real time    4.0182
  RMM-DIIS:  cpu time   14.1386: real time   14.1812
    ORTHCH:  cpu time    0.3991: real time    0.4003
       DOS:  cpu time    0.0012: real time    0.0012
    CHARGE:  cpu time    1.6683: real time    1.6733
    MIXING:  cpu time    0.0109: real time    0.0109
    --------------------------------------------
      LOOP:  cpu time   20.4465: real time   20.5078

 eigenvalue-minimisations  :  3149
 total energy-change (2. order) :-0.8538756E-02  (-0.1129928E-02)
 number of electron     642.0000131 magnetization 
 augmentation part      197.3196329 magnetization 

 Broyden mixing:
  rms(total) = 0.21256E+00    rms(broyden)= 0.21256E+00
  rms(prec ) = 0.25219E+00
  weight for this iteration     100.00

 eigenvalues of (default mixing * dielectric matrix)
  average eigenvalue GAMMA=   0.7810
  2.4821  2.4821  1.9651  0.9857  0.9857  0.7009  0.7009  0.4149  0.4149  0.3500
  0.0873  0.2614  0.2292  0.1401  0.1401  0.1559

 Free energy of the ion-electron system (eV)
  ---------------------------------------------------
  alpha Z        PSCENC =      2023.78361127
  Ewald energy   TEWEN  =    125232.27964671
  -Hartree energ DENC   =   -175646.66443127
  -exchange      EXHF   =         0.00000000
  -V(xc)+E(xc)   XCENC  =       220.74772288
  PAW double counting   =     60644.03606181   -59047.08792166
  entropy T*S    EENTRO =        -0.20749953
  eigenvalues    EBANDS =      -488.31386752
  atomic energy  EATOM  =     46688.37031544
  Solvation  Ediel_sol  =         0.00000000
  ---------------------------------------------------
  free energy    TOTEN  =      -373.05636186 eV

  energy without entropy =     -372.84886234  energy(sigma->0) =     -372.98719535


--------------------------------------------------------------------------------------------------------




--------------------------------------- Iteration      1(  22)  ---------------------------------------


    POTLOK:  cpu time    0.2003: real time    0.2009
    SETDIJ:  cpu time    0.0203: real time    0.0203
    EDDIAG:  cpu time    3.9403: real time    3.9522
  RMM-DIIS:  cpu time   14.1482: real time   14.1910
    ORTHCH:  cpu time    0.3981: real time    0.3996
       DOS:  cpu time    0.0016: real time    0.0017
    CHARGE:  cpu time    1.6817: real time    1.6864
    MIXING:  cpu time    0.0120: real time    0.0121
    --------------------------------------------
      LOOP:  cpu time   20.4025: real time   20.4641

 eigenvalue-minimisations  :  3151
 total energy-change (2. order) : 0.3984765E-02  (-0.1930199E-03)
 number of electron     642.0000131 magnetization 
 augmentation part      197.3124419 magnetization 

 Broyden mixing:
  rms(total) = 0.20003E+00    rms(broyden)= 0.20002E+00
  rms(prec ) = 0.23678E+00
  weight for this iteration     100.00

 eigenvalues of (default mixing * dielectric matrix)
  average eigenvalue GAMMA=   0.7637
  2.3180  2.3180  2.0945  1.0818  1.0818  0.6508  0.6508  0.5263  0.5263  0.4275
[...]
    FORNL :  cpu time    6.3089: real time    6.3265
    STRESS:  cpu time   18.8388: real time   18.8832
    FORCOR:  cpu time    0.2631: real time    0.2637
    FORHAR:  cpu time    0.1316: real time    0.1319
    MIXING:  cpu time    0.0079: real time    0.0079
    OFIELD:  cpu time    0.0001: real time    0.0001

 ---------------------------------------------------------------------------------------------

         DFTD3 V3.0 Rev 1        
 Edisp (eV)  -38.81498

 E6    (eV) :   -14.3232
 E8    (eV) :   -24.4918
 % E8        : 63.10
    FORVDW:  cpu time    0.4141: real time    0.4161

  FORCE on cell =-STRESS in cart. coord.  units (eV):
  Direction    XX          YY          ZZ          XY          YZ          ZX
  --------------------------------------------------------------------------------------
  Alpha Z  2023.78361  2023.78361  2023.78361
  Ewald  162354.46349162366.97059************    -6.64122    -2.77182     1.18571
  Hartree173304.18275173305.80642************    -0.64773    -0.34666     0.13867
  E(xc)   -2862.23156 -2862.09031 -2887.72998    -0.08000    -0.03272     0.01414
  Local  ************************357781.46517     4.40867     1.98775    -0.82475
  n-local   571.81167   571.17861   297.70764     0.32387     0.14479    -0.06841
  augment  3253.30024  3253.28978  3535.67134     0.04033     0.01117    -0.00144
  Kinetic  9174.27109  9169.80313  9765.34379     2.60984     1.02100    -0.45129
  Fock        0.00000     0.00000     0.00000     0.00000     0.00000     0.00000
  vdW       -53.66318   -53.64444   -29.14338    -0.01153    -0.00616    -0.00122
  -------------------------------------------------------------------------------------
  Total      84.19180    84.21493    -1.06928     0.00224     0.00735    -0.00858
  in kB      69.83801    69.85720    -0.88698     0.00186     0.00609    -0.00712
  external pressure =       46.27 kB  Pullay stress =        0.00 kB


 VOLUME and BASIS-vectors are now :
 -----------------------------------------------------------------------------
  energy-cutoff  :      550.00
  volume of cell :     1931.47
      direct lattice vectors                 reciprocal lattice vectors
    10.560000420  0.000000000  0.000000000     0.094696966  0.054673319  0.000000000
    -5.280000210  9.145228627  0.000000000     0.000000000  0.109346638  0.000000000
     0.000000000  0.000000000 20.000000000     0.000000000  0.000000000  0.050000000

  length of vectors
    10.560000420 10.560000420 20.000000000     0.109346638  0.109346638  0.050000000


 FORCES acting on ions
    electron-ion (+dipol)            ewald-force                    non-local-force                 convergence-correction
 -----------------------------------------------------------------------------------------------
   0.572E-01 0.202E+00 0.231E+04   -.605E-01 -.188E+00 -.231E+04   -.270E-03 -.727E-02 -.127E+00   0.619E-02 -.104E-01 -.906E-02
   -.513E-01 -.272E+00 0.784E+03   0.624E-01 0.260E+00 -.783E+03   -.256E-02 0.119E-01 -.373E+00   -.741E-02 0.647E-02 0.126E-01
   0.102E+01 0.310E+00 -.769E+03   -.104E+01 -.301E+00 0.769E+03   0.199E-01 -.398E-02 0.368E+00   0.199E-02 -.430E-02 -.308E-01
   0.221E+01 0.398E+01 -.230E+04   -.220E+01 -.397E+01 0.230E+04   -.227E-02 -.111E-01 0.124E+00   -.129E-01 -.354E-02 0.128E-01
   0.165E+00 0.151E-01 0.231E+04   -.165E+00 -.135E-01 -.231E+04   -.581E-02 0.146E-02 -.147E+00   0.373E-02 0.114E-02 -.105E-01
   -.222E+00 0.164E+00 0.784E+03   0.212E+00 -.163E+00 -.784E+03   0.688E-02 -.455E-02 -.356E+00   0.568E-02 0.128E-02 0.203E-01
   0.497E+00 0.132E+01 -.770E+03   -.486E+00 -.135E+01 0.770E+03   -.399E-03 0.270E-01 0.390E+00   -.109E-01 -.273E-02 -.276E-01
   0.577E+01 0.206E+01 -.230E+04   -.576E+01 -.206E+01 0.230E+04   -.560E-02 0.256E-03 0.139E+00   -.862E-02 -.104E-01 0.140E-01
   0.298E-01 0.106E+00 0.231E+04   -.294E-01 -.102E+00 -.231E+04   -.167E-02 -.842E-02 -.195E+00   0.153E-02 -.129E-02 -.870E-02
   0.381E+00 0.273E-02 0.783E+03   -.390E+00 -.188E-02 -.783E+03   0.537E-02 -.418E-02 -.359E+00   0.480E-02 0.123E-02 0.112E-01
   -.103E+01 0.113E+01 -.770E+03   0.102E+01 -.114E+01 0.770E+03   -.264E-02 0.109E-01 0.367E+00   0.114E-01 -.746E-02 -.196E-01
   0.427E+01 0.730E+01 -.229E+04   -.430E+01 -.735E+01 0.229E+04   0.269E-01 0.506E-01 0.344E+00   -.318E-02 0.671E-03 0.290E-01
   -.256E-02 0.232E+00 0.231E+04   0.742E-02 -.220E+00 -.231E+04   -.359E-03 -.458E-02 -.124E+00   -.605E-02 -.101E-01 -.125E-01
   0.252E+00 0.524E-01 0.784E+03   -.257E+00 -.538E-01 -.783E+03   0.352E-02 0.603E-02 -.365E+00   0.109E-02 -.234E-02 0.189E-01
   -.226E+00 0.167E+00 -.768E+03   0.240E+00 -.174E+00 0.768E+03   -.110E-01 0.359E-02 0.335E+00   -.855E-02 0.589E-02 -.390E-01
   -.956E+00 0.629E+01 -.230E+04   0.954E+00 -.627E+01 0.230E+04   0.108E-02 -.184E-01 0.124E+00   0.272E-02 -.789E-02 0.135E-01
   -.620E-01 0.733E-01 0.231E+04   0.648E-01 -.660E-01 -.231E+04   -.623E-03 -.313E-02 -.139E+00   -.477E-02 -.664E-02 -.125E-01
   0.970E-01 0.115E+00 0.783E+03   -.103E+00 -.103E+00 -.783E+03   0.637E-03 -.398E-02 -.353E+00   0.390E-02 -.902E-02 0.250E-01
   -.150E+01 0.310E+00 -.770E+03   0.151E+01 -.301E+00 0.770E+03   -.973E-02 -.209E-02 0.364E+00   0.662E-02 -.735E-02 -.211E-01
   -.183E+01 0.135E+01 -.230E+04   0.181E+01 -.134E+01 0.230E+04   0.223E-02 -.439E-02 0.123E+00   0.153E-01 -.444E-02 0.139E-01
   -.115E+00 0.543E-01 0.231E+04   0.116E+00 -.549E-01 -.231E+04   0.517E-02 -.295E-02 -.159E+00   -.474E-02 0.275E-02 -.116E-01
   -.296E+00 -.119E+00 0.783E+03   0.300E+00 0.118E+00 -.783E+03   -.212E-02 -.535E-02 -.342E+00   0.118E-03 0.701E-02 0.105E-01
   -.298E+00 0.155E+00 -.772E+03   0.288E+00 -.143E+00 0.772E+03   -.105E-02 0.112E-02 0.356E+00   0.106E-01 -.120E-01 -.152E-01
   -.772E+01 0.435E+01 -.230E+04   0.773E+01 -.436E+01 0.230E+04   -.116E-01 0.856E-02 0.165E+00   0.316E-02 -.369E-02 0.209E-01
   -.804E-01 0.176E-01 0.231E+04   0.796E-01 -.212E-01 -.231E+04   0.220E-02 0.233E-02 -.138E+00   -.509E-03 0.518E-02 -.135E-01
   0.144E+00 0.152E+00 0.784E+03   -.128E+00 -.160E+00 -.783E+03   -.106E-01 -.383E-02 -.371E+00   -.110E-01 0.710E-02 0.117E-01
   0.836E+00 0.580E+00 -.771E+03   -.830E+00 -.574E+00 0.771E+03   0.371E-02 0.359E-02 0.356E+00   -.112E-01 -.104E-01 -.200E-01
   -.215E+01 0.819E+00 -.230E+04   0.213E+01 -.804E+00 0.230E+04   0.502E-02 0.321E-03 0.125E+00   0.842E-02 -.147E-01 0.162E-01
   0.691E-02 0.841E-02 0.231E+04   -.108E-01 -.204E-02 -.231E+04   0.516E-03 -.481E-03 -.156E+00   0.464E-02 -.700E-02 -.876E-02
   -.300E+00 0.163E+00 0.783E+03   0.299E+00 -.159E+00 -.783E+03   -.609E-03 -.291E-03 -.352E+00   0.198E-02 -.409E-02 0.186E-01
   0.703E+00 0.208E+00 -.771E+03   -.708E+00 -.194E+00 0.771E+03   0.204E-02 -.237E-02 0.349E+00   0.951E-04 -.134E-01 -.177E-01
   0.563E+00 -.428E+00 -.231E+04   -.557E+00 0.427E+00 0.231E+04   -.390E-03 0.630E-03 0.136E+00   -.511E-02 -.266E-03 0.671E-02
   0.515E-01 -.529E-01 0.231E+04   -.438E-01 0.350E-01 -.231E+04   -.215E-02 -.706E-03 -.117E+00   -.352E-02 0.129E-01 -.139E-01
   0.234E+00 -.358E+00 0.783E+03   -.244E+00 0.360E+00 -.783E+03   0.571E-02 -.336E-02 -.359E+00   0.512E-02 0.102E-02 0.114E-01
   0.122E+00 0.646E+00 -.772E+03   -.120E+00 -.651E+00 0.771E+03   -.159E-02 0.581E-02 0.331E+00   -.926E-03 -.322E-02 -.204E-01
   0.218E+01 -.979E+00 -.230E+04   -.217E+01 0.977E+00 0.230E+04   -.843E-02 0.489E-02 0.119E+00   -.141E-02 -.878E-03 0.180E-01
   0.280E-02 -.608E-02 0.231E+04   -.694E-02 0.917E-02 -.231E+04   -.116E-02 0.119E-02 -.122E+00   -.250E-04 -.697E-05 -.111E-01
   -.866E-01 0.377E+00 0.783E+03   0.841E-01 -.377E+00 -.783E+03   0.454E-02 0.375E-02 -.342E+00   -.104E-02 -.670E-02 0.119E-01
   0.117E+01 -.672E+00 -.771E+03   -.119E+01 0.676E+00 0.771E+03   0.129E-01 -.732E-02 0.356E+00   0.146E-02 0.521E-02 -.193E-01
   -.627E+00 0.424E+00 -.231E+04   0.626E+00 -.423E+00 0.231E+04   0.240E-02 -.211E-02 0.119E+00   -.296E-03 0.141E-02 0.152E-01
   0.626E-01 -.217E-01 0.231E+04   -.470E-01 0.212E-01 -.231E+04   -.797E-03 0.267E-02 -.118E+00   -.909E-02 -.114E-02 -.129E-01
   0.123E+00 0.803E+00 0.783E+03   -.114E+00 -.799E+00 -.783E+03   -.227E-02 -.111E-02 -.342E+00   -.694E-02 -.927E-02 0.678E-02
   0.289E+00 -.995E+00 -.769E+03   -.306E+00 0.100E+01 0.769E+03   0.124E-01 -.163E-01 0.374E+00   0.522E-02 0.616E-02 -.308E-01
   0.201E+01 -.131E+01 -.230E+04   -.201E+01 0.130E+01 0.230E+04   -.768E-02 0.392E-02 0.114E+00   0.346E-02 0.516E-02 0.163E-01
   0.218E+00 -.135E+00 0.231E+04   -.219E+00 0.132E+00 -.231E+04   -.710E-02 0.429E-02 -.145E+00   -.303E-03 0.443E-02 -.930E-02
   0.324E+00 -.214E+00 0.784E+03   -.322E+00 0.209E+00 -.783E+03   0.237E-03 0.490E-03 -.323E+00   -.526E-02 0.632E-02 0.769E-02
   0.210E+00 -.721E+00 -.771E+03   -.224E+00 0.719E+00 0.771E+03   0.222E-02 0.118E-03 0.347E+00   0.119E-01 0.613E-02 -.177E-01
   0.804E+01 -.442E+01 -.230E+04   -.805E+01 0.442E+01 0.230E+04   -.195E-02 -.110E-02 0.148E+00   -.110E-03 0.346E-02 0.158E-01
   -.893E-01 -.947E-01 0.231E+04   0.864E-01 0.886E-01 -.231E+04   0.591E-02 0.586E-02 -.191E+00   0.203E-02 0.353E-02 -.715E-02
   -.580E+00 -.475E+00 0.783E+03   0.586E+00 0.465E+00 -.783E+03   -.890E-03 0.195E-02 -.340E+00   -.398E-03 0.107E-01 0.689E-02
   -.113E+00 -.106E+01 -.771E+03   0.115E+00 0.106E+01 0.771E+03   -.280E-03 -.364E-02 0.355E+00   -.114E-02 0.111E-01 -.210E-01
   -.445E+01 -.713E+01 -.229E+04   0.447E+01 0.718E+01 0.229E+04   -.187E-01 -.521E-01 0.318E+00   -.349E-02 0.484E-02 0.273E-01
   0.635E-01 -.150E+00 0.231E+04   -.643E-01 0.149E+00 -.231E+04   -.377E-02 0.441E-02 -.145E+00   0.649E-03 -.360E-02 -.804E-02
   0.143E-01 0.189E-01 0.783E+03   -.872E-02 -.174E-01 -.783E+03   -.680E-02 0.383E-02 -.348E+00   0.532E-03 -.529E-02 0.203E-01
   -.968E+00 -.108E+01 -.770E+03   0.997E+00 0.108E+01 0.770E+03   -.215E-01 -.123E-01 0.384E+00   -.713E-02 0.133E-01 -.293E-01
   0.111E+01 -.614E+01 -.230E+04   -.111E+01 0.613E+01 0.230E+04   -.358E-02 0.490E-02 0.124E+00   0.277E-02 0.136E-01 0.985E-02
   -.127E+00 -.137E+00 0.231E+04   0.116E+00 0.135E+00 -.231E+04   0.561E-02 0.451E-02 -.127E+00   0.845E-02 -.239E-02 -.754E-02
   -.425E-01 -.148E+00 0.783E+03   0.323E-01 0.153E+00 -.783E+03   0.351E-02 0.201E-02 -.353E+00   0.698E-02 -.499E-02 0.255E-01
   -.485E+00 -.419E+00 -.772E+03   0.491E+00 0.415E+00 0.771E+03   -.555E-02 -.216E-02 0.331E+00   0.464E-03 0.775E-02 -.214E-01
   -.248E+01 -.393E+01 -.230E+04   0.248E+01 0.391E+01 0.230E+04   0.845E-02 0.687E-02 0.122E+00   -.596E-02 0.127E-01 0.123E-01
   -.183E+00 -.108E+00 0.231E+04   0.178E+00 0.955E-01 -.231E+04   0.384E-02 0.210E-02 -.126E+00   0.181E-02 0.125E-01 -.120E-01
   0.703E-02 -.271E+00 0.784E+03   -.588E-02 0.274E+00 -.783E+03   -.343E-02 -.538E-02 -.366E+00   0.102E-02 0.188E-02 0.179E-01
   -.222E+00 0.119E+00 -.771E+03   0.232E+00 -.124E+00 0.771E+03   -.505E-03 0.156E-02 0.334E+00   -.965E-02 0.395E-02 -.234E-01
   -.597E+01 -.225E+01 -.230E+04   0.596E+01 0.224E+01 0.230E+04   0.162E-01 0.830E-02 0.137E+00   0.524E-02 0.394E-02 0.156E-01
   0.837E+01 -.183E+02 -.201E+03   -.104E+02 0.228E+02 0.200E+03   0.205E+01 -.452E+01 0.792E+00   -.833E-04 0.186E-03 0.320E-03
   -.836E+01 0.183E+02 -.200E+03   0.104E+02 -.228E+02 0.201E+03   -.205E+01 0.452E+01 -.803E+00   0.277E-04 -.182E-03 0.399E-03
 -----------------------------------------------------------------------------------------------
   -.180E-02 -.980E-03 -.155E+00   -.444E-13 -.242E-12 0.321E-11   0.318E-02 0.958E-03 0.248E+00   -.663E-03 -.588E-04 -.479E-01
 
 
 POSITION                                       TOTAL-FORCE (eV/Angst)
 -----------------------------------------------------------------------------------
     10.55998      0.00001      1.11585         0.002590     -0.003630     -0.001256
      2.64001      1.52376      3.54829         0.001014      0.006970      0.003130
     -0.00054      3.04850      5.94847         0.004588      0.001415     -0.005875
     -0.00010     -0.00000      8.37988        -0.000266     -0.002154      0.002830
      9.23998      2.28632      1.11585        -0.002291      0.004228     -0.000326
      1.31965      3.81071      3.54751         0.002544     -0.002158      0.000412
      1.32021      0.76185      5.94808        -0.000435      0.000259     -0.004523
     -1.32026      2.28613      8.37994        -0.002886     -0.001092      0.006118
      1.31998      2.28632      1.11585         0.000195     -0.006078     -0.002835
     -1.31979      3.81038      3.54889         0.000550     -0.002132      0.006376
      3.95965      0.76210      5.94772         0.001853     -0.002120     -0.007554
      1.31952      2.28595      8.37833         0.000272      0.000458     -0.012219
      2.63998      0.00001      1.11585        -0.001529     -0.002795     -0.005864
      0.00007      1.52411      3.54813        -0.000002      0.002378      0.001957
      2.64057      3.04816      5.94922        -0.005406      0.002887     -0.003462
      2.64016      0.00009      8.38035         0.000613     -0.001276      0.009186
      5.27998      0.00001      1.11585        -0.002657     -0.002562     -0.004088
      7.91999      1.52422      3.54841        -0.001070     -0.001018      0.003365
      5.27987      3.04869      5.94783         0.002939     -0.000407     -0.007173
      5.28004     -0.00001      8.37975         0.000053     -0.001950      0.000823
      3.95998      2.28632      1.11585         0.001191     -0.000757      0.001144
      6.59985      3.81027      3.54847         0.002118      0.000640      0.002766
      6.60007      0.76206      5.94841        -0.000280      0.000213     -0.002166
      3.96089      2.28583      8.37963         0.001048     -0.001150      0.002497
      6.59998      2.28632      1.11585         0.000851      0.003942     -0.003752
      3.96029      3.81067      3.54836        -0.005335     -0.004321      0.003797
      9.24019      0.76214      5.94814        -0.000956     -0.000885     -0.004191
      6.60002      2.28626      8.37968         0.001800      0.000622      0.000439
      7.91998      0.00001      1.11585         0.001242     -0.001112     -0.006620
      5.27992      1.52426      3.54839         0.000693     -0.000026      0.002541
      7.92017      3.04856      5.94814        -0.003131     -0.001462     -0.002982
      2.64001      9.14520      8.38005        -0.000063     -0.000257      0.005954
      7.91998      4.57263      1.11585         0.002031     -0.005576      0.002954
      0.00023      6.09665      3.54893         0.001431      0.000123      0.006026
     -2.63994      7.62106      5.94777        -0.000429     -0.001937     -0.007117
     -2.63979      4.57262      8.37973        -0.001191      0.001336      0.000236
      6.59998      6.85894      1.11585        -0.005310      0.004258      0.012977
     -1.31994      8.38343      3.54849         0.001093     -0.003084      0.002576
     -1.31993      5.33468      5.94756        -0.001978      0.001505     -0.008222
     -3.95996      6.85891      8.37973         0.000652     -0.000272     -0.000809
     -1.32002      6.85894      1.11585         0.005611      0.001000      0.004213
     -3.95997      8.38403      3.54880        -0.000611     -0.005433      0.004556
      1.31972      5.33524      5.94830         0.000864     -0.004015     -0.006195
     -1.31992      6.85876      8.37973        -0.001446      0.000338     -0.000241
     -0.00002      4.57263      1.11585        -0.008276      0.004951     -0.006181
     -2.63979      6.09665      3.54806        -0.003063      0.001698     -0.002427
      0.00002      7.62083      5.94811        -0.000201      0.003832     -0.002609
     -0.00023      4.57274      8.37997         0.000035      0.000750      0.005900
      2.63998      4.57263      1.11585         0.004914      0.003225     -0.003293
      5.27933      6.09636      3.54866         0.004155      0.002710      0.003081
      2.64004      7.62084      5.94815         0.000179      0.001965     -0.003516
      2.64013      4.57322      8.37843        -0.000889      0.000236     -0.011059
      1.31998      6.85894      1.11585        -0.003973     -0.000439     -0.000573
      3.95993      8.38317      3.54860        -0.000685      0.000059      0.004147
      3.96029      5.33473      5.94805         0.000120      0.000752     -0.005505
      1.32001      6.85926      8.38019        -0.000670      0.002683      0.008407
      3.95998      6.85894      1.11585         0.003045     -0.000125      0.000171
      1.31998      8.38311      3.54844         0.000272      0.001429      0.003370
      6.60001      5.33467      5.94779         0.001485      0.001885     -0.007417
      3.95998      6.85899      8.37983         0.001473      0.001499      0.001986
      5.27998      4.57263      1.11585         0.001414      0.001619     -0.004542
      2.64003      6.09675      3.54826        -0.001269     -0.000885      0.001823
      5.27995      7.62105      5.94787         0.000362      0.000009     -0.005137
      5.27992      4.57242      8.38014         0.001707      0.000360      0.006724
      1.84074      3.76129     11.34119        -0.003747      0.004731      0.007399
      2.14772      3.08474     11.46103         0.003045     -0.005855      0.019845
 -----------------------------------------------------------------------------------
    total drift:                                0.000714     -0.000080      0.045218


--------------------------------------------------------------------------------------------------------



  FREE ENERGIE OF THE ION-ELECTRON SYSTEM (eV)
  ---------------------------------------------------
  free  energy   TOTEN  =      -411.85187209 eV

  energy  without entropy=     -411.65217364  energy(sigma->0) =     -411.78530594
 
 d Force = 0.5901177E-03[-0.119E-03, 0.130E-02]  d Energy = 0.5852350E-03 0.488E-05
 d Force = 0.1311940E+02[ 0.131E+02, 0.131E+02]  d Ewald  = 0.1311940E+02-0.220E-05


--------------------------------------------------------------------------------------------------------


    POTLOK:  cpu time    0.2225: real time    0.2231


--------------------------------------------------------------------------------------------------------


 Conjugate gradient step on ions:
 trial-energy change:   -0.000585  1 .order   -0.000590   -0.001299    0.000119
  (g-gl).g = 0.168E-02      g.g   = 0.151E-02  gl.gl    = 0.555E-02
 g(Force)  = 0.151E-02   g(Stress)= 0.000E+00 ortho     =-0.172E-03
 gamma     =   0.30251
 trial     =   0.89315
 opt step  =   0.81842  (harmonic =   0.81842) maximal distance =0.00197713
 next E    =  -411.851882   (d E  =  -0.00060)


--------------------------------------------------------------------------------------------------------


  
 reached required accuracy - stopping structural energy minimisation
     LOOP+:  cpu time  199.5933: real time  200.0809
    4ORBIT:  cpu time    0.0000: real time    0.0000

 total amount of memory used by VASP MPI-rank0   141000. kBytes
=======================================================================

   base      :      30000. kBytes
   nonlr-proj:      31089. kBytes
   fftplans  :      17093. kBytes
   grid      :      26437. kBytes
   one-center:        264. kBytes
   wavefun   :      36117. kBytes
 
  
  
 General timing and accounting informations for this job:
 ========================================================
  
                  Total CPU time used (sec):     1310.182
                            User time (sec):     1305.063
                          System time (sec):        5.118
                         Elapsed time (sec):     1316.608
  
                   Maximum memory used (kb):      486412.
                   Average memory used (kb):           0.
  
                          Minor page faults:       829707
                          Major page faults:            0
                 Voluntary context switches:         2695
