 vasp.5.4.4.18Apr17-6-g9f103f2a35 (build Nov 30 2020 22:55:02) complex          
  
 executed on             LinuxIFC date 2023.07.28  20:16:56
 running on   40 total cores
 distrk:  each k-point on   40 cores,    1 groups
 distr:  one band on NCORES_PER_BAND=   4 cores,   10 groups


--------------------------------------------------------------------------------------------------------


 INCAR:
 POTCAR:    PAW_PBE Pt 04Feb2005                  
 POTCAR:    PAW_PBE Pt 04Feb2005                  
   VRHFIN =Pt: s1d9                                                             
   LEXCH  = PE                                                                  
   EATOM  =   729.1176 eV,   53.5886 Ry                                         
                                                                                
   TITEL  = PAW_PBE Pt 04Feb2005                                                
   LULTRA =        F    use ultrasoft PP ?                                      
   IUNSCR =        1    unscreen: 0-lin 1-nonlin 2-no                           
   RPACOR =    2.330    partial core radius                                     
   POMASS =  195.080; ZVAL   =   10.000    mass and valenz                      
   RCORE  =    2.600    outmost cutoff radius                                   
   RWIGS  =    2.750; RWIGS  =    1.455    wigner-seitz radius (au A)           
   ENMAX  =  230.283; ENMIN  =  172.712 eV                                      
   ICORE  =        3    local potential                                         
   LCOR   =        T    correct aug charges                                     
   LPAW   =        T    paw PP                                                  
   EAUG   =  358.966                                                            
   DEXC   =    0.000                                                            
   RMAX   =    2.658    core radius for proj-oper                               
   RAUG   =    1.300    factor for augmentation sphere                          
   RDEP   =    2.761    radius for radial grids                                 
   RDEPT  =    2.203    core radius for aug-charge                              
                                                                                
   Atomic configuration                                                         
   16 entries                                                                   
     n  l   j            E        occ.                                          
     1  0  0.50    -78401.1885   2.0000                                         
     2  0  0.50    -13770.7750   2.0000                                         
     2  1  1.50    -11931.0468   6.0000                                         
     3  0  0.50     -3234.7234   2.0000                                         
     3  1  1.50     -2699.2216   6.0000                                         
     3  2  2.50     -2119.5714  10.0000                                         
     4  0  0.50      -695.1528   2.0000                                         
     4  1  1.50      -519.6034   6.0000                                         
     4  2  2.50      -306.6786  10.0000                                         
     4  3  3.50       -70.1041  14.0000                                         
     5  0  0.50      -101.7747   2.0000                                         
     5  1  1.50       -55.9873   6.0000                                         
     5  2  2.50        -6.1423   9.0000                                         
     6  0  0.50        -5.6573   1.0000                                         
     6  1  1.50        -6.8029   0.0000                                         
     5  3  2.50        -1.3606   0.0000                                         
   Description                                                                  
     l       E           TYP  RCUT    TYP  RCUT                                 
     2     -6.1423404     23  2.500                                             
     2     -7.5029230     23  2.500                                             
     0     -5.6573207     23  2.500                                             
     0      0.7416693     23  2.500                                             
     1     -2.7211652     23  2.600                                             
     1     20.4087390     23  2.600                                             
     3     -1.3605826     23  2.500                                             
  local pseudopotential read in
  partial core-charges read in
  partial kinetic energy density read in
  atomic valenz-charges read in
  non local Contribution for L=           2  read in
    real space projection operators read in
  non local Contribution for L=           2  read in
    real space projection operators read in
  non local Contribution for L=           0  read in
    real space projection operators read in
  non local Contribution for L=           0  read in
    real space projection operators read in
  non local Contribution for L=           1  read in
    real space projection operators read in
  non local Contribution for L=           1  read in
    real space projection operators read in
    PAW grid and wavefunctions read in
 
   number of l-projection  operators is LMAX  =           6
   number of lm-projection operators is LMMAX =          18
 
 Optimization of the real space projectors (new method)

 maximal supplied QI-value         = 14.36
 optimisation between [QCUT,QGAM] = [ 11.92, 23.98] = [ 39.79,161.09] Ry 
 Optimized for a Real-space Cutoff    1.49 Angstroem

   l    n(q)    QCUT    max X(q) W(low)/X(q) W(high)/X(q)  e(spline) 
   2     10    11.920    66.195    0.79E-04    0.18E-03    0.24E-06
   2     10    11.920    64.643    0.81E-04    0.19E-03    0.24E-06
   0     11    11.920    95.520    0.28E-04    0.54E-04    0.18E-06
   0     11    11.920    63.403    0.27E-04    0.52E-04    0.17E-06
   1     10    11.920    19.961    0.18E-04    0.11E-03    0.23E-06
   1     10    11.920    13.289    0.25E-04    0.87E-04    0.19E-06
  PAW_PBE Pt 04Feb2005                  :
 energy of atom  1       EATOM= -729.1176
 kinetic energy error for atom=    0.0021 (will be added to EATOM!!)
 
 
 POSCAR: Pt111\(1\1\1)\(2)                       
  positions in direct lattice
  No initial velocities read in
 exchange correlation table for  LEXCH =        8
   RHO(1)=    0.500       N(1)  =     2000
   RHO(2)=  100.500       N(2)  =     4000
 


--------------------------------------------------------------------------------------------------------


 ion  position               nearest neighbor table
   1  0.000  0.000  0.066-   5 2.64   9 2.64  13 2.64  29 2.64  37 2.64  57 2.64  42 2.75  14 2.75
                            54 2.75
   2  0.333  0.167  0.180-  30 2.64  26 2.64  38 2.64  42 2.64  14 2.64   6 2.64  15 2.75   7 2.75
                             9 2.75  21 2.75  13 2.75  11 2.75
   3  0.167  0.333  0.295-  39 2.64  27 2.64  43 2.64   7 2.64  15 2.64  31 2.64  14 2.75   6 2.75
                            12 2.75   8 2.75  48 2.75  10 2.75
   4  0.000  0.000  0.409-   8 2.64  12 2.64  16 2.64  32 2.64  40 2.64  60 2.64  27 2.75   7 2.75
                            63 2.75
   5  1.000  0.250  0.066-   1 2.64  45 2.64  33 2.64   9 2.64  29 2.64  25 2.64  14 2.75  10 2.75
                            18 2.75
   6  0.333  0.417  0.180-  26 2.64  62 2.64  10 2.64  34 2.64  14 2.64   2 2.64  43 2.75   3 2.75
                            45 2.75  49 2.75   9 2.75  15 2.75
   7  0.167  0.083  0.295-  27 2.64  15 2.64   3 2.64  63 2.64  11 2.64  35 2.64  42 2.75   2 2.75
                            16 2.75   4 2.75  12 2.75  14 2.75
   8  1.000  0.250  0.409-   4 2.64  48 2.64  36 2.64  12 2.64  32 2.64  28 2.64  31 2.75   3 2.75
                            27 2.75
   9  0.250  0.250  0.066-  21 2.64  13 2.64  49 2.64   1 2.64  45 2.64   5 2.64   2 2.75  14 2.75
                             6 2.75
  10  0.083  0.417  0.180-  34 2.64   6 2.64  46 2.64  14 2.64  18 2.64  22 2.64  39 2.75  31 2.75
                            33 2.75  45 2.75   5 2.75   3 2.75
  11  0.417  0.083  0.295-  19 2.64  15 2.64   7 2.64  47 2.64  35 2.64  23 2.64  30 2.75  38 2.75
                            20 2.75  16 2.75  24 2.75   2 2.75
  12  0.250  0.250  0.409-  24 2.64  16 2.64  52 2.64   4 2.64  48 2.64   8 2.64   3 2.75  15 2.75
                             7 2.75
  13  0.250  0.000  0.066-  21 2.64   9 2.64  17 2.64   1 2.64  37 2.64  41 2.64  38 2.75   2 2.75
                            42 2.75
  14  0.083  0.167  0.180-  42 2.64  54 2.64   6 2.64   2 2.64  10 2.64  18 2.64  27 2.75   3 2.75
                             5 2.75   1 2.75   9 2.75   7 2.75
  15  0.417  0.333  0.295-  43 2.64   7 2.64   3 2.64  11 2.64  55 2.64  19 2.64  26 2.75   2 2.75
                            24 2.75  12 2.75  52 2.75   6 2.75
  16  0.250  0.000  0.409-  24 2.64  12 2.64  20 2.64   4 2.64  40 2.64  44 2.64   7 2.75  11 2.75
                            35 2.75
  17  0.500  0.000  0.066-  29 2.64  25 2.64  13 2.64  21 2.64  41 2.64  53 2.64  58 2.75  30 2.75
                            38 2.75
  18  0.833  0.167  0.180-  54 2.64  58 2.64  22 2.64  30 2.64  10 2.64  14 2.64  23 2.75  31 2.75
                            25 2.75  29 2.75   5 2.75  27 2.75
  19  0.667  0.333  0.295-  55 2.64  31 2.64  59 2.64  11 2.64  23 2.64  15 2.64  22 2.75  30 2.75
                            28 2.75  64 2.75  24 2.75  26 2.75
  20  0.500  0.000  0.409-  32 2.64  28 2.64  16 2.64  24 2.64  44 2.64  56 2.64  11 2.75  23 2.75
                            47 2.75
  21  0.500  0.250  0.066-  25 2.64  61 2.64   9 2.64  13 2.64  49 2.64  17 2.64  30 2.75   2 2.75
                            26 2.75
  22  0.833  0.417  0.180-  50 2.64  26 2.64  30 2.64  18 2.64  46 2.64  10 2.64  19 2.75  59 2.75
                            61 2.75  25 2.75  33 2.75  31 2.75
  23  0.667  0.083  0.295-  27 2.64  31 2.64  19 2.64  51 2.64  47 2.64  11 2.64  18 2.75  58 2.75
                            32 2.75  28 2.75  20 2.75  30 2.75
  24  0.500  0.250  0.409-  28 2.64  64 2.64  12 2.64  16 2.64  52 2.64  20 2.64  15 2.75  11 2.75
                            19 2.75
  25  0.750  0.250  0.066-  21 2.64  17 2.64  29 2.64  61 2.64  33 2.64   5 2.64  18 2.75  22 2.75
                            30 2.75
  26  0.583  0.417  0.180-   6 2.64   2 2.64  22 2.64  30 2.64  62 2.64  50 2.64  55 2.75  15 2.75
                            49 2.75  61 2.75  21 2.75  19 2.75
  27  0.917  0.083  0.295-  23 2.64   7 2.64   3 2.64  51 2.64  31 2.64  63 2.64  54 2.75  14 2.75
                             4 2.75   8 2.75  32 2.75  18 2.75
  28  0.750  0.250  0.409-  24 2.64  20 2.64  32 2.64  64 2.64  36 2.64   8 2.64  19 2.75  23 2.75
                            31 2.75
  29  0.750  0.000  0.066-  17 2.64  25 2.64   5 2.64  53 2.64   1 2.64  57 2.64  54 2.75  18 2.75
                            58 2.75
  30  0.583  0.167  0.180-   2 2.64  38 2.64  58 2.64  26 2.64  22 2.64  18 2.64  11 2.75  21 2.75
                            19 2.75  17 2.75  25 2.75  23 2.75
  31  0.917  0.333  0.295-  59 2.64  19 2.64  23 2.64  39 2.64   3 2.64  27 2.64  18 2.75  10 2.75
                             8 2.75  36 2.75  28 2.75  22 2.75
  32  0.750  0.000  0.409-  20 2.64  28 2.64   8 2.64  56 2.64   4 2.64  60 2.64  23 2.75  27 2.75
                            51 2.75
  33  1.000  0.500  0.066-  37 2.64  41 2.64   5 2.64  45 2.64  25 2.64  61 2.64  10 2.75  46 2.75
                            22 2.75
  34  0.333  0.667  0.180-  62 2.64  10 2.64  58 2.64  46 2.64   6 2.64  38 2.64  47 2.75  39 2.75
                            41 2.75  45 2.75  53 2.75  43 2.75
  35  0.167  0.833  0.295-  63 2.64  59 2.64   7 2.64  11 2.64  47 2.64  39 2.64  46 2.75  38 2.75
                            44 2.75  40 2.75  16 2.75  42 2.75
  36  1.000  0.500  0.409-  40 2.64  44 2.64   8 2.64  48 2.64  28 2.64  64 2.64  59 2.75  39 2.75
                            31 2.75
  37  1.000  0.750  0.066-  33 2.64  41 2.64  61 2.64  57 2.64  13 2.64   1 2.64  46 2.75  50 2.75
                            42 2.75
  38  0.333  0.917  0.180-  58 2.64  30 2.64   2 2.64  42 2.64  34 2.64  46 2.64  11 2.75  35 2.75
                            13 2.75  17 2.75  41 2.75  47 2.75
  39  0.167  0.583  0.295-   3 2.64  31 2.64  59 2.64  43 2.64  47 2.64  35 2.64  10 2.75  34 2.75
                            48 2.75  36 2.75  44 2.75  46 2.75
  40  1.000  0.750  0.409-  36 2.64  44 2.64  64 2.64  60 2.64  16 2.64   4 2.64  63 2.75  35 2.75
                            59 2.75
  41  0.250  0.750  0.066-  45 2.64  33 2.64  37 2.64  53 2.64  17 2.64  13 2.64  34 2.75  46 2.75
                            38 2.75
  42  0.083  0.917  0.180-  14 2.64   2 2.64  38 2.64  46 2.64  50 2.64  54 2.64   7 2.75  63 2.75
                             1 2.75  13 2.75  37 2.75  35 2.75
  43  0.417  0.583  0.295-  15 2.64   3 2.64  39 2.64  51 2.64  47 2.64  55 2.64  62 2.75   6 2.75
                            52 2.75  56 2.75  48 2.75  34 2.75
  44  0.250  0.750  0.409-  48 2.64  36 2.64  40 2.64  56 2.64  20 2.64  16 2.64  35 2.75  39 2.75
                            47 2.75
  45  0.250  0.500  0.066-  41 2.64  53 2.64   5 2.64   9 2.64  49 2.64  33 2.64   6 2.75  10 2.75
                            34 2.75
  46  0.083  0.667  0.180-  34 2.64  50 2.64  10 2.64  42 2.64  22 2.64  38 2.64  59 2.75  35 2.75
                            37 2.75  33 2.75  41 2.75  39 2.75
  47  0.417  0.833  0.295-  39 2.64  43 2.64  11 2.64  23 2.64  35 2.64  51 2.64  58 2.75  34 2.75
                            56 2.75  44 2.75  20 2.75  38 2.75
  48  0.250  0.500  0.409-  44 2.64  56 2.64   8 2.64  12 2.64  52 2.64  36 2.64  39 2.75   3 2.75
                            43 2.75
  49  0.500  0.500  0.066-  61 2.64  53 2.64  57 2.64  21 2.64   9 2.64  45 2.64  26 2.75   6 2.75
                            62 2.75
  50  0.833  0.667  0.180-  22 2.64  46 2.64  26 2.64  42 2.64  54 2.64  62 2.64  55 2.75  63 2.75
                            57 2.75  61 2.75  37 2.75  59 2.75
  51  0.667  0.833  0.295-  63 2.64  27 2.64  43 2.64  55 2.64  23 2.64  47 2.64  54 2.75  62 2.75
                            60 2.75  32 2.75  56 2.75  58 2.75
  52  0.500  0.500  0.409-  64 2.64  56 2.64  60 2.64  24 2.64  12 2.64  48 2.64  43 2.75  15 2.75
                            55 2.75
  53  0.500  0.750  0.066-  49 2.64  57 2.64  45 2.64  41 2.64  29 2.64  17 2.64  62 2.75  34 2.75
                            58 2.75
  54  0.833  0.917  0.180-  18 2.64  14 2.64  50 2.64  58 2.64  42 2.64  62 2.64  51 2.75  27 2.75
                            29 2.75   1 2.75  57 2.75  63 2.75
  55  0.667  0.583  0.295-  19 2.64  59 2.64  63 2.64  15 2.64  51 2.64  43 2.64  50 2.75  26 2.75
                            64 2.75  60 2.75  52 2.75  62 2.75
  56  0.500  0.750  0.409-  52 2.64  60 2.64  48 2.64  44 2.64  32 2.64  20 2.64  47 2.75  43 2.75
                            51 2.75
  57  0.750  0.750  0.066-  61 2.64  49 2.64  53 2.64  37 2.64   1 2.64  29 2.64  50 2.75  62 2.75
                            54 2.75
  58  0.583  0.917  0.180-  38 2.64  30 2.64  18 2.64  34 2.64  62 2.64  54 2.64  47 2.75  23 2.75
                            17 2.75  29 2.75  53 2.75  51 2.75
  59  0.917  0.583  0.295-  31 2.64  55 2.64  19 2.64  39 2.64  35 2.64  63 2.64  22 2.75  46 2.75
                            36 2.75  40 2.75  64 2.75  50 2.75
  60  0.750  0.750  0.409-  64 2.64  52 2.64  56 2.64  40 2.64   4 2.64  32 2.64  51 2.75  55 2.75
                            63 2.75
  61  0.750  0.500  0.066-  49 2.64  57 2.64  21 2.64  25 2.64  37 2.64  33 2.64  22 2.75  26 2.75
                            50 2.75
  62  0.583  0.667  0.180-  34 2.64   6 2.64  26 2.64  58 2.64  54 2.64  50 2.64  43 2.75  53 2.75
                            51 2.75  49 2.75  57 2.75  55 2.75
  63  0.917  0.833  0.295-  51 2.64  35 2.64  55 2.64   7 2.64  59 2.64  27 2.64  50 2.75  42 2.75
                            40 2.75   4 2.75  60 2.75  54 2.75
  64  0.750  0.500  0.409-  52 2.64  60 2.64  24 2.64  28 2.64  40 2.64  36 2.64  55 2.75  19 2.75
                            59 2.75
 
  LATTYP: Found a hexagonal cell.
 ALAT       =    10.5600004196
 C/A-ratio  =     1.8939393187
  
  Lattice vectors:
  
 A1 = (  10.5600004196,   0.0000000000,   0.0000000000)
 A2 = (  -5.2800002098,   9.1452286274,   0.0000000000)
 A3 = (   0.0000000000,   0.0000000000,  20.0000000000)


Analysis of symmetry for initial positions (statically):
=====================================================================
 Subroutine PRICEL returns following result:
 
  LATTYP: Found a hexagonal cell.
 ALAT       =     2.6399995875
 C/A-ratio  =     7.5757587596
  
  Lattice vectors:
  
 A1 = (   2.6399995558,   0.0000000000,   0.0000000000)
 A2 = (  -1.3199998096,   2.2863067362,   0.0000000000)
 A3 = (   0.0000000000,   0.0000000000,  20.0000000000)
 
  16 primitive cells build up your supercell.
 

 Routine SETGRP: Setting up the symmetry group for a 
 hexagonal supercell.


 Subroutine GETGRP returns: Found  4 space group operations
 (whereof  2 operations were pure point group operations)
 out of a pool of 24 trial point group operations.


The static configuration has the point symmetry C_1h.
 The point group associated with its full space group is C_2h.


Analysis of symmetry for dynamics (positions and initial velocities):
=====================================================================
 Subroutine PRICEL returns following result:
 
  LATTYP: Found a hexagonal cell.
 ALAT       =     2.6399995875
 C/A-ratio  =     7.5757587596
  
  Lattice vectors:
  
 A1 = (   2.6399995558,   0.0000000000,   0.0000000000)
 A2 = (  -1.3199998096,   2.2863067362,   0.0000000000)
 A3 = (   0.0000000000,   0.0000000000,  20.0000000000)
 
  16 primitive cells build up your supercell.
 

 Routine SETGRP: Setting up the symmetry group for a 
 hexagonal supercell.


 Subroutine GETGRP returns: Found  4 space group operations
 (whereof  2 operations were pure point group operations)
 out of a pool of 24 trial point group operations.


The dynamic configuration has the point symmetry C_1h.
 The point group associated with its full space group is C_2h.


Analysis of structural, dynamic, and magnetic symmetry:
=====================================================================
 Subroutine PRICEL returns following result:
 
  LATTYP: Found a hexagonal cell.
 ALAT       =     2.6399995875
 C/A-ratio  =     7.5757587596
  
  Lattice vectors:
  
 A1 = (   2.6399995558,   0.0000000000,   0.0000000000)
 A2 = (  -1.3199998096,   2.2863067362,   0.0000000000)
 A3 = (   0.0000000000,   0.0000000000,  20.0000000000)
 
  16 primitive cells build up your supercell.
 

 Routine SETGRP: Setting up the symmetry group for a 
 hexagonal supercell.


 Subroutine GETGRP returns: Found  4 space group operations
 (whereof  2 operations were pure point group operations)
 out of a pool of 24 trial point group operations.


The magnetic configuration has the point symmetry C_1h.
 The point group associated with its full space group is C_2h.


 Subroutine INISYM returns: Found  4 space group operations
 (whereof  2 operations are pure point group operations),
 and found    16 'primitive' translations

 
 
 KPOINTS: mesh auto                               

Automatic generation of k-mesh.
Space group operators:
 irot       det(A)        alpha          n_x          n_y          n_z        tau_x        tau_y        tau_z
    1     1.000000     0.000000     1.000000     0.000000     0.000000     0.000000     0.000000     0.000000
    2    -1.000000   180.000000    -0.500000    -0.866025     0.000000     0.000000     0.000000     0.000000
    3    -1.000000     0.000000     1.000000     0.000000     0.000000     0.000000     0.000000     0.474820
    4     1.000000   180.000000    -0.500000    -0.866025     0.000000     0.000000     0.000000     0.474820
 
 Subroutine IBZKPT returns following result:
 ===========================================
 
 Found      3 irreducible k-points:
 
 Following reciprocal coordinates:
            Coordinates               Weight
  0.000000  0.000000  0.000000      1.000000
  0.500000 -0.000000  0.000000      2.000000
  0.500000  0.500000  0.000000      1.000000
 
 Following cartesian coordinates:
            Coordinates               Weight
  0.000000  0.000000  0.000000      1.000000
  0.047348  0.027337  0.000000      2.000000
  0.047348  0.082010  0.000000      1.000000
 


--------------------------------------------------------------------------------------------------------




 Dimension of arrays:
   k-points           NKPTS =      3   k-points in BZ     NKDIM =      3   number of bands    NBANDS=    420
   number of dos      NEDOS =    301   number of ions     NIONS =     64
   non local maximal  LDIM  =      6   non local SUM 2l+1 LMDIM =     18
   total plane-waves  NPLWV = ******
   max r-space proj   IRMAX =   8171   max aug-charges    IRDMAX=  35597
   dimension x,y,z NGX =    84 NGY =   84 NGZ =  160
   dimension x,y,z NGXF=   168 NGYF=  168 NGZF=  320
   support grid    NGXF=   168 NGYF=  168 NGZF=  320
   ions per type =              64
   NGX,Y,Z   is equivalent  to a cutoff of  13.22, 13.22, 13.30 a.u.
   NGXF,Y,Z  is equivalent  to a cutoff of  26.45, 26.45, 26.60 a.u.

 SYSTEM =  Pt111                                   
 POSCAR =  Pt111\(1\1\1)\(2)                       

 Startparameter for this run:
   NWRITE =      2    write-flag & timer
   PREC   = accura    normal or accurate (medium, high low for compatibility)
   ISTART =      0    job   : 0-new  1-cont  2-samecut
   ICHARG =      2    charge: 1-file 2-atom 10-const
   ISPIN  =      2    spin polarized calculation?
   LNONCOLLINEAR =      F non collinear calculations
   LSORBIT =      F    spin-orbit coupling
   INIWAV =      1    electr: 0-lowe 1-rand  2-diag
   LASPH  =      F    aspherical Exc in radial PAW
   METAGGA=      F    non-selfconsistent MetaGGA calc.

 Electronic Relaxation 1
   ENCUT  =  550.0 eV  40.42 Ry    6.36 a.u.  20.19 20.19 38.24*2*pi/ulx,y,z
   ENINI  =  550.0     initial cutoff
   ENAUG  =  359.0 eV  augmentation charge cutoff
   NELM   =    200;   NELMIN=  2; NELMDL= -5     # of ELM steps 
   EDIFF  = 0.1E-04   stopping-criterion for ELM
   LREAL  =      T    real-space projection
   NLSPLINE    = F    spline interpolate recip. space projectors
   LCOMPAT=      F    compatible to vasp.4.4
   GGA_COMPAT  = T    GGA compatible to vasp.4.4-vasp.4.6
   LMAXPAW     = -100 max onsite density
   LMAXMIX     =    2 max onsite mixed and CHGCAR
   VOSKOWN=      0    Vosko Wilk Nusair interpolation
   ROPT   =   -0.00025
 Ionic relaxation
   EDIFFG = -.5E-01   stopping-criterion for IOM
   NSW    =    300    number of steps for IOM
   NBLOCK =      1;   KBLOCK =    300    inner block; outer block 
   IBRION =      2    ionic relax: 0-MD 1-quasi-New 2-CG
   NFREE  =      1    steps in history (QN), initial steepest desc. (CG)
   ISIF   =      2    stress and relaxation
   IWAVPR =     11    prediction:  0-non 1-charg 2-wave 3-comb
   ISYM   =      2    0-nonsym 1-usesym 2-fastsym
   LCORR  =      T    Harris-Foulkes like correction to forces

   POTIM  = 0.5000    time-step for ionic-motion
   TEIN   =    0.0    initial temperature
   TEBEG  =    0.0;   TEEND  =   0.0 temperature during run
   SMASS  =  -3.00    Nose mass-parameter (am)
   estimated Nose-frequenzy (Omega)   =  0.10E-29 period in steps =****** mass=  -0.255E-26a.u.
   SCALEE = 1.0000    scale energy and forces
   NPACO  =    256;   APACO  = 16.0  distance and # of slots for P.C.
   PSTRESS=    0.0 pullay stress

  Mass of Ions in am
   POMASS = 195.08
  Ionic Valenz
   ZVAL   =  10.00
  Atomic Wigner-Seitz radii
   RWIGS  =  -1.00
  virtual crystal weights 
   VCA    =   1.00
   NELECT =     640.0000    total number of electrons
   NUPDOWN=      -1.0000    fix difference up-down

 DOS related values:
   EMIN   =  10.00;   EMAX   =-10.00  energy-range for DOS
   EFERMI =   0.00
   ISMEAR =     1;   SIGMA  =   0.10  broadening in eV -4-tet -1-fermi 0-gaus

 Electronic relaxation 2 (details)
   IALGO  =     68    algorithm
   LDIAG  =      T    sub-space diagonalisation (order eigenvalues)
   LSUBROT=      F    optimize rotation matrix (better conditioning)
   TURBO    =      0    0=normal 1=particle mesh
   IRESTART =      0    0=no restart 2=restart with 2 vectors
   NREBOOT  =      0    no. of reboots
   NMIN     =      0    reboot dimension
   EREF     =   0.00    reference energy to select bands
   IMIX   =      4    mixing-type and parameters
     AMIX     =   0.40;   BMIX     =  1.00
     AMIX_MAG =   1.60;   BMIX_MAG =  1.00
     AMIN     =   0.10
     WC   =   100.;   INIMIX=   1;  MIXPRE=   1;  MAXMIX= -45

 Intra band minimization:
   WEIMIN = 0.0010     energy-eigenvalue tresh-hold
   EBREAK =  0.60E-08  absolut break condition
   DEPER  =   0.30     relativ break condition  

   TIME   =   0.40     timestep for ELM

  volume/ion in A,a.u.               =      30.18       203.66
  Fermi-wavevector in a.u.,A,eV,Ry     =   1.132849  2.140774 17.460991  1.283347
  Thomas-Fermi vector in A             =   2.269551
 
 Write flags
   LWAVE        =      F    write WAVECAR
   LDOWNSAMPLE  =      F    k-point downsampling of WAVECAR
   LCHARG       =      F    write CHGCAR
   LVTOT        =      F    write LOCPOT, total local potential
   LVHAR        =      F    write LOCPOT, Hartree potential only
   LELF         =      F    write electronic localiz. function (ELF)
   LORBIT       =      0    0 simple, 1 ext, 2 COOP (PROOUT), +10 PAW based schemes


 Dipole corrections
   LMONO  =      F    monopole corrections only (constant potential shift)
   LDIPOL =      F    correct potential (dipole corrections)
   IDIPOL =      0    1-x, 2-y, 3-z, 4-all directions 
   EPSILON=  1.0000000 bulk dielectric constant

 Exchange correlation treatment:
   GGA     =    --    GGA type
   LEXCH   =     8    internal setting for exchange type
   VOSKOWN=      0    Vosko Wilk Nusair interpolation
   LHFCALC =     F    Hartree Fock is set to
   LHFONE  =     F    Hartree Fock one center treatment
   AEXX    =    0.0000 exact exchange contribution

 Linear response parameters
   LEPSILON=     F    determine dielectric tensor
   LRPA    =     F    only Hartree local field effects (RPA)
   LNABLA  =     F    use nabla operator in PAW spheres
   LVEL    =     F    velocity operator in full k-point grid
   LINTERFAST=   F  fast interpolation
   KINTER  =     0    interpolate to denser k-point grid
   CSHIFT  =0.1000    complex shift for real part using Kramers Kronig
   OMEGAMAX=  -1.0    maximum frequency
   DEG_THRESHOLD= 0.2000000E-02 threshold for treating states as degnerate
   RTIME   =   -0.100 relaxation time in fs
  (WPLASMAI=    0.000 imaginary part of plasma frequency in eV, 0.658/RTIME)
   DFIELD  = 0.0000000 0.0000000 0.0000000 field for delta impulse in time
 
 Orbital magnetization related:
   ORBITALMAG=     F  switch on orbital magnetization
   LCHIMAG   =     F  perturbation theory with respect to B field
   DQ        =  0.001000  dq finite difference perturbation B field
   LLRAUG    =     F  two centre corrections for induced B field



--------------------------------------------------------------------------------------------------------


 conjugate gradient relaxation of ions
 charge density and potential will be updated during run
 spin polarized calculation
 RMM-DIIS sequential band-by-band and
  variant of blocked Davidson during initial phase
 perform sub-space diagonalisation
    before iterative eigenvector-optimisation
 modified Broyden-mixing scheme, WC =      100.0
 initial mixing is a Kerker type mixing with AMIX =  0.4000 and BMIX =      1.0000
 Hartree-type preconditioning will be used
 using additional bands          100
 real space projection scheme for non local part
 use partial core corrections
 calculate Harris-corrections to forces 
   (improved forces if not selfconsistent)
 use gradient corrections 
 use of overlap-Matrix (Vanderbilt PP)
 Methfessel and Paxton  Order N= 1 SIGMA  =   0.10


--------------------------------------------------------------------------------------------------------


  energy-cutoff  :      550.00
  volume of cell :     1931.47
      direct lattice vectors                 reciprocal lattice vectors
    10.560000420  0.000000000  0.000000000     0.094696966  0.054673319  0.000000000
    -5.280000210  9.145228627  0.000000000     0.000000000  0.109346638  0.000000000
     0.000000000  0.000000000 20.000000000     0.000000000  0.000000000  0.050000000

  length of vectors
    10.560000420 10.560000420 20.000000000     0.109346638  0.109346638  0.050000000


 
 k-points in units of 2pi/SCALE and weight: mesh auto                               
   0.00000000  0.00000000  0.00000000       0.250
   0.04734848  0.02733666  0.00000000       0.500
   0.04734848  0.08200998  0.00000000       0.250
 
 k-points in reciprocal lattice and weights: mesh auto                               
   0.00000000  0.00000000  0.00000000       0.250
   0.50000000 -0.00000000  0.00000000       0.500
   0.50000000  0.50000000  0.00000000       0.250
 
 position of ions in fractional coordinates (direct lattice) 
   0.00000000  0.00000000  0.06560000
   0.33333000  0.16666999  0.18014001
   0.16666998  0.33332999  0.29468000
   0.00000000  0.00000000  0.40922003
   1.00000000  0.24999999  0.06560000
   0.33332999  0.41666999  0.18014001
   0.16666999  0.08332999  0.29468000
   1.00000000  0.24999999  0.40922003
   0.25000000  0.24999999  0.06560000
   0.08332999  0.41666999  0.18014001
   0.41667000  0.08332999  0.29468000
   0.25000000  0.24999999  0.40922003
   0.25000000  0.00000000  0.06560000
   0.08333000  0.16666999  0.18014001
   0.41666998  0.33332999  0.29468000
   0.25000000  0.00000000  0.40922003
   0.50000000  0.00000000  0.06560000
   0.83332996  0.16666999  0.18014001
   0.66667001  0.33332999  0.29468000
   0.50000000  0.00000000  0.40922003
   0.49999999  0.24999999  0.06560000
   0.83332995  0.41666999  0.18014001
   0.66667002  0.08332999  0.29468000
   0.49999999  0.24999999  0.40922003
   0.74999996  0.24999999  0.06560000
   0.58332995  0.41666999  0.18014001
   0.91667000  0.08332999  0.29468000
   0.74999996  0.24999999  0.40922003
   0.74999998  0.00000000  0.06560000
   0.58332994  0.16666999  0.18014001
   0.91666998  0.33332999  0.29468000
   0.74999998  0.00000000  0.40922003
   0.99999999  0.49999999  0.06560000
   0.33332998  0.66666999  0.18014001
   0.16666998  0.83332997  0.29468000
   0.99999999  0.49999999  0.40922003
   0.99999999  0.74999995  0.06560000
   0.33333000  0.91667001  0.18014001
   0.16666999  0.58332995  0.29468000
   0.99999999  0.74999995  0.40922003
   0.24999999  0.74999995  0.06560000
   0.08333000  0.91667001  0.18014001
   0.41667000  0.58332995  0.29468000
   0.24999999  0.74999995  0.40922003
   0.24999999  0.49999999  0.06560000
   0.08332998  0.66666999  0.18014001
   0.41667000  0.83332997  0.29468000
   0.24999999  0.49999999  0.40922003
   0.49999999  0.49999999  0.06560000
   0.83332998  0.66666999  0.18014001
   0.66667002  0.83332997  0.29468000
   0.49999999  0.49999999  0.40922003
   0.49999999  0.74999995  0.06560000
   0.83332998  0.91667001  0.18014001
   0.66667002  0.58332995  0.29468000
   0.49999999  0.74999995  0.40922003
   0.74999997  0.74999995  0.06560000
   0.58332996  0.91667001  0.18014001
   0.91667000  0.58332995  0.29468000
   0.74999997  0.74999995  0.40922003
   0.74999995  0.49999999  0.06560000
   0.58332994  0.66666999  0.18014001
   0.91667000  0.83332997  0.29468000
   0.74999995  0.49999999  0.40922003
 
 position of ions in cartesian coordinates  (Angst):
   0.00000000  0.00000000  1.31200004
   2.63994741  1.52423513  3.60280014
   0.00005268  3.04837895  5.89359998
   0.00000000  0.00000000  8.18440056
   9.24000037  2.28630709  1.31200004
   1.31994724  3.81054235  3.60280014
   1.32005275  0.76207185  5.89359998
   9.24000037  2.28630709  8.18440056
   1.32000006  2.28630709  1.31200004
  -1.32005287  3.81054235  3.60280014
   3.96005297  0.76207185  5.89359998
   1.32000006  2.28630709  8.18440056
   2.64000010  0.00000000  1.31200004
  -0.00005275  1.52423513  3.60280014
   2.64005279  3.04837895  5.89359998
   2.64000010  0.00000000  8.18440056
   5.28000021  0.00000000  1.31200004
   7.91994715  1.52423513  3.60280014
   5.28005314  3.04837895  5.89359998
   5.28000021  0.00000000  8.18440056
   3.96000004  2.28630709  1.31200004
   6.59994697  3.81054235  3.60280014
   6.60005332  0.76207185  5.89359998
   3.96000004  2.28630709  8.18440056
   6.59999991  2.28630709  1.31200004
   3.95994687  3.81054235  3.60280014
   9.24005318  0.76207185  5.89359998
   6.59999991  2.28630709  8.18440056
   7.92000007  0.00000000  1.31200004
   5.27994681  1.52423513  3.60280014
   7.92005300  3.04837895  5.89359998
   7.92000007  0.00000000  8.18440056
   7.92000031  4.57261419  1.31200004
  -0.00005293  6.09684944  3.60280014
  -2.63994741  7.62099313  5.89359998
   7.92000031  4.57261419  8.18440056
   6.60000038  6.85892105  1.31200004
  -1.32005286  8.38315678  3.60280014
  -1.31994712  5.33468580  5.89359998
   6.60000038  6.85892105  8.18440056
  -1.31999994  6.85892105  1.31200004
  -3.96005297  8.38315678  3.60280014
   1.32005310  5.33468580  5.89359998
  -1.31999994  6.85892105  8.18440056
  -0.00000001  4.57261419  1.31200004
  -2.64005303  6.09684944  3.60280014
   0.00005293  7.62099313  5.89359998
  -0.00000001  4.57261419  8.18440056
   2.64000010  4.57261419  1.31200004
   5.27994728  6.09684944  3.60280014
   2.64005327  7.62099313  5.89359998
   2.64000010  4.57261419  8.18440056
   1.32000017  6.85892105  1.31200004
   3.95994710  8.38315678  3.60280014
   3.96005345  5.33468580  5.89359998
   1.32000017  6.85892105  8.18440056
   3.96000004  6.85892105  1.31200004
   1.31994677  8.38315678  3.60280014
   6.60005331  5.33468580  5.89359998
   3.96000004  6.85892105  8.18440056
   5.27999973  4.57261419  1.31200004
   2.63994670  6.09684944  3.60280014
   5.28005314  7.62099313  5.89359998
   5.27999973  4.57261419  8.18440056
 


--------------------------------------------------------------------------------------------------------


 k-point  1 :   0.0000 0.0000 0.0000  plane waves:   56579
 k-point  2 :   0.5000-0.0000 0.0000  plane waves:   56606
 k-point  3 :   0.5000 0.5000 0.0000  plane waves:   56606

 maximum and minimum number of plane-waves per node :     14185    14108

 maximum number of plane-waves:     56606
 maximum index in each direction: 
   IXMAX=   20   IYMAX=   20   IZMAX=   38
   IXMIN=  -20   IYMIN=  -20   IZMIN=  -38


 real space projection operators:
  total allocation   :      70978.50 KBytes
  max/ min on nodes  :      17744.62      17744.62


 parallel 3D FFT for wavefunctions:
    minimum data exchange during FFTs selected (reduces bandwidth)
 parallel 3D FFT for charge:
    minimum data exchange during FFTs selected (reduces bandwidth)


 total amount of memory used by VASP MPI-rank0   178671. kBytes
=======================================================================

   base      :      30000. kBytes
   nonlr-proj:      30696. kBytes
   fftplans  :      17093. kBytes
   grid      :      42083. kBytes
   one-center:        497. kBytes
   wavefun   :      58302. kBytes
 
     INWAV:  cpu time    0.0000: real time    0.0000
 Broyden mixing: mesh for mixing (old mesh)
   NGX = 41   NGY = 41   NGZ = 77
  (NGX  =168   NGY  =168   NGZ  =320)
  gives a total of 129437 points

 initial charge density was supplied:
 charge density of overlapping atoms calculated
 number of electron     640.0000000 magnetization      64.0000000
 keeping initial charge density in first step


--------------------------------------------------------------------------------------------------------


 Maximum index for non-local projection operator         1996
 Maximum index for augmentation-charges         2175 (set IRDMAX)


--------------------------------------------------------------------------------------------------------


 First call to EWALD:  gamma=   0.142
 Maximum number of real-space cells 4x 4x 2
 Maximum number of reciprocal cells 2x 2x 4

    FEWALD:  cpu time    0.0029: real time    0.0029


--------------------------------------- Iteration      1(   1)  ---------------------------------------


    POTLOK:  cpu time    0.3967: real time    0.3995
    SETDIJ:  cpu time    0.0339: real time    0.0345
     EDDAV:  cpu time   32.3279: real time   32.6577
       DOS:  cpu time    0.0022: real time    0.0023
    --------------------------------------------
      LOOP:  cpu time   32.7607: real time   33.0941

 eigenvalue-minimisations  :  5050
 total energy-change (2. order) : 0.4590014E+04  (-0.3124802E+05)
 number of electron     640.0000000 magnetization      64.0000000
 augmentation part      640.0000000 magnetization      64.0000000

 Free energy of the ion-electron system (eV)
  ---------------------------------------------------
  alpha Z        PSCENC =      2015.86452450
  Ewald energy   TEWEN  =    142322.31631571
  -Hartree energ DENC   =   -193282.62593584
  -exchange      EXHF   =         0.00000000
  -V(xc)+E(xc)   XCENC  =       253.29103744
  PAW double counting   =     44546.96166755   -42737.10153268
  entropy T*S    EENTRO =         0.00390621
  eigenvalues    EBANDS =      4807.90869432
  atomic energy  EATOM  =     46663.39518770
  Solvation  Ediel_sol  =         0.00000000
  ---------------------------------------------------
  free energy    TOTEN  =      4590.01386491 eV

  energy without entropy =     4590.00995870  energy(sigma->0) =     4590.01256284


--------------------------------------------------------------------------------------------------------




--------------------------------------- Iteration      1(   2)  ---------------------------------------


     EDDAV:  cpu time   34.9487: real time   35.0950
       DOS:  cpu time    0.0012: real time    0.0012
    --------------------------------------------
      LOOP:  cpu time   34.9499: real time   35.0963

 eigenvalue-minimisations  :  5670
 total energy-change (2. order) :-0.4718687E+04  (-0.4324083E+04)
 number of electron     640.0000000 magnetization      64.0000000
 augmentation part      640.0000000 magnetization      64.0000000

 Free energy of the ion-electron system (eV)
  ---------------------------------------------------
  alpha Z        PSCENC =      2015.86452450
  Ewald energy   TEWEN  =    142322.31631571
  -Hartree energ DENC   =   -193282.62593584
  -exchange      EXHF   =         0.00000000
  -V(xc)+E(xc)   XCENC  =       253.29103744
  PAW double counting   =     44546.96166755   -42737.10153268
  entropy T*S    EENTRO =         0.01506004
  eigenvalues    EBANDS =        89.21088763
  atomic energy  EATOM  =     46663.39518770
  Solvation  Ediel_sol  =         0.00000000
  ---------------------------------------------------
  free energy    TOTEN  =      -128.67278795 eV

  energy without entropy =     -128.68784800  energy(sigma->0) =     -128.67780797


--------------------------------------------------------------------------------------------------------




--------------------------------------- Iteration      1(   3)  ---------------------------------------


     EDDAV:  cpu time   35.3247: real time   35.4084
       DOS:  cpu time    0.0013: real time    0.0013
    --------------------------------------------
      LOOP:  cpu time   35.3260: real time   35.4097

 eigenvalue-minimisations  :  5720
 total energy-change (2. order) :-0.2474849E+03  (-0.2306512E+03)
 number of electron     640.0000000 magnetization      64.0000000
 augmentation part      640.0000000 magnetization      64.0000000

 Free energy of the ion-electron system (eV)
  ---------------------------------------------------
  alpha Z        PSCENC =      2015.86452450
  Ewald energy   TEWEN  =    142322.31631571
  -Hartree energ DENC   =   -193282.62593584
  -exchange      EXHF   =         0.00000000
  -V(xc)+E(xc)   XCENC  =       253.29103744
  PAW double counting   =     44546.96166755   -42737.10153268
  entropy T*S    EENTRO =        -0.06625075
  eigenvalues    EBANDS =      -158.19273233
  atomic energy  EATOM  =     46663.39518770
  Solvation  Ediel_sol  =         0.00000000
  ---------------------------------------------------
  free energy    TOTEN  =      -376.15771870 eV

  energy without entropy =     -376.09146795  energy(sigma->0) =     -376.13563511


--------------------------------------------------------------------------------------------------------




--------------------------------------- Iteration      1(   4)  ---------------------------------------


     EDDAV:  cpu time   36.6856: real time   36.7771
       DOS:  cpu time    0.0014: real time    0.0014
    --------------------------------------------
      LOOP:  cpu time   36.6869: real time   36.7785

 eigenvalue-minimisations  :  6000
 total energy-change (2. order) :-0.6218453E+01  (-0.6168826E+01)
 number of electron     640.0000000 magnetization      64.0000000
 augmentation part      640.0000000 magnetization      64.0000000

 Free energy of the ion-electron system (eV)
  ---------------------------------------------------
  alpha Z        PSCENC =      2015.86452450
  Ewald energy   TEWEN  =    142322.31631571
  -Hartree energ DENC   =   -193282.62593584
  -exchange      EXHF   =         0.00000000
  -V(xc)+E(xc)   XCENC  =       253.29103744
  PAW double counting   =     44546.96166755   -42737.10153268
  entropy T*S    EENTRO =        -0.06681161
  eigenvalues    EBANDS =      -164.41062481
  atomic energy  EATOM  =     46663.39518770
  Solvation  Ediel_sol  =         0.00000000
  ---------------------------------------------------
  free energy    TOTEN  =      -382.37617204 eV

  energy without entropy =     -382.30936043  energy(sigma->0) =     -382.35390151


--------------------------------------------------------------------------------------------------------




--------------------------------------- Iteration      1(   5)  ---------------------------------------


     EDDAV:  cpu time   36.0042: real time   36.1040
       DOS:  cpu time    0.0013: real time    0.0013
    CHARGE:  cpu time    2.9332: real time    2.9403
    MIXING:  cpu time    0.0112: real time    0.0119
    --------------------------------------------
      LOOP:  cpu time   38.9499: real time   39.0575

 eigenvalue-minimisations  :  5900
 total energy-change (2. order) :-0.1966632E+00  (-0.1962809E+00)
 number of electron     640.0000100 magnetization      58.8662493
 augmentation part      185.7875452 magnetization      43.4768711

 Broyden mixing:
  rms(total) = 0.12007E+02    rms(broyden)= 0.12007E+02
  rms(prec ) = 0.12102E+02
  weight for this iteration     100.00

 Free energy of the ion-electron system (eV)
  ---------------------------------------------------
  alpha Z        PSCENC =      2015.86452450
  Ewald energy   TEWEN  =    142322.31631571
  -Hartree energ DENC   =   -193282.62593584
  -exchange      EXHF   =         0.00000000
  -V(xc)+E(xc)   XCENC  =       253.29103744
  PAW double counting   =     44546.96166755   -42737.10153268
  entropy T*S    EENTRO =        -0.06720387
  eigenvalues    EBANDS =      -164.60689579
  atomic energy  EATOM  =     46663.39518770
  Solvation  Ediel_sol  =         0.00000000
  ---------------------------------------------------
  free energy    TOTEN  =      -382.57283528 eV

  energy without entropy =     -382.50563141  energy(sigma->0) =     -382.55043399


--------------------------------------------------------------------------------------------------------




--------------------------------------- Iteration      1(   6)  ---------------------------------------


    POTLOK:  cpu time    0.3858: real time    0.3867
    SETDIJ:  cpu time    0.0337: real time    0.0337
    EDDIAG:  cpu time    5.6719: real time    5.6859
  RMM-DIIS:  cpu time   20.6417: real time   20.6907
    ORTHCH:  cpu time    0.4974: real time    0.4986
       DOS:  cpu time    0.0013: real time    0.0013
    CHARGE:  cpu time    2.9094: real time    2.9162
    MIXING:  cpu time    0.0101: real time    0.0282
    --------------------------------------------
      LOOP:  cpu time   30.1512: real time   30.2413

 eigenvalue-minimisations  :  5059
 total energy-change (2. order) : 0.1982351E+02  (-0.5038624E+01)
 number of electron     640.0000100 magnetization      51.8637231
 augmentation part      194.5576477 magnetization      38.9625688

 Broyden mixing:
  rms(total) = 0.80172E+01    rms(broyden)= 0.80172E+01
  rms(prec ) = 0.82992E+01
  weight for this iteration     100.00

 eigenvalues of (default mixing * dielectric matrix)
  average eigenvalue GAMMA=   1.1331
  1.1331

 Free energy of the ion-electron system (eV)
  ---------------------------------------------------
  alpha Z        PSCENC =      2015.86452450
  Ewald energy   TEWEN  =    142322.31631571
  -Hartree energ DENC   =   -192588.46945627
  -exchange      EXHF   =         0.00000000
  -V(xc)+E(xc)   XCENC  =       240.58270600
  PAW double counting   =     51890.08226508   -50193.70738913
  entropy T*S    EENTRO =        -0.02297286
  eigenvalues    EBANDS =      -712.79050474
  atomic energy  EATOM  =     46663.39518770
  Solvation  Ediel_sol  =         0.00000000
  ---------------------------------------------------
  free energy    TOTEN  =      -362.74932402 eV

  energy without entropy =     -362.72635116  energy(sigma->0) =     -362.74166640


--------------------------------------------------------------------------------------------------------




--------------------------------------- Iteration      1(   7)  ---------------------------------------


    POTLOK:  cpu time    0.3897: real time    0.3906
    SETDIJ:  cpu time    0.0336: real time    0.0337
    EDDIAG:  cpu time    5.7263: real time    5.7398
  RMM-DIIS:  cpu time   20.3270: real time   20.3752
    ORTHCH:  cpu time    0.5008: real time    0.5019
       DOS:  cpu time    0.0012: real time    0.0013
    CHARGE:  cpu time    2.9773: real time    2.9844
    MIXING:  cpu time    0.0103: real time    0.0103
    --------------------------------------------
      LOOP:  cpu time   29.9663: real time   30.0373

 eigenvalue-minimisations  :  5049
 total energy-change (2. order) :-0.1033307E+03  (-0.1514177E+02)
 number of electron     640.0000117 magnetization      45.3487415
 augmentation part      192.3822008 magnetization      36.2499907

 Broyden mixing:
  rms(total) = 0.99579E+01    rms(broyden)= 0.99579E+01
  rms(prec ) = 0.11891E+02
  weight for this iteration     100.00

 eigenvalues of (default mixing * dielectric matrix)
  average eigenvalue GAMMA=   1.0414
  1.6946  0.3883

 Free energy of the ion-electron system (eV)
  ---------------------------------------------------
  alpha Z        PSCENC =      2015.86452450
  Ewald energy   TEWEN  =    142322.31631571
  -Hartree energ DENC   =   -193164.41854775
  -exchange      EXHF   =         0.00000000
  -V(xc)+E(xc)   XCENC  =       237.13515712
  PAW double counting   =     58179.85032820   -56549.22011149
  entropy T*S    EENTRO =        -0.00863674
  eigenvalues    EBANDS =      -170.99425448
  atomic energy  EATOM  =     46663.39518770
  Solvation  Ediel_sol  =         0.00000000
  ---------------------------------------------------
  free energy    TOTEN  =      -466.08003724 eV

  energy without entropy =     -466.07140050  energy(sigma->0) =     -466.07715833


--------------------------------------------------------------------------------------------------------




--------------------------------------- Iteration      1(   8)  ---------------------------------------


    POTLOK:  cpu time    0.3895: real time    0.3904
    SETDIJ:  cpu time    0.0326: real time    0.0327
    EDDIAG:  cpu time    5.6818: real time    5.6955
  RMM-DIIS:  cpu time   20.8619: real time   20.9144
    ORTHCH:  cpu time    0.5032: real time    0.5044
       DOS:  cpu time    0.0013: real time    0.0013
    CHARGE:  cpu time    2.9339: real time    2.9408
    MIXING:  cpu time    0.0106: real time    0.0107
    --------------------------------------------
      LOOP:  cpu time   30.4149: real time   30.4903

 eigenvalue-minimisations  :  5070
 total energy-change (2. order) : 0.1276011E+03  (-0.6560147E+01)
 number of electron     640.0000107 magnetization      42.4457633
 augmentation part      198.5578038 magnetization      28.6904478

 Broyden mixing:
  rms(total) = 0.28104E+01    rms(broyden)= 0.28104E+01
  rms(prec ) = 0.29614E+01
  weight for this iteration     100.00

 eigenvalues of (default mixing * dielectric matrix)
  average eigenvalue GAMMA=   1.0373
  2.2272  0.5044  0.3804

 Free energy of the ion-electron system (eV)
  ---------------------------------------------------
  alpha Z        PSCENC =      2015.86452450
  Ewald energy   TEWEN  =    142322.31631571
  -Hartree energ DENC   =   -192543.43319450
  -exchange      EXHF   =         0.00000000
  -V(xc)+E(xc)   XCENC  =       242.25169521
  PAW double counting   =     62678.05806168   -61098.48540656
  entropy T*S    EENTRO =         0.05847993
  eigenvalues    EBANDS =      -618.50464757
  atomic energy  EATOM  =     46663.39518770
  Solvation  Ediel_sol  =         0.00000000
  ---------------------------------------------------
  free energy    TOTEN  =      -338.47898391 eV

  energy without entropy =     -338.53746384  energy(sigma->0) =     -338.49847722


--------------------------------------------------------------------------------------------------------




--------------------------------------- Iteration      1(   9)  ---------------------------------------


    POTLOK:  cpu time    0.3866: real time    0.3876
    SETDIJ:  cpu time    0.0334: real time    0.0335
    EDDIAG:  cpu time    5.7703: real time    5.7840
  RMM-DIIS:  cpu time   21.0021: real time   21.0518
    ORTHCH:  cpu time    0.5076: real time    0.5088
       DOS:  cpu time    0.0012: real time    0.0012
    CHARGE:  cpu time    2.9336: real time    2.9406
    MIXING:  cpu time    0.0112: real time    0.0113
    --------------------------------------------
      LOOP:  cpu time   30.6461: real time   30.7186

 eigenvalue-minimisations  :  5082
 total energy-change (2. order) :-0.6184406E+01  (-0.4747740E+00)
 number of electron     640.0000105 magnetization      39.0878546
 augmentation part      197.5927191 magnetization      25.6061499

 Broyden mixing:
  rms(total) = 0.93371E+00    rms(broyden)= 0.93371E+00
  rms(prec ) = 0.99589E+00
  weight for this iteration     100.00

 eigenvalues of (default mixing * dielectric matrix)
  average eigenvalue GAMMA=   1.0541
  1.9501  1.3154  0.3466  0.6042

 Free energy of the ion-electron system (eV)
  ---------------------------------------------------
  alpha Z        PSCENC =      2015.86452450
  Ewald energy   TEWEN  =    142322.31631571
  -Hartree energ DENC   =   -192613.51017134
  -exchange      EXHF   =         0.00000000
  -V(xc)+E(xc)   XCENC  =       239.08418671
  PAW double counting   =     63216.07900947   -61637.04313342
  entropy T*S    EENTRO =         0.10756843
  eigenvalues    EBANDS =      -550.95687754
  atomic energy  EATOM  =     46663.39518770
  Solvation  Ediel_sol  =         0.00000000
  ---------------------------------------------------
  free energy    TOTEN  =      -344.66338978 eV

  energy without entropy =     -344.77095822  energy(sigma->0) =     -344.69924593


--------------------------------------------------------------------------------------------------------




--------------------------------------- Iteration      1(  10)  ---------------------------------------


    POTLOK:  cpu time    0.3847: real time    0.3856
    SETDIJ:  cpu time    0.0329: real time    0.0330
    EDDIAG:  cpu time    5.7623: real time    5.7760
  RMM-DIIS:  cpu time   20.9703: real time   21.0200
    ORTHCH:  cpu time    0.5057: real time    0.5068
       DOS:  cpu time    0.0013: real time    0.0013
    CHARGE:  cpu time    2.9446: real time    2.9516
    MIXING:  cpu time    0.0125: real time    0.0125
    --------------------------------------------
      LOOP:  cpu time   30.6143: real time   30.6869

 eigenvalue-minimisations  :  5069
 total energy-change (2. order) :-0.6665497E+01  (-0.4223011E+00)
 number of electron     640.0000103 magnetization      36.6993416
 augmentation part      196.6808945 magnetization      26.2004489

 Broyden mixing:
  rms(total) = 0.14018E+01    rms(broyden)= 0.14018E+01
  rms(prec ) = 0.15480E+01
  weight for this iteration     100.00

 eigenvalues of (default mixing * dielectric matrix)
  average eigenvalue GAMMA=   0.9880
  2.1995  1.1699  0.3323  0.6191  0.6191

 Free energy of the ion-electron system (eV)
  ---------------------------------------------------
  alpha Z        PSCENC =      2015.86452450
  Ewald energy   TEWEN  =    142322.31631571
  -Hartree energ DENC   =   -192627.25481950
  -exchange      EXHF   =         0.00000000
  -V(xc)+E(xc)   XCENC  =       236.67041785
  PAW double counting   =     62924.83261989   -61340.67036950
  entropy T*S    EENTRO =         0.02960804
  eigenvalues    EBANDS =      -546.51237154
  atomic energy  EATOM  =     46663.39518770
  Solvation  Ediel_sol  =         0.00000000
  ---------------------------------------------------
  free energy    TOTEN  =      -351.32888686 eV

  energy without entropy =     -351.35849490  energy(sigma->0) =     -351.33875620


--------------------------------------------------------------------------------------------------------




--------------------------------------- Iteration      1(  11)  ---------------------------------------


    POTLOK:  cpu time    0.3909: real time    0.3918
    SETDIJ:  cpu time    0.0333: real time    0.0334
    EDDIAG:  cpu time    5.7801: real time    5.7940
  RMM-DIIS:  cpu time   20.9408: real time   20.9906
    ORTHCH:  cpu time    0.4991: real time    0.5003
       DOS:  cpu time    0.0013: real time    0.0013
    CHARGE:  cpu time    2.9032: real time    2.9101
    MIXING:  cpu time    0.0113: real time    0.0113
    --------------------------------------------
      LOOP:  cpu time   30.5599: real time   30.6328

 eigenvalue-minimisations  :  5065
 total energy-change (2. order) : 0.1745744E+00  (-0.2311544E-01)
 number of electron     640.0000104 magnetization      30.0723731
 augmentation part      196.7684183 magnetization      18.7148379

 Broyden mixing:
  rms(total) = 0.77100E+00    rms(broyden)= 0.77100E+00
  rms(prec ) = 0.82073E+00
  weight for this iteration     100.00

 eigenvalues of (default mixing * dielectric matrix)
  average eigenvalue GAMMA=   1.0581
  2.4143  1.3447  1.0771  0.3358  0.5883  0.5883

 Free energy of the ion-electron system (eV)
  ---------------------------------------------------
  alpha Z        PSCENC =      2015.86452450
  Ewald energy   TEWEN  =    142322.31631571
  -Hartree energ DENC   =   -192637.98596508
  -exchange      EXHF   =         0.00000000
  -V(xc)+E(xc)   XCENC  =       235.91042997
  PAW double counting   =     63222.96924657   -61642.41049911
  entropy T*S    EENTRO =         0.04356305
  eigenvalues    EBANDS =      -531.25711575
  atomic energy  EATOM  =     46663.39518770
  Solvation  Ediel_sol  =         0.00000000
  ---------------------------------------------------
  free energy    TOTEN  =      -351.15431246 eV

  energy without entropy =     -351.19787551  energy(sigma->0) =     -351.16883347


--------------------------------------------------------------------------------------------------------




--------------------------------------- Iteration      1(  12)  ---------------------------------------


    POTLOK:  cpu time    0.3888: real time    0.3897
    SETDIJ:  cpu time    0.0327: real time    0.0327
    EDDIAG:  cpu time    5.6916: real time    5.7052
  RMM-DIIS:  cpu time   20.5776: real time   20.6369
    ORTHCH:  cpu time    0.4970: real time    0.4982
       DOS:  cpu time    0.0013: real time    0.0013
    CHARGE:  cpu time    2.8942: real time    2.9024
    MIXING:  cpu time    0.0121: real time    0.0121
    --------------------------------------------
      LOOP:  cpu time   30.0953: real time   30.1786

 eigenvalue-minimisations  :  5061
 total energy-change (2. order) :-0.5236758E+01  (-0.2182653E+00)
 number of electron     640.0000105 magnetization      27.1697453
 augmentation part      196.8229052 magnetization      15.9536380

 Broyden mixing:
  rms(total) = 0.63630E+00    rms(broyden)= 0.63630E+00
  rms(prec ) = 0.71050E+00
  weight for this iteration     100.00

 eigenvalues of (default mixing * dielectric matrix)
  average eigenvalue GAMMA=   1.1427
  2.3798  2.3798  0.9295  0.3363  0.6636  0.6636  0.6465

 Free energy of the ion-electron system (eV)
  ---------------------------------------------------
  alpha Z        PSCENC =      2015.86452450
  Ewald energy   TEWEN  =    142322.31631571
  -Hartree energ DENC   =   -192663.11200045
  -exchange      EXHF   =         0.00000000
  -V(xc)+E(xc)   XCENC  =       232.24602047
  PAW double counting   =     63427.85648180   -61850.46023589
  entropy T*S    EENTRO =         0.05912267
  eigenvalues    EBANDS =      -504.55648657
  atomic energy  EATOM  =     46663.39518770
  Solvation  Ediel_sol  =         0.00000000
  ---------------------------------------------------
  free energy    TOTEN  =      -356.39107006 eV

  energy without entropy =     -356.45019274  energy(sigma->0) =     -356.41077762


--------------------------------------------------------------------------------------------------------




--------------------------------------- Iteration      1(  13)  ---------------------------------------


    POTLOK:  cpu time    0.3893: real time    0.3903
    SETDIJ:  cpu time    0.0330: real time    0.0332
    EDDIAG:  cpu time    5.7122: real time    5.7289
  RMM-DIIS:  cpu time   20.6166: real time   20.6772
    ORTHCH:  cpu time    0.5002: real time    0.5014
       DOS:  cpu time    0.0013: real time    0.0013
    CHARGE:  cpu time    2.9065: real time    2.9151
    MIXING:  cpu time    0.0122: real time    0.0122
    --------------------------------------------
      LOOP:  cpu time   30.1713: real time   30.2595

 eigenvalue-minimisations  :  5065
 total energy-change (2. order) :-0.3477107E+01  (-0.2415311E+00)
 number of electron     640.0000104 magnetization      21.7132047
 augmentation part      196.6165301 magnetization      12.3664779

 Broyden mixing:
  rms(total) = 0.60555E+00    rms(broyden)= 0.60555E+00
  rms(prec ) = 0.65479E+00
  weight for this iteration     100.00

 eigenvalues of (default mixing * dielectric matrix)
  average eigenvalue GAMMA=   1.3233
  4.0618  2.3477  1.0119  1.0119  0.3365  0.6197  0.6197  0.5774

 Free energy of the ion-electron system (eV)
  ---------------------------------------------------
  alpha Z        PSCENC =      2015.86452450
  Ewald energy   TEWEN  =    142322.31631571
  -Hartree energ DENC   =   -192660.96934934
  -exchange      EXHF   =         0.00000000
  -V(xc)+E(xc)   XCENC  =       230.39356801
  PAW double counting   =     63067.76482178   -61486.26356108
  entropy T*S    EENTRO =         0.01309990
  eigenvalues    EBANDS =      -512.38278456
  atomic energy  EATOM  =     46663.39518770
  Solvation  Ediel_sol  =         0.00000000
  ---------------------------------------------------
  free energy    TOTEN  =      -359.86817738 eV

  energy without entropy =     -359.88127728  energy(sigma->0) =     -359.87254402


--------------------------------------------------------------------------------------------------------




--------------------------------------- Iteration      1(  14)  ---------------------------------------


    POTLOK:  cpu time    0.3884: real time    0.3898
    SETDIJ:  cpu time    0.0334: real time    0.0335
    EDDIAG:  cpu time    5.6947: real time    5.7108
  RMM-DIIS:  cpu time   20.6580: real time   20.7181
    ORTHCH:  cpu time    0.4931: real time    0.4947
       DOS:  cpu time    0.0013: real time    0.0013
    CHARGE:  cpu time    2.8963: real time    2.9046
    MIXING:  cpu time    0.0132: real time    0.0132
    --------------------------------------------
      LOOP:  cpu time   30.1783: real time   30.2661

 eigenvalue-minimisations  :  5063
 total energy-change (2. order) :-0.1956942E+01  (-0.1334120E+00)
 number of electron     640.0000104 magnetization      18.2861370
 augmentation part      196.7596625 magnetization      10.0197517

 Broyden mixing:
  rms(total) = 0.44670E+00    rms(broyden)= 0.44670E+00
  rms(prec ) = 0.47816E+00
  weight for this iteration     100.00

 eigenvalues of (default mixing * dielectric matrix)
  average eigenvalue GAMMA=   1.5683
  6.2988  2.3990  1.2704  1.2704  0.3365  0.6416  0.6416  0.6282  0.6282

 Free energy of the ion-electron system (eV)
  ---------------------------------------------------
  alpha Z        PSCENC =      2015.86452450
  Ewald energy   TEWEN  =    142322.31631571
  -Hartree energ DENC   =   -192652.19915497
  -exchange      EXHF   =         0.00000000
  -V(xc)+E(xc)   XCENC  =       228.64351053
  PAW double counting   =     62998.42172704   -61416.59793450
  entropy T*S    EENTRO =         0.00959657
  eigenvalues    EBANDS =      -521.67889158
  atomic energy  EATOM  =     46663.39518770
  Solvation  Ediel_sol  =         0.00000000
  ---------------------------------------------------
  free energy    TOTEN  =      -361.82511900 eV

  energy without entropy =     -361.83471557  energy(sigma->0) =     -361.82831786


--------------------------------------------------------------------------------------------------------




--------------------------------------- Iteration      1(  15)  ---------------------------------------


    POTLOK:  cpu time    0.3835: real time    0.3845
    SETDIJ:  cpu time    0.0332: real time    0.0333
    EDDIAG:  cpu time    5.7045: real time    5.7214
  RMM-DIIS:  cpu time   20.6734: real time   20.7330
    ORTHCH:  cpu time    0.4957: real time    0.4974
       DOS:  cpu time    0.0012: real time    0.0013
    CHARGE:  cpu time    2.8880: real time    2.8964
    MIXING:  cpu time    0.0128: real time    0.0129
    --------------------------------------------
      LOOP:  cpu time   30.1925: real time   30.2801

 eigenvalue-minimisations  :  5070
 total energy-change (2. order) :-0.2012137E+00  (-0.2483508E-01)
 number of electron     640.0000104 magnetization      15.6176273
 augmentation part      196.8483374 magnetization       8.4058829

 Broyden mixing:
  rms(total) = 0.39446E+00    rms(broyden)= 0.39446E+00
  rms(prec ) = 0.42865E+00
  weight for this iteration     100.00

 eigenvalues of (default mixing * dielectric matrix)
  average eigenvalue GAMMA=   1.6725
  7.8440  2.2751  1.4491  1.4491  0.3365  0.6635  0.6635  0.7353  0.7353  0.5732

 Free energy of the ion-electron system (eV)
  ---------------------------------------------------
  alpha Z        PSCENC =      2015.86452450
  Ewald energy   TEWEN  =    142322.31631571
  -Hartree energ DENC   =   -192637.62559729
  -exchange      EXHF   =         0.00000000
  -V(xc)+E(xc)   XCENC  =       228.28381946
  PAW double counting   =     63012.18484155   -61430.08816690
  entropy T*S    EENTRO =         0.00289010
  eigenvalues    EBANDS =      -536.36014749
  atomic energy  EATOM  =     46663.39518770
  Solvation  Ediel_sol  =         0.00000000
  ---------------------------------------------------
  free energy    TOTEN  =      -362.02633266 eV

  energy without entropy =     -362.02922276  energy(sigma->0) =     -362.02729603


--------------------------------------------------------------------------------------------------------




--------------------------------------- Iteration      1(  16)  ---------------------------------------


    POTLOK:  cpu time    0.3883: real time    0.3892
    SETDIJ:  cpu time    0.0342: real time    0.0343
    EDDIAG:  cpu time    5.7084: real time    5.7255
  RMM-DIIS:  cpu time   20.9945: real time   21.0556
    ORTHCH:  cpu time    0.5063: real time    0.5080
       DOS:  cpu time    0.0013: real time    0.0013
    CHARGE:  cpu time    2.9293: real time    2.9374
    MIXING:  cpu time    0.0138: real time    0.0141
    --------------------------------------------
      LOOP:  cpu time   30.5761: real time   30.6655

 eigenvalue-minimisations  :  5080
 total energy-change (2. order) :-0.4108094E-01  (-0.5032721E-02)
 number of electron     640.0000105 magnetization      13.5221039
 augmentation part      196.9176488 magnetization       6.7837747

 Broyden mixing:
  rms(total) = 0.16439E+00    rms(broyden)= 0.16439E+00
  rms(prec ) = 0.17462E+00
  weight for this iteration     100.00

 eigenvalues of (default mixing * dielectric matrix)
  average eigenvalue GAMMA=   1.7922
  9.3270  2.0717  2.0717  1.5907  0.9189  0.9189  0.3365  0.6402  0.6402  0.6335
  0.5644

 Free energy of the ion-electron system (eV)
  ---------------------------------------------------
  alpha Z        PSCENC =      2015.86452450
  Ewald energy   TEWEN  =    142322.31631571
  -Hartree energ DENC   =   -192626.87351893
  -exchange      EXHF   =         0.00000000
  -V(xc)+E(xc)   XCENC  =       227.90673840
  PAW double counting   =     63105.94053959   -61524.21926429
  entropy T*S    EENTRO =        -0.00291338
  eigenvalues    EBANDS =      -546.39502289
  atomic energy  EATOM  =     46663.39518770
  Solvation  Ediel_sol  =         0.00000000
  ---------------------------------------------------
  free energy    TOTEN  =      -362.06741360 eV

  energy without entropy =     -362.06450022  energy(sigma->0) =     -362.06644247


--------------------------------------------------------------------------------------------------------




--------------------------------------- Iteration      1(  17)  ---------------------------------------


    POTLOK:  cpu time    0.3873: real time    0.3882
    SETDIJ:  cpu time    0.0346: real time    0.0347
    EDDIAG:  cpu time    5.7951: real time    5.8118
  RMM-DIIS:  cpu time   21.1238: real time   21.1849
    ORTHCH:  cpu time    0.5022: real time    0.5034
       DOS:  cpu time    0.0013: real time    0.0013
    CHARGE:  cpu time    2.9298: real time    2.9381
    MIXING:  cpu time    0.0134: real time    0.0134
    --------------------------------------------
      LOOP:  cpu time   30.7875: real time   30.8759

 eigenvalue-minimisations  :  5081
 total energy-change (2. order) :-0.5118315E-01  (-0.1632554E-02)
 number of electron     640.0000105 magnetization      12.2384399
 augmentation part      196.9714758 magnetization       6.0640439

 Broyden mixing:
  rms(total) = 0.61805E-01    rms(broyden)= 0.61805E-01
  rms(prec ) = 0.62829E-01
  weight for this iteration     100.00

 eigenvalues of (default mixing * dielectric matrix)
  average eigenvalue GAMMA=   1.8641
 10.3980  2.4022  2.4022  1.4206  1.2312  0.3365  0.8217  0.8217  0.6469  0.6469
  0.6099  0.6310

 Free energy of the ion-electron system (eV)
  ---------------------------------------------------
  alpha Z        PSCENC =      2015.86452450
  Ewald energy   TEWEN  =    142322.31631571
  -Hartree energ DENC   =   -192612.87615657
  -exchange      EXHF   =         0.00000000
  -V(xc)+E(xc)   XCENC  =       227.60857252
  PAW double counting   =     63164.54674428   -61582.76165254
  entropy T*S    EENTRO =        -0.01593808
  eigenvalues    EBANDS =      -560.19619426
  atomic energy  EATOM  =     46663.39518770
  Solvation  Ediel_sol  =         0.00000000
  ---------------------------------------------------
  free energy    TOTEN  =      -362.11859675 eV

  energy without entropy =     -362.10265867  energy(sigma->0) =     -362.11328405


--------------------------------------------------------------------------------------------------------




--------------------------------------- Iteration      1(  18)  ---------------------------------------


    POTLOK:  cpu time    0.3860: real time    0.3874
    SETDIJ:  cpu time    0.0346: real time    0.0347
    EDDIAG:  cpu time    5.8076: real time    5.8247
  RMM-DIIS:  cpu time   21.0958: real time   21.1569
    ORTHCH:  cpu time    0.5040: real time    0.5052
       DOS:  cpu time    0.0013: real time    0.0013
    CHARGE:  cpu time    2.9404: real time    2.9489
    MIXING:  cpu time    0.0145: real time    0.0145
    --------------------------------------------
      LOOP:  cpu time   30.7842: real time   30.8736

 eigenvalue-minimisations  :  5077
 total energy-change (2. order) :-0.9732896E-01  (-0.8079276E-03)
 number of electron     640.0000105 magnetization      11.9693860
 augmentation part      197.0045889 magnetization       6.1455961

 Broyden mixing:
  rms(total) = 0.40450E-01    rms(broyden)= 0.40450E-01
  rms(prec ) = 0.46990E-01
  weight for this iteration     100.00

 eigenvalues of (default mixing * dielectric matrix)
  average eigenvalue GAMMA=   1.8963
 10.8046  2.3670  2.1583  2.1583  1.2984  1.2984  0.3365  0.6451  0.6451  0.8841
  0.8354  0.5776  0.6434

 Free energy of the ion-electron system (eV)
  ---------------------------------------------------
  alpha Z        PSCENC =      2015.86452450
  Ewald energy   TEWEN  =    142322.31631571
  -Hartree energ DENC   =   -192603.10008903
  -exchange      EXHF   =         0.00000000
  -V(xc)+E(xc)   XCENC  =       227.37310620
  PAW double counting   =     63191.91360042   -61610.10948872
  entropy T*S    EENTRO =        -0.02842856
  eigenvalues    EBANDS =      -569.84065393
  atomic energy  EATOM  =     46663.39518770
  Solvation  Ediel_sol  =         0.00000000
  ---------------------------------------------------
  free energy    TOTEN  =      -362.21592571 eV

  energy without entropy =     -362.18749715  energy(sigma->0) =     -362.20644953


--------------------------------------------------------------------------------------------------------




--------------------------------------- Iteration      1(  19)  ---------------------------------------


    POTLOK:  cpu time    0.3888: real time    0.3902
    SETDIJ:  cpu time    0.0344: real time    0.0345
    EDDIAG:  cpu time    5.7885: real time    5.8049
  RMM-DIIS:  cpu time   21.1036: real time   21.1653
    ORTHCH:  cpu time    0.5036: real time    0.5048
       DOS:  cpu time    0.0013: real time    0.0013
    CHARGE:  cpu time    2.9090: real time    2.9173
    MIXING:  cpu time    0.0139: real time    0.0139
    --------------------------------------------
      LOOP:  cpu time   30.7431: real time   30.8323

 eigenvalue-minimisations  :  5075
 total energy-change (2. order) :-0.4619610E-01  (-0.2908887E-03)
 number of electron     640.0000105 magnetization      11.6137185
 augmentation part      197.0063290 magnetization       5.9663899

 Broyden mixing:
  rms(total) = 0.25950E-01    rms(broyden)= 0.25950E-01
  rms(prec ) = 0.29261E-01
  weight for this iteration     100.00

 eigenvalues of (default mixing * dielectric matrix)
  average eigenvalue GAMMA=   1.8715
 11.3017  2.4174  2.4174  2.1635  1.2863  1.2863  1.0782  0.3365  0.6446  0.6446
  0.7703  0.6458  0.6458  0.5627

 Free energy of the ion-electron system (eV)
  ---------------------------------------------------
  alpha Z        PSCENC =      2015.86452450
  Ewald energy   TEWEN  =    142322.31631571
  -Hartree energ DENC   =   -192598.90440071
  -exchange      EXHF   =         0.00000000
  -V(xc)+E(xc)   XCENC  =       227.32635847
  PAW double counting   =     63179.23713484   -61597.31566004
  entropy T*S    EENTRO =        -0.02836079
  eigenvalues    EBANDS =      -574.15322149
  atomic energy  EATOM  =     46663.39518770
  Solvation  Ediel_sol  =         0.00000000
  ---------------------------------------------------
  free energy    TOTEN  =      -362.26212181 eV

  energy without entropy =     -362.23376102  energy(sigma->0) =     -362.25266821


--------------------------------------------------------------------------------------------------------




--------------------------------------- Iteration      1(  20)  ---------------------------------------


    POTLOK:  cpu time    0.3987: real time    0.3998
    SETDIJ:  cpu time    0.0348: real time    0.0351
    EDDIAG:  cpu time    5.7851: real time    5.8013
  RMM-DIIS:  cpu time   20.8757: real time   20.9367
    ORTHCH:  cpu time    0.5002: real time    0.5019
       DOS:  cpu time    0.0014: real time    0.0014
    CHARGE:  cpu time    2.9052: real time    2.9135
    MIXING:  cpu time    0.0158: real time    0.0158
    --------------------------------------------
      LOOP:  cpu time   30.5168: real time   30.6055

 eigenvalue-minimisations  :  5025
 total energy-change (2. order) :-0.3263045E-01  (-0.9479829E-04)
 number of electron     640.0000105 magnetization      11.5763258
 augmentation part      197.0059100 magnetization       6.0110722

 Broyden mixing:
  rms(total) = 0.65352E-02    rms(broyden)= 0.65352E-02
  rms(prec ) = 0.77290E-02
  weight for this iteration     100.00

 eigenvalues of (default mixing * dielectric matrix)
  average eigenvalue GAMMA=   1.8526
 11.3991  2.6337  2.4088  2.4088  1.3507  1.1920  1.1920  0.3365  0.6448  0.6448
  0.8625  0.8625  0.6428  0.6428  0.5677

 Free energy of the ion-electron system (eV)
  ---------------------------------------------------
  alpha Z        PSCENC =      2015.86452450
  Ewald energy   TEWEN  =    142322.31631571
  -Hartree energ DENC   =   -192596.28812043
  -exchange      EXHF   =         0.00000000
  -V(xc)+E(xc)   XCENC  =       227.27239679
  PAW double counting   =     63184.99827360   -61603.07752842
  entropy T*S    EENTRO =        -0.03171422
  eigenvalues    EBANDS =      -576.74408749
  atomic energy  EATOM  =     46663.39518770
  Solvation  Ediel_sol  =         0.00000000
  ---------------------------------------------------
  free energy    TOTEN  =      -362.29475226 eV

  energy without entropy =     -362.26303804  energy(sigma->0) =     -362.28418085


--------------------------------------------------------------------------------------------------------




--------------------------------------- Iteration      1(  21)  ---------------------------------------


    POTLOK:  cpu time    0.3871: real time    0.3880
    SETDIJ:  cpu time    0.0342: real time    0.0343
    EDDIAG:  cpu time    5.7715: real time    5.7885
  RMM-DIIS:  cpu time   17.8880: real time   17.9366
    ORTHCH:  cpu time    0.5024: real time    0.5036
       DOS:  cpu time    0.0013: real time    0.0013
    CHARGE:  cpu time    2.8851: real time    2.8919
    MIXING:  cpu time    0.0130: real time    0.0130
    --------------------------------------------
      LOOP:  cpu time   27.4826: real time   27.5572

 eigenvalue-minimisations  :  4247
 total energy-change (2. order) :-0.1808263E-01  (-0.4388819E-04)
 number of electron     640.0000105 magnetization      11.4945297
 augmentation part      197.0038605 magnetization       5.9436594

 Broyden mixing:
  rms(total) = 0.46729E-02    rms(broyden)= 0.46729E-02
  rms(prec ) = 0.57885E-02
  weight for this iteration     100.00

 eigenvalues of (default mixing * dielectric matrix)
  average eigenvalue GAMMA=   1.8328
 11.4838  2.8213  2.5331  2.5331  1.4529  1.2359  1.2359  0.3365  0.9833  0.6447
  0.6447  0.7978  0.7978  0.6307  0.6307  0.5625

 Free energy of the ion-electron system (eV)
  ---------------------------------------------------
  alpha Z        PSCENC =      2015.86452450
  Ewald energy   TEWEN  =    142322.31631571
  -Hartree energ DENC   =   -192594.68355472
  -exchange      EXHF   =         0.00000000
  -V(xc)+E(xc)   XCENC  =       227.25644902
  PAW double counting   =     63182.74359702   -61600.81878692
  entropy T*S    EENTRO =        -0.03183003
  eigenvalues    EBANDS =      -578.35473719
  atomic energy  EATOM  =     46663.39518770
  Solvation  Ediel_sol  =         0.00000000
  ---------------------------------------------------
  free energy    TOTEN  =      -362.31283489 eV

  energy without entropy =     -362.28100487  energy(sigma->0) =     -362.30222488


--------------------------------------------------------------------------------------------------------




--------------------------------------- Iteration      1(  22)  ---------------------------------------


    POTLOK:  cpu time    0.3847: real time    0.3856
    SETDIJ:  cpu time    0.0343: real time    0.0344
    EDDIAG:  cpu time    5.6936: real time    5.7071
  RMM-DIIS:  cpu time   16.8886: real time   16.9285
    ORTHCH:  cpu time    0.4976: real time    0.4987
       DOS:  cpu time    0.0013: real time    0.0013
    CHARGE:  cpu time    2.9028: real time    2.9097
    MIXING:  cpu time    0.0149: real time    0.0149
    --------------------------------------------
      LOOP:  cpu time   26.4179: real time   26.4804

 eigenvalue-minimisations  :  4045
 total energy-change (2. order) :-0.1735695E-01  (-0.4397241E-04)
 number of electron     640.0000105 magnetization      11.4220199
 augmentation part      197.0054991 magnetization       5.8901071

 Broyden mixing:
  rms(total) = 0.31919E-02    rms(broyden)= 0.31919E-02
  rms(prec ) = 0.39148E-02
  weight for this iteration     100.00

 eigenvalues of (default mixing * dielectric matrix)
  average eigenvalue GAMMA=   1.8893
 11.5529  3.7326  2.4097  2.4097  2.3447  1.2664  1.2150  1.2150  0.3365  0.6447
  0.6447  0.9085  0.9085  0.7150  0.6342  0.6188  0.5603

 Free energy of the ion-electron system (eV)
  ---------------------------------------------------
  alpha Z        PSCENC =      2015.86452450
  Ewald energy   TEWEN  =    142322.31631571
  -Hartree energ DENC   =   -192592.28298108
  -exchange      EXHF   =         0.00000000
  -V(xc)+E(xc)   XCENC  =       227.23166550
  PAW double counting   =     63183.61557931   -61601.70923184
  entropy T*S    EENTRO =        -0.03222745
  eigenvalues    EBANDS =      -580.72902420
  atomic energy  EATOM  =     46663.39518770
  Solvation  Ediel_sol  =         0.00000000
  ---------------------------------------------------
  free energy    TOTEN  =      -362.33019185 eV

  energy without entropy =     -362.29796440  energy(sigma->0) =     -362.31944936


--------------------------------------------------------------------------------------------------------




--------------------------------------- Iteration      1(  23)  ---------------------------------------


    POTLOK:  cpu time    0.3874: real time    0.3883
    SETDIJ:  cpu time    0.0342: real time    0.0343
    EDDIAG:  cpu time    5.7538: real time    5.7674
  RMM-DIIS:  cpu time   17.8364: real time   17.8786
    ORTHCH:  cpu time    0.4964: real time    0.4975
       DOS:  cpu time    0.0013: real time    0.0013
    CHARGE:  cpu time    2.9152: real time    2.9221
    MIXING:  cpu time    0.0140: real time    0.0140
    --------------------------------------------
      LOOP:  cpu time   27.4387: real time   27.5036

 eigenvalue-minimisations  :  4288
 total energy-change (2. order) :-0.1715267E-01  (-0.1119930E-03)
 number of electron     640.0000105 magnetization      11.4086265
 augmentation part      197.0075218 magnetization       5.8954068

 Broyden mixing:
  rms(total) = 0.62208E-02    rms(broyden)= 0.62208E-02
  rms(prec ) = 0.71827E-02
  weight for this iteration     100.00

 eigenvalues of (default mixing * dielectric matrix)
  average eigenvalue GAMMA=   1.9201
 11.6094  4.9469  2.5490  2.4480  2.4480  1.3918  1.2164  1.2164  0.3365  0.6447
  0.6447  0.9147  0.9147  0.8051  0.5663  0.6595  0.6247  0.6247

 Free energy of the ion-electron system (eV)
  ---------------------------------------------------
  alpha Z        PSCENC =      2015.86452450
  Ewald energy   TEWEN  =    142322.31631571
  -Hartree energ DENC   =   -192587.71623736
  -exchange      EXHF   =         0.00000000
  -V(xc)+E(xc)   XCENC  =       227.20329212
[...]
  0.000  -0.000  -0.028   0.000  -0.000  -0.000   0.000   0.015  -0.000   0.000  -0.010   0.000   0.000   0.003  -0.000  -0.000
 -0.001  -0.000   0.000   0.007   0.000   0.000   0.000  -0.000  -0.005  -0.000   0.000   0.000   0.000  -0.000  -0.001  -0.000
 -0.000   0.000   0.000   0.000  -0.000   0.000  -0.000  -0.000  -0.000   0.000  -0.000   0.000   0.000  -0.000  -0.000  -0.000
 -0.000   0.000  -0.000  -0.000   0.000   0.000  -0.000  -0.000   0.000  -0.000   0.000  -0.000  -0.000  -0.000   0.000   0.000
 -0.000   0.000  -0.000   0.000  -0.000   0.000  -0.000   0.000  -0.000   0.000   0.000  -0.000  -0.000   0.000   0.000   0.000


------------------------ aborting loop because EDIFF is reached ----------------------------------------


    CHARGE:  cpu time    2.9257: real time    2.9327
    FORLOC:  cpu time    0.0701: real time    0.0703
    FORNL :  cpu time    9.4145: real time    9.4368
    STRESS:  cpu time   27.8553: real time   27.9332
    FORCOR:  cpu time    0.4036: real time    0.4046
    FORHAR:  cpu time    0.1027: real time    0.1029
    MIXING:  cpu time    0.0127: real time    0.0127
    OFIELD:  cpu time    0.0001: real time    0.0001

 ---------------------------------------------------------------------------------------------

         DFTD3 V3.0 Rev 1        
 Edisp (eV)  -38.69807

 E6    (eV) :   -14.2567
 E8    (eV) :   -24.4414
 % E8        : 63.16
    FORVDW:  cpu time    0.3050: real time    0.3064

  FORCE on cell =-STRESS in cart. coord.  units (eV):
  Direction    XX          YY          ZZ          XY          YZ          ZX
  --------------------------------------------------------------------------------------
  Alpha Z  2015.86452  2015.86452  2015.86452
  Ewald  163260.30494163260.32347************     0.01605     0.00916    -0.01588
  Hartree174137.77085174137.77597************     0.00443     0.00176    -0.00306
  E(xc)   -2856.29341 -2856.29322 -2881.78556     0.00016     0.00012    -0.00020
  Local  ************************359547.91530    -0.01593    -0.00710     0.01231
  n-local   572.73250   586.63114   315.54314    -4.00983     2.92510     1.62920
  augment  3253.08099  3253.07814  3532.95607    -0.00247    -0.00149     0.00256
  Kinetic  9195.45638  9106.85567  9741.43448    25.57039     7.68841     4.44632
  Fock        0.00000     0.00000     0.00000     0.00000     0.00000     0.00000
  vdW       -53.55119   -53.55147   -28.88451    -0.00024     0.00006    -0.00010
  -------------------------------------------------------------------------------------
  Total      82.96191    82.96069     0.17133    -0.00105    -0.00051     0.00089
  in kB      68.81780    68.81680     0.14212    -0.00087    -0.00043     0.00074
  external pressure =       45.93 kB  Pullay stress =        0.00 kB


 VOLUME and BASIS-vectors are now :
 -----------------------------------------------------------------------------
  energy-cutoff  :      550.00
  volume of cell :     1931.47
      direct lattice vectors                 reciprocal lattice vectors
    10.560000420  0.000000000  0.000000000     0.094696966  0.054673319  0.000000000
    -5.280000210  9.145228627  0.000000000     0.000000000  0.109346638  0.000000000
     0.000000000  0.000000000 20.000000000     0.000000000  0.000000000  0.050000000

  length of vectors
    10.560000420 10.560000420 20.000000000     0.109346638  0.109346638  0.050000000


 FORCES acting on ions
    electron-ion (+dipol)            ewald-force                    non-local-force                 convergence-correction
 -----------------------------------------------------------------------------------------------
   0.452E-05 0.620E-04 0.231E+04   -.796E-04 -.164E-03 -.231E+04   -.355E-04 0.205E-04 -.105E+00   -.740E-07 0.385E-07 0.568E-03
   -.457E-03 0.330E-03 0.780E+03   0.256E-03 -.326E-03 -.780E+03   0.877E-05 -.506E-05 -.404E+00   -.555E-07 0.493E-07 0.595E-03
   0.523E-03 -.242E-03 -.780E+03   -.461E-03 0.170E-03 0.780E+03   -.877E-05 0.506E-05 0.404E+00   0.698E-07 -.232E-07 -.596E-03
   0.314E-04 0.393E-04 -.231E+04   -.376E-04 -.166E-03 0.231E+04   0.355E-04 -.205E-04 0.105E+00   0.721E-07 -.414E-07 -.568E-03
   0.961E-05 0.441E-04 0.231E+04   -.994E-04 -.681E-04 -.231E+04   -.355E-04 0.205E-04 -.105E+00   -.727E-07 0.401E-07 0.568E-03
   -.448E-03 0.320E-03 0.780E+03   0.291E-03 -.327E-03 -.780E+03   0.877E-05 -.506E-05 -.404E+00   -.521E-07 0.358E-07 0.595E-03
   0.509E-03 -.237E-03 -.780E+03   -.422E-03 0.124E-03 0.780E+03   -.877E-05 0.506E-05 0.404E+00   0.687E-07 -.190E-07 -.596E-03
   0.384E-04 0.257E-04 -.231E+04   -.636E-04 -.835E-04 0.231E+04   0.355E-04 -.205E-04 0.105E+00   0.716E-07 -.426E-07 -.568E-03
   0.107E-04 0.452E-04 0.231E+04   -.103E-03 -.718E-04 -.231E+04   -.355E-04 0.205E-04 -.105E+00   -.766E-07 0.392E-07 0.568E-03
   -.451E-03 0.326E-03 0.780E+03   0.301E-03 -.346E-03 -.780E+03   0.877E-05 -.506E-05 -.404E+00   -.542E-07 0.355E-07 0.595E-03
   0.487E-03 -.225E-03 -.780E+03   -.417E-03 0.845E-04 0.780E+03   -.877E-05 0.506E-05 0.404E+00   0.588E-07 -.208E-07 -.596E-03
   0.322E-04 0.259E-04 -.231E+04   -.431E-04 -.842E-04 0.231E+04   0.355E-04 -.205E-04 0.105E+00   0.736E-07 -.423E-07 -.568E-03
   0.161E-06 0.707E-04 0.231E+04   -.652E-04 -.193E-03 -.231E+04   -.355E-04 0.205E-04 -.105E+00   -.760E-07 0.365E-07 0.568E-03
   -.461E-03 0.321E-03 0.780E+03   0.296E-03 -.297E-03 -.780E+03   0.877E-05 -.506E-05 -.404E+00   -.542E-07 0.460E-07 0.595E-03
   0.507E-03 -.240E-03 -.780E+03   -.410E-03 0.163E-03 0.780E+03   -.877E-05 0.506E-05 0.404E+00   0.624E-07 -.269E-07 -.596E-03
   0.194E-04 0.439E-04 -.231E+04   0.157E-05 -.181E-03 0.231E+04   0.355E-04 -.205E-04 0.105E+00   0.745E-07 -.409E-07 -.568E-03
   -.173E-04 0.580E-04 0.231E+04   -.908E-05 -.152E-03 -.231E+04   -.355E-04 0.205E-04 -.105E+00   -.653E-07 0.406E-07 0.568E-03
   -.459E-03 0.294E-03 0.780E+03   0.522E-03 -.209E-03 -.780E+03   0.877E-05 -.506E-05 -.404E+00   -.601E-07 0.426E-07 0.595E-03
   0.478E-03 -.231E-03 -.780E+03   -.450E-03 0.134E-03 0.780E+03   -.877E-05 0.506E-05 0.404E+00   0.424E-07 -.340E-07 -.596E-03
   0.300E-04 0.433E-04 -.231E+04   -.328E-04 -.179E-03 0.231E+04   0.355E-04 -.205E-04 0.105E+00   0.672E-07 -.441E-07 -.568E-03
   0.208E-06 0.424E-04 0.231E+04   0.579E-05 -.632E-04 -.231E+04   -.355E-04 0.205E-04 -.105E+00   -.672E-07 0.442E-07 0.568E-03
   -.458E-03 0.304E-03 0.780E+03   0.586E-03 -.275E-03 -.780E+03   0.877E-05 -.506E-05 -.404E+00   -.635E-07 0.336E-07 0.595E-03
   0.465E-03 -.228E-03 -.780E+03   -.478E-03 0.946E-04 0.780E+03   -.877E-05 0.506E-05 0.404E+00   0.445E-07 -.310E-07 -.596E-03
   0.426E-04 0.376E-04 -.231E+04   -.230E-05 -.122E-03 0.231E+04   0.355E-04 -.205E-04 0.105E+00   0.682E-07 -.460E-07 -.568E-03
   -.104E-04 0.794E-05 0.231E+04   0.177E-03 0.496E-04 -.231E+04   -.355E-04 0.205E-04 -.105E+00   -.627E-07 0.444E-07 0.568E-03
   -.448E-03 0.267E-03 0.780E+03   0.554E-03 -.154E-03 -.780E+03   0.877E-05 -.506E-05 -.404E+00   -.593E-07 0.359E-07 0.595E-03
   0.488E-03 -.246E-03 -.780E+03   -.420E-03 0.152E-03 0.780E+03   -.877E-05 0.506E-05 0.404E+00   0.574E-07 -.271E-07 -.596E-03
   0.424E-04 0.277E-05 -.231E+04   0.136E-03 -.837E-05 0.231E+04   0.355E-04 -.205E-04 0.105E+00   0.656E-07 -.465E-07 -.568E-03
   -.173E-04 0.277E-04 0.231E+04   0.135E-03 -.527E-04 -.231E+04   -.355E-04 0.205E-04 -.105E+00   -.639E-07 0.424E-07 0.568E-03
   -.462E-03 0.296E-03 0.780E+03   0.659E-03 -.214E-03 -.780E+03   0.877E-05 -.506E-05 -.404E+00   -.595E-07 0.471E-07 0.595E-03
   0.493E-03 -.243E-03 -.780E+03   -.364E-03 0.172E-03 0.780E+03   -.877E-05 0.506E-05 0.404E+00   0.548E-07 -.291E-07 -.596E-03
   0.334E-04 0.161E-04 -.231E+04   0.999E-04 -.900E-04 0.231E+04   0.355E-04 -.205E-04 0.105E+00   0.654E-07 -.447E-07 -.568E-03
   0.872E-05 0.591E-04 0.231E+04   -.904E-04 -.848E-04 -.231E+04   -.355E-04 0.205E-04 -.105E+00   -.714E-07 0.376E-07 0.568E-03
   -.441E-03 0.283E-03 0.780E+03   0.329E-03 -.171E-03 -.780E+03   0.877E-05 -.506E-05 -.404E+00   -.533E-07 0.188E-07 0.595E-03
   0.487E-03 -.258E-03 -.780E+03   -.351E-03 0.292E-03 0.780E+03   -.877E-05 0.506E-05 0.404E+00   0.657E-07 -.321E-07 -.596E-03
   0.375E-04 0.250E-04 -.231E+04   -.546E-04 -.492E-04 0.231E+04   0.355E-04 -.205E-04 0.105E+00   0.722E-07 -.360E-07 -.568E-03
   -.192E-04 0.363E-04 0.231E+04   -.709E-04 0.168E-03 -.231E+04   -.355E-04 0.205E-04 -.105E+00   -.732E-07 0.380E-07 0.568E-03
   -.460E-03 0.337E-03 0.780E+03   0.328E-03 -.449E-03 -.780E+03   0.877E-05 -.506E-05 -.404E+00   -.560E-07 0.358E-07 0.595E-03
   0.471E-03 -.273E-03 -.780E+03   -.430E-03 0.435E-03 0.780E+03   -.877E-05 0.506E-05 0.404E+00   0.672E-07 -.337E-07 -.596E-03
   0.788E-05 0.864E-05 -.231E+04   -.294E-04 0.183E-03 0.231E+04   0.355E-04 -.205E-04 0.105E+00   0.728E-07 -.357E-07 -.568E-03
   -.199E-04 0.337E-04 0.231E+04   -.683E-04 0.177E-03 -.231E+04   -.355E-04 0.205E-04 -.105E+00   -.744E-07 0.354E-07 0.568E-03
   -.464E-03 0.314E-03 0.780E+03   0.339E-03 -.372E-03 -.780E+03   0.877E-05 -.506E-05 -.404E+00   -.574E-07 0.345E-07 0.595E-03
   0.460E-03 -.279E-03 -.780E+03   -.460E-03 0.454E-03 0.780E+03   -.877E-05 0.506E-05 0.404E+00   0.622E-07 -.401E-07 -.596E-03
   0.350E-05 -.180E-05 -.231E+04   -.151E-04 0.217E-03 0.231E+04   0.355E-04 -.205E-04 0.105E+00   0.736E-07 -.343E-07 -.568E-03
   0.378E-05 0.516E-04 0.231E+04   -.739E-04 -.604E-04 -.231E+04   -.355E-04 0.205E-04 -.105E+00   -.752E-07 0.368E-07 0.568E-03
   -.466E-03 0.288E-03 0.780E+03   0.411E-03 -.188E-03 -.780E+03   0.877E-05 -.506E-05 -.404E+00   -.574E-07 0.201E-07 0.595E-03
   0.475E-03 -.256E-03 -.780E+03   -.441E-03 0.284E-03 0.780E+03   -.877E-05 0.506E-05 0.404E+00   0.594E-07 -.365E-07 -.596E-03
   0.269E-04 0.156E-04 -.231E+04   -.198E-04 -.187E-04 0.231E+04   0.355E-04 -.205E-04 0.105E+00   0.728E-07 -.349E-07 -.568E-03
   0.189E-05 0.347E-04 0.231E+04   -.684E-04 -.582E-05 -.231E+04   -.355E-04 0.205E-04 -.105E+00   -.674E-07 0.434E-07 0.568E-03
   -.461E-03 0.248E-03 0.780E+03   0.396E-03 -.591E-04 -.780E+03   0.877E-05 -.506E-05 -.404E+00   -.633E-07 0.164E-07 0.595E-03
   0.451E-03 -.254E-03 -.780E+03   -.496E-03 0.279E-03 0.780E+03   -.877E-05 0.506E-05 0.404E+00   0.475E-07 -.464E-07 -.596E-03
   0.436E-04 0.152E-04 -.231E+04   -.742E-04 -.175E-04 0.231E+04   0.355E-04 -.205E-04 0.105E+00   0.679E-07 -.387E-07 -.568E-03
   -.298E-04 0.198E-04 0.231E+04   -.367E-04 0.221E-03 -.231E+04   -.355E-04 0.205E-04 -.105E+00   -.658E-07 0.409E-07 0.568E-03
   -.460E-03 0.299E-03 0.780E+03   0.462E-03 -.323E-03 -.780E+03   0.877E-05 -.506E-05 -.404E+00   -.596E-07 0.297E-07 0.595E-03
   0.437E-03 -.273E-03 -.780E+03   -.518E-03 0.437E-03 0.780E+03   -.877E-05 0.506E-05 0.404E+00   0.470E-07 -.488E-07 -.596E-03
   0.159E-04 -.116E-05 -.231E+04   -.553E-04 0.215E-03 0.231E+04   0.355E-04 -.205E-04 0.105E+00   0.669E-07 -.376E-07 -.568E-03
   -.324E-04 -.917E-05 0.231E+04   0.109E-03 0.316E-03 -.231E+04   -.355E-04 0.205E-04 -.105E+00   -.659E-07 0.426E-07 0.568E-03
   -.464E-03 0.287E-03 0.780E+03   0.602E-03 -.284E-03 -.780E+03   0.877E-05 -.506E-05 -.404E+00   -.563E-07 0.325E-07 0.595E-03
   0.444E-03 -.269E-03 -.780E+03   -.405E-03 0.423E-03 0.780E+03   -.877E-05 0.506E-05 0.404E+00   0.530E-07 -.398E-07 -.596E-03
   0.142E-04 -.274E-04 -.231E+04   0.876E-04 0.300E-03 0.231E+04   0.355E-04 -.205E-04 0.105E+00   0.660E-07 -.390E-07 -.568E-03
   -.250E-05 0.185E-04 0.231E+04   0.227E-03 0.473E-04 -.231E+04   -.355E-04 0.205E-04 -.105E+00   -.654E-07 0.441E-07 0.568E-03
   -.454E-03 0.236E-03 0.780E+03   0.631E-03 -.182E-04 -.780E+03   0.877E-05 -.506E-05 -.404E+00   -.554E-07 0.164E-07 0.595E-03
   0.474E-03 -.264E-03 -.780E+03   -.438E-03 0.311E-03 0.780E+03   -.877E-05 0.506E-05 0.404E+00   0.565E-07 -.407E-07 -.596E-03
   0.416E-04 0.204E-05 -.231E+04   0.213E-03 0.257E-04 0.231E+04   0.355E-04 -.205E-04 0.105E+00   0.664E-07 -.401E-07 -.568E-03
 -----------------------------------------------------------------------------------------------
   0.687E-03 0.160E-02 0.544E-02   -.574E-12 -.103E-11 -.455E-12   0.190E-17 -.743E-17 0.341E-14   0.221E-09 0.543E-09 -.639E-05
 
 
 POSITION                                       TOTAL-FORCE (eV/Angst)
 -----------------------------------------------------------------------------------
     -0.00002      0.00001      1.11585        -0.000060      0.000035     -0.004854
      2.63997      1.52422      3.55048        -0.000023      0.000013     -0.027170
      0.00003      3.04839      5.94592         0.000023     -0.000013      0.027170
      0.00002     -0.00001      8.38055         0.000060     -0.000035      0.004854
      9.23998      2.28632      1.11585        -0.000060      0.000035     -0.004854
      1.31997      3.81053      3.55048        -0.000023      0.000013     -0.027170
      1.32003      0.76209      5.94592         0.000023     -0.000013      0.027170
     -1.31998      2.28629      8.38055         0.000060     -0.000035      0.004854
      1.31998      2.28632      1.11585        -0.000060      0.000035     -0.004854
     -1.32003      3.81053      3.55048        -0.000023      0.000013     -0.027170
      3.96003      0.76209      5.94592         0.000023     -0.000013      0.027170
      1.32002      2.28629      8.38055         0.000060     -0.000035      0.004854
      2.63998      0.00001      1.11585        -0.000060      0.000035     -0.004854
     -0.00003      1.52422      3.55048        -0.000023      0.000013     -0.027170
      2.64003      3.04839      5.94592         0.000023     -0.000013      0.027170
      2.64002     -0.00001      8.38055         0.000060     -0.000035      0.004854
      5.27998      0.00001      1.11585        -0.000060      0.000035     -0.004854
      7.91997      1.52422      3.55048        -0.000023      0.000013     -0.027170
      5.28003      3.04839      5.94592         0.000023     -0.000013      0.027170
      5.28002     -0.00001      8.38055         0.000060     -0.000035      0.004854
      3.95998      2.28632      1.11585        -0.000060      0.000035     -0.004854
      6.59997      3.81053      3.55048        -0.000023      0.000013     -0.027170
      6.60003      0.76209      5.94592         0.000023     -0.000013      0.027170
      3.96002      2.28629      8.38055         0.000060     -0.000035      0.004854
      6.59998      2.28632      1.11585        -0.000060      0.000035     -0.004854
      3.95997      3.81053      3.55048        -0.000023      0.000013     -0.027170
      9.24003      0.76209      5.94592         0.000023     -0.000013      0.027170
      6.60002      2.28629      8.38055         0.000060     -0.000035      0.004854
      7.91998      0.00001      1.11585        -0.000060      0.000035     -0.004854
      5.27997      1.52422      3.55048        -0.000023      0.000013     -0.027170
      7.92003      3.04839      5.94592         0.000023     -0.000013      0.027170
      7.92002     -0.00001      8.38055         0.000060     -0.000035      0.004854
      7.91998      4.57263      1.11585        -0.000060      0.000035     -0.004854
     -0.00003      6.09683      3.55048        -0.000023      0.000013     -0.027170
     -2.63997      7.62101      5.94592         0.000023     -0.000013      0.027170
     -2.63998      4.57260      8.38055         0.000060     -0.000035      0.004854
      6.59998      6.85894      1.11585        -0.000060      0.000035     -0.004854
     -1.32003      8.38314      3.55048        -0.000023      0.000013     -0.027170
     -1.31997      5.33470      5.94592         0.000023     -0.000013      0.027170
     -3.95998      6.85891      8.38055         0.000060     -0.000035      0.004854
     -1.32002      6.85894      1.11585        -0.000060      0.000035     -0.004854
     -3.96003      8.38314      3.55048        -0.000023      0.000013     -0.027170
      1.32003      5.33470      5.94592         0.000023     -0.000013      0.027170
     -1.31998      6.85891      8.38055         0.000060     -0.000035      0.004854
     -0.00002      4.57263      1.11585        -0.000060      0.000035     -0.004854
     -2.64003      6.09683      3.55048        -0.000023      0.000013     -0.027170
      0.00003      7.62101      5.94592         0.000023     -0.000013      0.027170
      0.00002      4.57260      8.38055         0.000060     -0.000035      0.004854
      2.63998      4.57263      1.11585        -0.000060      0.000035     -0.004854
      5.27997      6.09683      3.55048        -0.000023      0.000013     -0.027170
      2.64003      7.62101      5.94592         0.000023     -0.000013      0.027170
      2.64002      4.57260      8.38055         0.000060     -0.000035      0.004854
      1.31998      6.85894      1.11585        -0.000060      0.000035     -0.004854
      3.95997      8.38314      3.55048        -0.000023      0.000013     -0.027170
      3.96003      5.33470      5.94592         0.000023     -0.000013      0.027170
      1.32002      6.85891      8.38055         0.000060     -0.000035      0.004854
      3.95998      6.85894      1.11585        -0.000060      0.000035     -0.004854
      1.31997      8.38314      3.55048        -0.000023      0.000013     -0.027170
      6.60003      5.33470      5.94592         0.000023     -0.000013      0.027170
      3.96002      6.85891      8.38055         0.000060     -0.000035      0.004854
      5.27998      4.57263      1.11585        -0.000060      0.000035     -0.004854
      2.63997      6.09683      3.55048        -0.000023      0.000013     -0.027170
      5.28003      7.62101      5.94592         0.000023     -0.000013      0.027170
      5.28002      4.57260      8.38055         0.000060     -0.000035      0.004854
 -----------------------------------------------------------------------------------
    total drift:                                0.000687      0.001605      0.005433


--------------------------------------------------------------------------------------------------------



  FREE ENERGIE OF THE ION-ELECTRON SYSTEM (eV)
  ---------------------------------------------------
  free  energy   TOTEN  =      -405.08632054 eV

  energy  without entropy=     -405.07032360  energy(sigma->0) =     -405.08098823
 
 d Force = 0.3971175E-01[ 0.127E-01, 0.667E-01]  d Energy = 0.3800046E-01 0.171E-02
 d Force = 0.1687681E+04[ 0.168E+04, 0.169E+04]  d Ewald  = 0.1687682E+04-0.756E-03


--------------------------------------------------------------------------------------------------------


    POTLOK:  cpu time    0.4157: real time    0.4167


--------------------------------------------------------------------------------------------------------




--------------------------------------------------------------------------------------------------------


  
 reached required accuracy - stopping structural energy minimisation
     LOOP+:  cpu time  431.7506: real time  433.2350
    4ORBIT:  cpu time    0.0000: real time    0.0000

 total amount of memory used by VASP MPI-rank0   178671. kBytes
=======================================================================

   base      :      30000. kBytes
   nonlr-proj:      30696. kBytes
   fftplans  :      17093. kBytes
   grid      :      42083. kBytes
   one-center:        497. kBytes
   wavefun   :      58302. kBytes
 
  
  
 General timing and accounting informations for this job:
 ========================================================
  
                  Total CPU time used (sec):     3411.210
                            User time (sec):     3404.887
                          System time (sec):        6.323
                         Elapsed time (sec):     3422.816
  
                   Maximum memory used (kb):      580620.
                   Average memory used (kb):           0.
  
                          Minor page faults:      1421761
                          Major page faults:            0
                 Voluntary context switches:         3798
