 vasp.5.4.4.18Apr17-6-g9f103f2a35 (build Nov 30 2020 22:55:02) complex          
  
 executed on             LinuxIFC date 2023.09.09  20:33:58
 running on   40 total cores
 distrk:  each k-point on   40 cores,    1 groups
 distr:  one band on NCORES_PER_BAND=   4 cores,   10 groups


--------------------------------------------------------------------------------------------------------


 INCAR:
 POTCAR:    PAW_PBE Cu 22Jun2005                  
 POTCAR:    PAW_PBE Pt 04Feb2005                  
 POTCAR:    PAW_PBE Cu 22Jun2005                  
   VRHFIN =Cu: d10 p1                                                           
   LEXCH  = PE                                                                  
   EATOM  =  1390.9808 eV,  102.2342 Ry                                         
                                                                                
   TITEL  = PAW_PBE Cu 22Jun2005                                                
   LULTRA =        F    use ultrasoft PP ?                                      
   IUNSCR =        1    unscreen: 0-lin 1-nonlin 2-no                           
   RPACOR =    2.000    partial core radius                                     
   POMASS =   63.546; ZVAL   =   11.000    mass and valenz                      
   RCORE  =    2.300    outmost cutoff radius                                   
   RWIGS  =    2.200; RWIGS  =    1.164    wigner-seitz radius (au A)           
   ENMAX  =  295.446; ENMIN  =  221.585 eV                                      
   ICORE  =        3    local potential                                         
   LCOR   =        T    correct aug charges                                     
   LPAW   =        T    paw PP                                                  
   EAUG   =  586.980                                                            
   DEXC   =    0.000                                                            
   RMAX   =    2.344    core radius for proj-oper                               
   RAUG   =    1.300    factor for augmentation sphere                          
   RDEP   =    2.302    radius for radial grids                                 
   RDEPT  =    1.771    core radius for aug-charge                              
                                                                                
   Atomic configuration                                                         
    9 entries                                                                   
     n  l   j            E        occ.                                          
     1  0  0.50     -8850.2468   2.0000                                         
     2  0  0.50     -1062.3498   2.0000                                         
     2  1  1.50      -916.8226   6.0000                                         
     3  0  0.50      -114.6929   2.0000                                         
     3  1  1.50       -72.1325   6.0000                                         
     3  2  2.50        -5.0394  10.0000                                         
     4  0  0.50        -4.6097   1.0000                                         
     4  1  0.50        -4.0817   0.0000                                         
     4  3  2.50        -1.3606   0.0000                                         
   Description                                                                  
     l       E           TYP  RCUT    TYP  RCUT                                 
     2     -5.0393973     23  2.200                                             
     2     10.8846608     23  2.200                                             
     0     -4.6097109     23  2.200                                             
     0      8.2520465     23  2.200                                             
     1     -2.7211652     23  2.200                                             
     1     21.7055443     23  2.200                                             
     3      2.7211652     23  2.300                                             
  local pseudopotential read in
  partial core-charges read in
  partial kinetic energy density read in
  atomic valenz-charges read in
  non local Contribution for L=           2  read in
    real space projection operators read in
  non local Contribution for L=           2  read in
    real space projection operators read in
  non local Contribution for L=           0  read in
    real space projection operators read in
  non local Contribution for L=           0  read in
    real space projection operators read in
  non local Contribution for L=           1  read in
    real space projection operators read in
  non local Contribution for L=           1  read in
    real space projection operators read in
    PAW grid and wavefunctions read in
 
   number of l-projection  operators is LMAX  =           6
   number of lm-projection operators is LMMAX =          18
 
 POTCAR:    PAW_PBE Pt 04Feb2005                  
   VRHFIN =Pt: s1d9                                                             
   LEXCH  = PE                                                                  
   EATOM  =   729.1176 eV,   53.5886 Ry                                         
                                                                                
   TITEL  = PAW_PBE Pt 04Feb2005                                                
   LULTRA =        F    use ultrasoft PP ?                                      
   IUNSCR =        1    unscreen: 0-lin 1-nonlin 2-no                           
   RPACOR =    2.330    partial core radius                                     
   POMASS =  195.080; ZVAL   =   10.000    mass and valenz                      
   RCORE  =    2.600    outmost cutoff radius                                   
   RWIGS  =    2.750; RWIGS  =    1.455    wigner-seitz radius (au A)           
   ENMAX  =  230.283; ENMIN  =  172.712 eV                                      
   ICORE  =        3    local potential                                         
   LCOR   =        T    correct aug charges                                     
   LPAW   =        T    paw PP                                                  
   EAUG   =  358.966                                                            
   DEXC   =    0.000                                                            
   RMAX   =    2.658    core radius for proj-oper                               
   RAUG   =    1.300    factor for augmentation sphere                          
   RDEP   =    2.761    radius for radial grids                                 
   RDEPT  =    2.203    core radius for aug-charge                              
                                                                                
   Atomic configuration                                                         
   16 entries                                                                   
     n  l   j            E        occ.                                          
     1  0  0.50    -78401.1885   2.0000                                         
     2  0  0.50    -13770.7750   2.0000                                         
     2  1  1.50    -11931.0468   6.0000                                         
     3  0  0.50     -3234.7234   2.0000                                         
     3  1  1.50     -2699.2216   6.0000                                         
     3  2  2.50     -2119.5714  10.0000                                         
     4  0  0.50      -695.1528   2.0000                                         
     4  1  1.50      -519.6034   6.0000                                         
     4  2  2.50      -306.6786  10.0000                                         
     4  3  3.50       -70.1041  14.0000                                         
     5  0  0.50      -101.7747   2.0000                                         
     5  1  1.50       -55.9873   6.0000                                         
     5  2  2.50        -6.1423   9.0000                                         
     6  0  0.50        -5.6573   1.0000                                         
     6  1  1.50        -6.8029   0.0000                                         
     5  3  2.50        -1.3606   0.0000                                         
   Description                                                                  
     l       E           TYP  RCUT    TYP  RCUT                                 
     2     -6.1423404     23  2.500                                             
     2     -7.5029230     23  2.500                                             
     0     -5.6573207     23  2.500                                             
     0      0.7416693     23  2.500                                             
     1     -2.7211652     23  2.600                                             
     1     20.4087390     23  2.600                                             
     3     -1.3605826     23  2.500                                             
  local pseudopotential read in
  partial core-charges read in
  partial kinetic energy density read in
  atomic valenz-charges read in
  non local Contribution for L=           2  read in
    real space projection operators read in
  non local Contribution for L=           2  read in
    real space projection operators read in
  non local Contribution for L=           0  read in
    real space projection operators read in
  non local Contribution for L=           0  read in
    real space projection operators read in
  non local Contribution for L=           1  read in
    real space projection operators read in
  non local Contribution for L=           1  read in
    real space projection operators read in
    PAW grid and wavefunctions read in
 
   number of l-projection  operators is LMAX  =           6
   number of lm-projection operators is LMMAX =          18
 
 Optimization of the real space projectors (new method)

 maximal supplied QI-value         = 16.25
 optimisation between [QCUT,QGAM] = [ 11.86, 23.89] = [ 39.41,159.82] Ry 
 Optimized for a Real-space Cutoff    1.49 Angstroem

   l    n(q)    QCUT    max X(q) W(low)/X(q) W(high)/X(q)  e(spline) 
   2     10    11.864     4.610    0.10E-03    0.20E-03    0.29E-06
   2     10    11.864     8.522    0.17E-03    0.33E-03    0.50E-06
   0     11    11.864    51.609    0.52E-04    0.55E-04    0.33E-06
   0     11    11.864    27.747    0.46E-04    0.52E-04    0.31E-06
   1     10    11.864    20.408    0.54E-04    0.25E-04    0.21E-06
   1     10    11.864    13.425    0.48E-04    0.22E-04    0.18E-06
 Optimization of the real space projectors (new method)

 maximal supplied QI-value         = 14.36
 optimisation between [QCUT,QGAM] = [ 11.92, 23.98] = [ 39.79,161.09] Ry 
 Optimized for a Real-space Cutoff    1.49 Angstroem

   l    n(q)    QCUT    max X(q) W(low)/X(q) W(high)/X(q)  e(spline) 
   2     10    11.920    66.195    0.79E-04    0.18E-03    0.24E-06
   2     10    11.920    64.643    0.81E-04    0.19E-03    0.24E-06
   0     11    11.920    95.520    0.28E-04    0.54E-04    0.18E-06
   0     11    11.920    63.403    0.27E-04    0.52E-04    0.17E-06
   1     10    11.920    19.961    0.18E-04    0.11E-03    0.23E-06
   1     10    11.920    13.289    0.25E-04    0.87E-04    0.19E-06
  PAW_PBE Cu 22Jun2005                  :
 energy of atom  1       EATOM=-1390.9808
 kinetic energy error for atom=    0.0036 (will be added to EATOM!!)
  PAW_PBE Pt 04Feb2005                  :
 energy of atom  2       EATOM= -729.1176
 kinetic energy error for atom=    0.0021 (will be added to EATOM!!)
 
 
 POSCAR: PtM\(2)                                 
  positions in direct lattice
  velocities in cartesian coordinates
 exchange correlation table for  LEXCH =        8
   RHO(1)=    0.500       N(1)  =     2000
   RHO(2)=  100.500       N(2)  =     4000
 


--------------------------------------------------------------------------------------------------------


 ion  position               nearest neighbor table
   1  0.785  0.869  0.311-  55 2.42  20 2.42  39 2.42  65 2.63  73 2.63  72 2.63  40 2.64   3 2.64
                             2 2.64  57 2.64  56 2.64  29 2.64
   2  0.035  0.869  0.311-  49 2.42  39 2.42  52 2.42  67 2.63  77 2.63  65 2.63  41 2.64   1 2.64
                            33 2.64   3 2.64  23 2.64  56 2.64
   3  0.035  0.619  0.311-  39 2.42  12 2.42  60 2.42  77 2.63  66 2.63  73 2.64  15 2.64   1 2.64
                            41 2.64  40 2.64   2 2.64   9 2.64
   4  0.787  0.868  0.051-  21 2.41  62 2.41  19 2.41   5 2.64   6 2.64  42 2.64  59 2.64  58 2.64
                            30 2.64
   5  0.037  0.868  0.051-  54 2.41  35 2.41  62 2.41  58 2.64  24 2.64   4 2.64  43 2.64   6 2.64
                            34 2.64
   6  0.037  0.618  0.051-  32 2.41  54 2.41  21 2.41  43 2.64  10 2.64  18 2.64   4 2.64  42 2.64
                             5 2.64
   7  0.620  0.202  0.136-  28 2.41  30 2.41  58 2.41  55 2.49  63 2.50  64 2.51  62 2.64  11 2.64
                            37 2.64  19 2.64  45 2.64  22 2.64
   8  0.370  0.952  0.136-  16 2.41  24 2.41  59 2.41  50 2.50  53 2.50  26 2.51  38 2.64  25 2.64
                            44 2.64  19 2.64  37 2.64  35 2.64
   9  0.035  0.369  0.311-  12 2.42  61 2.42  46 2.42  71 2.63  66 2.63  68 2.64  33 2.64  15 2.64
                            40 2.64   3 2.64  13 2.64  47 2.64
  10  0.037  0.368  0.051-  38 2.41  32 2.41  31 2.41   6 2.64  48 2.64  34 2.64  18 2.64  42 2.64
                            16 2.64
  11  0.870  0.202  0.136-  48 2.41  58 2.41  34 2.41  49 2.49  61 2.50  63 2.51  35 2.64   7 2.64
                            22 2.64  38 2.64  31 2.64  62 2.64
  12  0.952  0.536  0.226-   9 2.42   3 2.42  40 2.42  21 2.50  31 2.50  32 2.50  39 2.64  20 2.64
                            61 2.64  51 2.64  46 2.64  60 2.64
  13  0.285  0.119  0.311-  46 2.42  26 2.42  53 2.42  69 2.63  74 2.63  71 2.64  23 2.64  15 2.64
                            29 2.64  33 2.64  57 2.64   9 2.64
  14  0.535  0.619  0.311-  36 2.42  50 2.42  51 2.42  80 2.63  76 2.63  75 2.63  23 2.64  47 2.64
                            41 2.64  57 2.64  27 2.64  40 2.64
  15  0.285  0.369  0.311-  46 2.42  60 2.42  64 2.42  74 2.63  79 2.63  66 2.64   3 2.64   9 2.64
                            13 2.64  29 2.64  41 2.64  27 2.64
  16  0.287  0.118  0.051-   8 2.41  37 2.41  38 2.41  18 2.64  30 2.64  59 2.64  34 2.64  10 2.64
                            24 2.64
  17  0.536  0.618  0.051-  22 2.41  25 2.41  44 2.41  43 2.64  28 2.64  24 2.64  59 2.64  48 2.64
                            42 2.64
  18  0.287  0.368  0.051-  37 2.41  45 2.41  32 2.41  16 2.64   6 2.64  43 2.64  10 2.64  28 2.64
                            30 2.64
  19  0.620  0.952  0.136-  30 2.41  59 2.41   4 2.41  20 2.50  55 2.50  53 2.51  62 2.64  21 2.64
                            37 2.64   7 2.64  25 2.64   8 2.64
  20  0.702  0.786  0.226-  40 2.42   1 2.42  57 2.42  19 2.50  25 2.50  21 2.51  50 2.64  51 2.64
                            12 2.64  55 2.64  53 2.64  39 2.64
  21  0.870  0.702  0.136-   4 2.41  42 2.41   6 2.41  12 2.50  39 2.50  20 2.51  31 2.64  19 2.64
                            62 2.64  25 2.64  32 2.64  54 2.64
  22  0.620  0.452  0.136-  17 2.41  28 2.41  48 2.41  63 2.49  51 2.50  36 2.51  31 2.64  25 2.64
                            45 2.64  11 2.64  44 2.64   7 2.64
  23  0.285  0.869  0.311-  26 2.42  52 2.42  50 2.42  69 2.63  75 2.63  67 2.64  14 2.64  13 2.64
                            57 2.64   2 2.64  33 2.64  41 2.64
  24  0.286  0.868  0.051-  44 2.41   8 2.41  35 2.41  34 2.64   5 2.64  17 2.64  43 2.64  59 2.64
                            16 2.64
  25  0.620  0.702  0.136-  59 2.41  17 2.41  42 2.41  51 2.50  20 2.50  50 2.51  22 2.64  31 2.64
                             8 2.64  44 2.64  19 2.64  21 2.64
  26  0.202  0.036  0.226-  23 2.42  13 2.42  33 2.42  38 2.49  35 2.50   8 2.51  53 2.64  52 2.64
                            46 2.64  50 2.64  49 2.64  61 2.64
  27  0.535  0.369  0.311-  64 2.42  36 2.42  63 2.42  78 2.63  76 2.63  79 2.63  41 2.64  29 2.64
                            47 2.64  15 2.64  14 2.64  56 2.64
  28  0.537  0.368  0.051-   7 2.41  22 2.41  45 2.41  30 2.64  58 2.64  17 2.64  18 2.64  48 2.64
                            43 2.64
  29  0.535  0.119  0.311-  64 2.42  53 2.42  55 2.42  78 2.63  72 2.63  74 2.63  27 2.64  13 2.64
                            15 2.64  57 2.64  56 2.64   1 2.64
  30  0.537  0.118  0.051-  19 2.41   7 2.41  37 2.41  28 2.64  16 2.64  59 2.64  58 2.64  18 2.64
                             4 2.64
  31  0.870  0.452  0.136-  42 2.41  48 2.41  10 2.41  61 2.50  12 2.50  51 2.51  22 2.64  21 2.64
                            25 2.64  11 2.64  32 2.64  38 2.64
  32  0.120  0.452  0.136-   6 2.41  10 2.41  18 2.41  46 2.49  60 2.50  12 2.50  38 2.64  54 2.64
                            21 2.64  37 2.64  45 2.64  31 2.64
  33  0.035  0.119  0.311-  61 2.42  49 2.42  26 2.42  67 2.63  71 2.63  70 2.63   9 2.64   2 2.64
                            56 2.64  13 2.64  47 2.64  23 2.64
  34  0.037  0.118  0.051-  35 2.41  38 2.41  11 2.41  24 2.64  10 2.64  48 2.64  16 2.64  58 2.64
                             5 2.64
  35  0.120  0.952  0.136-  34 2.41   5 2.41  24 2.41  52 2.50  26 2.50  49 2.50  11 2.64  38 2.64
                            54 2.64  44 2.64   8 2.64  62 2.64
  36  0.452  0.536  0.226-  27 2.42  14 2.42  41 2.42  44 2.50  45 2.50  22 2.51  52 2.64  51 2.64
                            63 2.64  50 2.64  60 2.64  64 2.64
  37  0.370  0.202  0.136-  18 2.41  16 2.41  30 2.41  53 2.49  64 2.50  46 2.51   7 2.64  19 2.64
                             8 2.64  45 2.64  32 2.64  38 2.64
  38  0.120  0.202  0.136-  10 2.41  34 2.41  16 2.41  26 2.49  46 2.50  61 2.51   8 2.64  35 2.64
                            32 2.64  11 2.64  37 2.64  31 2.64
  39  0.952  0.786  0.226-   3 2.42   2 2.42   1 2.42  62 2.50  21 2.50  54 2.50  60 2.64  12 2.64
                            49 2.64  52 2.64  55 2.64  20 2.64
  40  0.785  0.619  0.311-  20 2.42  51 2.42  12 2.42  73 2.63  68 2.63  80 2.64   1 2.64  57 2.64
                             3 2.64   9 2.64  14 2.64  47 2.64
  41  0.285  0.619  0.311-  60 2.42  52 2.42  36 2.42  79 2.63  75 2.63  77 2.64  27 2.64   2 2.64
                             3 2.64  14 2.64  15 2.64  23 2.64
  42  0.787  0.618  0.051-  31 2.41  21 2.41  25 2.41  48 2.64  10 2.64   4 2.64   6 2.64  59 2.64
                            17 2.64
  43  0.287  0.618  0.051-  45 2.41  44 2.41  54 2.41   6 2.64  18 2.64  17 2.64   5 2.64  24 2.64
                            28 2.64
  44  0.370  0.702  0.136-  24 2.41  43 2.41  17 2.41  36 2.50  50 2.50  52 2.51  54 2.64  25 2.64
                            45 2.64   8 2.64  35 2.64  22 2.64
  45  0.370  0.452  0.136-  43 2.41  18 2.41  28 2.41  64 2.49  36 2.50  60 2.51  22 2.64  44 2.64
                            37 2.64   7 2.64  54 2.64  32 2.64
  46  0.202  0.286  0.226-  15 2.42  13 2.42   9 2.42  32 2.49  38 2.50  37 2.51  53 2.64  64 2.64
                            26 2.64  12 2.64  61 2.64  60 2.64
  47  0.785  0.369  0.311-  51 2.42  63 2.42  61 2.42  70 2.63  68 2.63  76 2.63  56 2.64  27 2.64
                            14 2.64   9 2.64  33 2.64  40 2.64
  48  0.787  0.368  0.051-  11 2.41  31 2.41  22 2.41  10 2.64  42 2.64  34 2.64  58 2.64  28 2.64
                            17 2.64
  49  0.952  0.036  0.226-   2 2.42  33 2.42  56 2.42  11 2.49  62 2.50  35 2.50  39 2.64  55 2.64
                            61 2.64  26 2.64  52 2.64  63 2.64
  50  0.452  0.786  0.226-  14 2.42  57 2.42  23 2.42   8 2.50  44 2.50  25 2.51  51 2.64  20 2.64
                            52 2.64  36 2.64  53 2.64  26 2.64
  51  0.702  0.536  0.226-  47 2.42  40 2.42  14 2.42  25 2.50  22 2.50  31 2.51  50 2.64  20 2.64
                            36 2.64  12 2.64  63 2.64  61 2.64
  52  0.202  0.786  0.226-  41 2.42  23 2.42   2 2.42  35 2.50  54 2.50  44 2.51  36 2.64  50 2.64
                            26 2.64  60 2.64  39 2.64  49 2.64
  53  0.452  0.036  0.226-  57 2.42  29 2.42  13 2.42  37 2.49   8 2.50  19 2.51  46 2.64  26 2.64
                            55 2.64  50 2.64  20 2.64  64 2.64
  54  0.120  0.702  0.136-   5 2.41   6 2.41  43 2.41  60 2.50  52 2.50  39 2.50  44 2.64  35 2.64
                            32 2.64  62 2.64  21 2.64  45 2.64
  55  0.702  0.036  0.226-   1 2.42  56 2.42  29 2.42   7 2.49  19 2.50  62 2.51  53 2.64  20 2.64
                            49 2.64  64 2.64  63 2.64  39 2.64
  56  0.785  0.119  0.311-  63 2.42  55 2.42  49 2.42  65 2.63  70 2.63  78 2.63  47 2.64  33 2.64
                            29 2.64   1 2.64  27 2.64   2 2.64
  57  0.535  0.869  0.311-  53 2.42  50 2.42  20 2.42  72 2.63  80 2.63  69 2.64  23 2.64  40 2.64
                            14 2.64  29 2.64   1 2.64  13 2.64
  58  0.787  0.118  0.051-  62 2.41  11 2.41   7 2.41   5 2.64  28 2.64  48 2.64  30 2.64  34 2.64
                             4 2.64
  59  0.537  0.868  0.051-  25 2.41  19 2.41   8 2.41  16 2.64  30 2.64  42 2.64   4 2.64  17 2.64
                            24 2.64
  60  0.202  0.536  0.226-  41 2.42  15 2.42   3 2.42  54 2.50  32 2.50  45 2.51  64 2.64  39 2.64
                            36 2.64  52 2.64  46 2.64  12 2.64
  61  0.952  0.286  0.226-   9 2.42  33 2.42  47 2.42  31 2.50  11 2.50  38 2.51  12 2.64  63 2.64
                            49 2.64  46 2.64  51 2.64  26 2.64
  62  0.870  0.952  0.136-  58 2.41   4 2.41   5 2.41  39 2.50  49 2.50  55 2.51   7 2.64  19 2.64
                            21 2.64  54 2.64  11 2.64  35 2.64
  63  0.702  0.286  0.226-  56 2.42  47 2.42  27 2.42  22 2.49   7 2.50  11 2.51  36 2.64  64 2.64
                            61 2.64  51 2.64  55 2.64  49 2.64
  64  0.452  0.286  0.226-  29 2.42  27 2.42  15 2.42  45 2.49  37 2.50   7 2.51  60 2.64  46 2.64
                            63 2.64  53 2.64  55 2.64  36 2.64
  65  0.867  0.953  0.409-   1 2.63  56 2.63   2 2.63  67 2.64  77 2.64  73 2.64  72 2.64  78 2.64
                            70 2.64
  66  0.118  0.453  0.409-   3 2.63   9 2.63  15 2.64  77 2.64  79 2.64  74 2.64  71 2.64  68 2.64
                            73 2.64
  67  0.117  0.953  0.409-   2 2.63  33 2.63  23 2.64  65 2.64  77 2.64  70 2.64  71 2.64  75 2.64
                            69 2.64
  68  0.867  0.453  0.409-  40 2.63  47 2.63   9 2.64  76 2.64  70 2.64  71 2.64  80 2.64  73 2.64
                            66 2.64
  69  0.367  0.953  0.409-  23 2.63  13 2.63  57 2.64  75 2.64  74 2.64  80 2.64  72 2.64  71 2.64
                            67 2.64
  70  0.867  0.203  0.409-  47 2.63  56 2.63  33 2.63  68 2.64  67 2.64  76 2.64  78 2.64  71 2.64
                            65 2.64
  71  0.117  0.203  0.409-  33 2.63   9 2.63  13 2.64  70 2.64  67 2.64  69 2.64  68 2.64  74 2.64
                            66 2.64
  72  0.618  0.953  0.409-  57 2.63  29 2.63   1 2.63  73 2.64  80 2.64  74 2.64  65 2.64  69 2.64
                            78 2.64
  73  0.867  0.703  0.409-   1 2.63  40 2.63   3 2.64  72 2.64  80 2.64  65 2.64  77 2.64  68 2.64
                            66 2.64
  74  0.368  0.203  0.409-  15 2.63  13 2.63  29 2.63  69 2.64  72 2.64  78 2.64  79 2.64  66 2.64
                            71 2.64
  75  0.368  0.703  0.409-  23 2.63  41 2.63  14 2.63  80 2.64  69 2.64  76 2.64  79 2.64  67 2.64
                            77 2.64
  76  0.617  0.453  0.409-  14 2.63  27 2.63  47 2.63  68 2.64  70 2.64  78 2.64  79 2.64  75 2.64
                            80 2.64
  77  0.117  0.703  0.409-   2 2.63   3 2.63  41 2.64  65 2.64  67 2.64  66 2.64  73 2.64  79 2.64
                            75 2.64
  78  0.617  0.203  0.409-  29 2.63  27 2.63  56 2.63  76 2.64  70 2.64  79 2.64  74 2.64  65 2.64
                            72 2.64
  79  0.368  0.453  0.409-  41 2.63  15 2.63  27 2.63  76 2.64  66 2.64  78 2.64  74 2.64  75 2.64
                            77 2.64
  80  0.617  0.703  0.409-  57 2.63  14 2.63  40 2.64  75 2.64  73 2.64  72 2.64  69 2.64  68 2.64
                            76 2.64
 
  LATTYP: Found a hexagonal cell.
 ALAT       =    10.5600004196
 C/A-ratio  =     2.0833332505
  
  Lattice vectors:
  
 A1 = (   5.2800002098,  -9.1452286274,   0.0000000000)
 A2 = ( -10.5600004196,   0.0000000000,   0.0000000000)
 A3 = (   0.0000000000,   0.0000000000, -22.0000000000)


Analysis of symmetry for initial positions (statically):
=====================================================================
 Subroutine PRICEL returns:
 Original cell was already a primitive cell.
 

 Routine SETGRP: Setting up the symmetry group for a 
 hexagonal supercell.


 Subroutine GETGRP returns: Found  1 space group operations
 (whereof  1 operations were pure point group operations)
 out of a pool of 24 trial point group operations.


The static configuration has the point symmetry C_1 .


Analysis of symmetry for dynamics (positions and initial velocities):
=====================================================================
 Subroutine PRICEL returns:
 Original cell was already a primitive cell.
 

 Routine SETGRP: Setting up the symmetry group for a 
 hexagonal supercell.


 Subroutine GETGRP returns: Found  1 space group operations
 (whereof  1 operations were pure point group operations)
 out of a pool of 24 trial point group operations.


The dynamic configuration has the point symmetry C_1 .


Analysis of structural, dynamic, and magnetic symmetry:
=====================================================================
 Subroutine PRICEL returns:
 Original cell was already a primitive cell.
 

 Routine SETGRP: Setting up the symmetry group for a 
 hexagonal supercell.


 Subroutine GETGRP returns: Found  1 space group operations
 (whereof  1 operations were pure point group operations)
 out of a pool of 24 trial point group operations.


The magnetic configuration has the point symmetry C_1 .


 Subroutine INISYM returns: Found  1 space group operations
 (whereof  1 operations are pure point group operations),
 and found     1 'primitive' translations

 
 
 KPOINTS: mesh auto                               

Automatic generation of k-mesh.
Space group operators:
 irot       det(A)        alpha          n_x          n_y          n_z        tau_x        tau_y        tau_z
    1     1.000000     0.000001     1.000000     0.000000     0.000000     0.000000     0.000000     0.000000
 
 Subroutine IBZKPT returns following result:
 ===========================================
 
 Found      4 irreducible k-points:
 
 Following reciprocal coordinates:
            Coordinates               Weight
  0.000000  0.000000  0.000000      1.000000
  0.500000  0.000000  0.000000      1.000000
  0.000000  0.500000  0.000000      1.000000
  0.500000  0.500000  0.000000      1.000000
 
 Following cartesian coordinates:
            Coordinates               Weight
  0.000000  0.000000  0.000000      1.000000
  0.047348 -0.027337  0.000000      1.000000
  0.000000  0.054673  0.000000      1.000000
  0.047348  0.027337  0.000000      1.000000
 


--------------------------------------------------------------------------------------------------------




 Dimension of arrays:
   k-points           NKPTS =      4   k-points in BZ     NKDIM =      4   number of bands    NBANDS=    560
   number of dos      NEDOS =    301   number of ions     NIONS =     80
   non local maximal  LDIM  =      6   non local SUM 2l+1 LMDIM =     18
   total plane-waves  NPLWV = ******
   max r-space proj   IRMAX =   7802   max aug-charges    IRDMAX=  33988
   dimension x,y,z NGX =    84 NGY =   84 NGZ =  168
   dimension x,y,z NGXF=   168 NGYF=  168 NGZF=  336
   support grid    NGXF=   168 NGYF=  168 NGZF=  336
   ions per type =              64  16
   NGX,Y,Z   is equivalent  to a cutoff of  13.22, 13.22, 12.70 a.u.
   NGXF,Y,Z  is equivalent  to a cutoff of  26.45, 26.45, 25.39 a.u.

 SYSTEM =  Pt111                                   
 POSCAR =  PtM\(2)                                 

 Startparameter for this run:
   NWRITE =      2    write-flag & timer
   PREC   = accura    normal or accurate (medium, high low for compatibility)
   ISTART =      0    job   : 0-new  1-cont  2-samecut
   ICHARG =      2    charge: 1-file 2-atom 10-const
   ISPIN  =      2    spin polarized calculation?
   LNONCOLLINEAR =      F non collinear calculations
   LSORBIT =      F    spin-orbit coupling
   INIWAV =      1    electr: 0-lowe 1-rand  2-diag
   LASPH  =      F    aspherical Exc in radial PAW
   METAGGA=      F    non-selfconsistent MetaGGA calc.

 Electronic Relaxation 1
   ENCUT  =  550.0 eV  40.42 Ry    6.36 a.u.  20.19 20.19 42.07*2*pi/ulx,y,z
   ENINI  =  550.0     initial cutoff
   ENAUG  =  587.0 eV  augmentation charge cutoff
   NELM   =    200;   NELMIN=  2; NELMDL= -5     # of ELM steps 
   EDIFF  = 0.1E-04   stopping-criterion for ELM
   LREAL  =      T    real-space projection
   NLSPLINE    = F    spline interpolate recip. space projectors
   LCOMPAT=      F    compatible to vasp.4.4
   GGA_COMPAT  = T    GGA compatible to vasp.4.4-vasp.4.6
   LMAXPAW     = -100 max onsite density
   LMAXMIX     =    2 max onsite mixed and CHGCAR
   VOSKOWN=      0    Vosko Wilk Nusair interpolation
   ROPT   =   -0.00025  -0.00025
 Ionic relaxation
   EDIFFG = -.5E-01   stopping-criterion for IOM
   NSW    =    300    number of steps for IOM
   NBLOCK =      1;   KBLOCK =    300    inner block; outer block 
   IBRION =      2    ionic relax: 0-MD 1-quasi-New 2-CG
   NFREE  =      1    steps in history (QN), initial steepest desc. (CG)
   ISIF   =      2    stress and relaxation
   IWAVPR =     11    prediction:  0-non 1-charg 2-wave 3-comb
   ISYM   =      2    0-nonsym 1-usesym 2-fastsym
   LCORR  =      T    Harris-Foulkes like correction to forces

   POTIM  = 0.5000    time-step for ionic-motion
   TEIN   =    0.0    initial temperature
   TEBEG  =    0.0;   TEEND  =   0.0 temperature during run
   SMASS  =  -3.00    Nose mass-parameter (am)
   estimated Nose-frequenzy (Omega)   =  0.10E-29 period in steps =****** mass=  -0.255E-26a.u.
   SCALEE = 1.0000    scale energy and forces
   NPACO  =    256;   APACO  = 16.0  distance and # of slots for P.C.
   PSTRESS=    0.0 pullay stress

  Mass of Ions in am
   POMASS =  63.55195.08
  Ionic Valenz
   ZVAL   =  11.00 10.00
  Atomic Wigner-Seitz radii
   RWIGS  =  -1.00 -1.00
  virtual crystal weights 
   VCA    =   1.00  1.00
   NELECT =     864.0000    total number of electrons
   NUPDOWN=      -1.0000    fix difference up-down

 DOS related values:
   EMIN   =  10.00;   EMAX   =-10.00  energy-range for DOS
   EFERMI =   0.00
   ISMEAR =     1;   SIGMA  =   0.10  broadening in eV -4-tet -1-fermi 0-gaus

 Electronic relaxation 2 (details)
   IALGO  =     68    algorithm
   LDIAG  =      T    sub-space diagonalisation (order eigenvalues)
   LSUBROT=      F    optimize rotation matrix (better conditioning)
   TURBO    =      0    0=normal 1=particle mesh
   IRESTART =      0    0=no restart 2=restart with 2 vectors
   NREBOOT  =      0    no. of reboots
   NMIN     =      0    reboot dimension
   EREF     =   0.00    reference energy to select bands
   IMIX   =      4    mixing-type and parameters
     AMIX     =   0.40;   BMIX     =  1.00
     AMIX_MAG =   1.60;   BMIX_MAG =  1.00
     AMIN     =   0.10
     WC   =   100.;   INIMIX=   1;  MIXPRE=   1;  MAXMIX= -45

 Intra band minimization:
   WEIMIN = 0.0010     energy-eigenvalue tresh-hold
   EBREAK =  0.45E-08  absolut break condition
   DEPER  =   0.30     relativ break condition  

   TIME   =   0.40     timestep for ELM

  volume/ion in A,a.u.               =      26.56       179.22
  Fermi-wavevector in a.u.,A,eV,Ry     =   1.212883  2.292017 20.015339  1.471086
  Thomas-Fermi vector in A             =   2.348353
 
 Write flags
   LWAVE        =      F    write WAVECAR
   LDOWNSAMPLE  =      F    k-point downsampling of WAVECAR
   LCHARG       =      F    write CHGCAR
   LVTOT        =      F    write LOCPOT, total local potential
   LVHAR        =      F    write LOCPOT, Hartree potential only
   LELF         =      F    write electronic localiz. function (ELF)
   LORBIT       =      0    0 simple, 1 ext, 2 COOP (PROOUT), +10 PAW based schemes


 Dipole corrections
   LMONO  =      F    monopole corrections only (constant potential shift)
   LDIPOL =      F    correct potential (dipole corrections)
   IDIPOL =      0    1-x, 2-y, 3-z, 4-all directions 
   EPSILON=  1.0000000 bulk dielectric constant

 Exchange correlation treatment:
   GGA     =    --    GGA type
   LEXCH   =     8    internal setting for exchange type
   VOSKOWN=      0    Vosko Wilk Nusair interpolation
   LHFCALC =     F    Hartree Fock is set to
   LHFONE  =     F    Hartree Fock one center treatment
   AEXX    =    0.0000 exact exchange contribution

 Linear response parameters
   LEPSILON=     F    determine dielectric tensor
   LRPA    =     F    only Hartree local field effects (RPA)
   LNABLA  =     F    use nabla operator in PAW spheres
   LVEL    =     F    velocity operator in full k-point grid
   LINTERFAST=   F  fast interpolation
   KINTER  =     0    interpolate to denser k-point grid
   CSHIFT  =0.1000    complex shift for real part using Kramers Kronig
   OMEGAMAX=  -1.0    maximum frequency
   DEG_THRESHOLD= 0.2000000E-02 threshold for treating states as degnerate
   RTIME   =   -0.100 relaxation time in fs
  (WPLASMAI=    0.000 imaginary part of plasma frequency in eV, 0.658/RTIME)
   DFIELD  = 0.0000000 0.0000000 0.0000000 field for delta impulse in time
 
 Orbital magnetization related:
   ORBITALMAG=     F  switch on orbital magnetization
   LCHIMAG   =     F  perturbation theory with respect to B field
   DQ        =  0.001000  dq finite difference perturbation B field
   LLRAUG    =     F  two centre corrections for induced B field



--------------------------------------------------------------------------------------------------------


 conjugate gradient relaxation of ions
 charge density and potential will be updated during run
 spin polarized calculation
 RMM-DIIS sequential band-by-band and
  variant of blocked Davidson during initial phase
 perform sub-space diagonalisation
    before iterative eigenvector-optimisation
 modified Broyden-mixing scheme, WC =      100.0
 initial mixing is a Kerker type mixing with AMIX =  0.4000 and BMIX =      1.0000
 Hartree-type preconditioning will be used
 using additional bands          128
 real space projection scheme for non local part
 use partial core corrections
 calculate Harris-corrections to forces 
   (improved forces if not selfconsistent)
 use gradient corrections 
 use of overlap-Matrix (Vanderbilt PP)
 Methfessel and Paxton  Order N= 1 SIGMA  =   0.10


--------------------------------------------------------------------------------------------------------


  energy-cutoff  :      550.00
  volume of cell :     2124.62
      direct lattice vectors                 reciprocal lattice vectors
    10.560000420  0.000000000  0.000000000     0.094696966 -0.054673319  0.000000000
     5.280000210  9.145228627  0.000000000     0.000000000  0.109346638  0.000000000
     0.000000000  0.000000000 22.000000000     0.000000000  0.000000000  0.045454545

  length of vectors
    10.560000420 10.560000420 22.000000000     0.109346638  0.109346638  0.045454545


 
 k-points in units of 2pi/SCALE and weight: mesh auto                               
   0.00000000  0.00000000  0.00000000       0.250
   0.04734848 -0.02733666  0.00000000       0.250
   0.00000000  0.05467332  0.00000000       0.250
   0.04734848  0.02733666  0.00000000       0.250
 
 k-points in reciprocal lattice and weights: mesh auto                               
   0.00000000  0.00000000  0.00000000       0.250
   0.50000000  0.00000000  0.00000000       0.250
   0.00000000  0.50000000  0.00000000       0.250
   0.50000000  0.50000000  0.00000000       0.250
 
 position of ions in fractional coordinates (direct lattice) 
   0.78480867  0.86922226  0.31129747
   0.03480144  0.86921177  0.31128913
   0.03472771  0.61923215  0.31128732
   0.78672737  0.86796427  0.05124594
   0.03655829  0.86811559  0.05129685
   0.03663850  0.61800272  0.05132683
   0.61974581  0.20156539  0.13598422
   0.36965812  0.95165874  0.13596282
   0.03462695  0.36925248  0.31128774
   0.03659631  0.36812104  0.05134006
   0.86964458  0.20165938  0.13596857
   0.95177131  0.53569377  0.22601276
   0.28469597  0.11925519  0.31130317
   0.53462695  0.61935206  0.31132349
   0.28457194  0.36927545  0.31131050
   0.28668923  0.11816423  0.05129869
   0.53643122  0.61808880  0.05123215
   0.28654946  0.36808879  0.05135412
   0.61968552  0.95160862  0.13594574
   0.70174807  0.78565854  0.22596507
   0.86960684  0.70164345  0.13597445
   0.61967870  0.45169725  0.13595188
   0.28484109  0.86926307  0.31131098
   0.28644846  0.86814797  0.05128443
   0.61958777  0.70166494  0.13591218
   0.20183426  0.03566479  0.22601434
   0.53455102  0.36935681  0.31130756
   0.53667278  0.36796893  0.05129270
   0.53462524  0.11935562  0.31130716
   0.53667273  0.11808196  0.05128312
   0.86953476  0.45175991  0.13600323
   0.11968810  0.45163155  0.13605895
   0.03467749  0.11927288  0.31128877
   0.03670730  0.11813552  0.05129760
   0.11958412  0.95170982  0.13599964
   0.45181232  0.53575618  0.22600979
   0.36976480  0.20160926  0.13602383
   0.11971248  0.20160801  0.13602195
   0.95186960  0.78562065  0.22599246
   0.78470476  0.61932155  0.31130378
   0.28469627  0.61922580  0.31129855
   0.78661220  0.61805706  0.05124911
   0.28651464  0.61802871  0.05130543
   0.36959900  0.70170145  0.13596552
   0.36974844  0.45164511  0.13601924
   0.20182404  0.28565594  0.22603199
   0.78454570  0.36931268  0.31128476
   0.78671851  0.36806138  0.05126972
   0.95178363  0.03565317  0.22596530
   0.45185094  0.78568653  0.22598117
   0.70171135  0.53578807  0.22600101
   0.20192263  0.78564434  0.22601942
   0.45176975  0.03569830  0.22599092
   0.11964839  0.70167811  0.13601062
   0.70174466  0.03566594  0.22597042
   0.78464263  0.11933727  0.31127725
   0.53476126  0.86928406  0.31133846
   0.78671389  0.11805280  0.05126078
   0.53658682  0.86813335  0.05124811
   0.20187113  0.53568700  0.22602262
   0.95174579  0.28571242  0.22599627
   0.86955967  0.95164736  0.13596443
   0.70169208  0.28575816  0.22596216
   0.45174022  0.28573770  0.22602209
   0.86747143  0.95290102  0.40877813
   0.11750876  0.45294547  0.40890880
   0.11732406  0.95294426  0.40883882
   0.86741425  0.45286700  0.40884516
   0.36748293  0.95291426  0.40886529
   0.86743479  0.20292806  0.40879977
   0.11744156  0.20287239  0.40887206
   0.61750856  0.95285519  0.40881014
   0.86731886  0.70303733  0.40883997
   0.36755553  0.20283200  0.40887767
   0.36755468  0.70296476  0.40887452
   0.61749003  0.45285981  0.40884914
   0.11737162  0.70298461  0.40887472
   0.61749348  0.20291040  0.40881922
   0.36751446  0.45288387  0.40889270
   0.61743399  0.70295419  0.40884696
 
 position of ions in cartesian coordinates  (Angst):
  12.87707359  7.94923629  6.84854433
   4.95694154  7.94914038  6.84836089
   3.63627051  5.66301962  6.84832112
  12.89069282  7.93773165  1.12741065
   4.96970603  7.93911553  1.12853070
   3.64995711  5.65177617  1.12919030
   7.60878135  1.84336156  2.99165289
   8.92834820  8.70313676  2.99118200
   2.31531380  3.37689835  6.84833029
   2.33013621  3.36655108  1.12948134
  10.24820871  1.84422114  2.99130850
  12.87916863  4.89904203  4.97228080
   3.63605699  1.09061601  6.84866978
   8.91583985  5.66411618  6.84911680
   4.95485426  3.37710844  6.84883109
   3.65134558  1.08063889  1.12857113
   8.92822296  5.65256340  1.12710731
   4.96947128  3.36625614  1.12979070
  11.56837308  8.70267838  2.99080638
  11.55873713  7.18502696  4.97123162
  12.88772622  6.41668978  2.99143800
   8.92876895  4.13087463  2.99094130
   7.59763126  7.94960951  6.84884167
   7.60871732  7.93941164  1.12825737
  10.24763817  6.41688629  2.99006786
   2.31968003  0.32616270  4.97231542
   7.59506299  3.37785244  6.84876640
   7.61014081  3.36515998  1.12843932
   6.27584042  1.09153442  6.84875760
   6.29073703  1.07988653  1.12822856
  11.56757982  4.13144765  2.99207102
   3.64852106  4.13027377  2.99329699
   0.99595507  1.09077771  6.84835301
   1.01138472  1.08037638  1.12854727
   6.28783640  8.70360389  2.99199201
   7.59993103  4.89961276  4.97221537
   4.96921340  1.84376278  2.99252428
   2.32865418  1.84375135  2.99248299
  14.19982054  7.18468042  4.97183411
  11.55650047  5.66383714  6.84868306
   6.27590504  5.66296151  6.84856820
  11.56996659  5.65227313  1.12748032
   6.28878646  5.65201383  1.12871950
   7.60794938  6.41722021  2.99124143
   6.28923001  4.13039782  2.99242328
   3.63952534  2.61238886  4.97270383
  10.23477396  3.37744888  6.84826475
  10.25111193  3.36600545  1.12793384
  10.23908424  0.32605640  4.97123670
   8.91997117  7.18528291  4.97158580
  10.23903320  4.89990435  4.97202230
   6.28050539  7.18489713  4.97242734
   4.95917577  0.32646911  4.97180026
   4.96834764  6.41700677  2.99223361
   7.59874004  0.32617320  4.97134921
   8.91592731  1.09136659  6.84809952
  10.23689914  7.94980146  6.84944622
   8.93101782  1.07961985  1.12773711
  10.25010137  7.93927801  1.12745837
   4.96018669  4.89898005  4.97249774
  11.55899763  2.61290541  4.97191787
  14.20724879  8.70303269  2.99121738
   8.91867179  2.61332367  4.97116748
   6.27907205  2.61313656  4.97248592
  14.19181624  8.71449772  8.99311888
   3.63244471  4.14228991  8.99599351
   6.27048803  8.71489317  8.99445405
  11.55103274  4.14157223  8.99459350
   8.91200738  8.71461879  8.99503637
  10.23157188  1.85582347  8.99359490
   2.31134921  1.85531435  8.99518524
  11.55196621  8.71407852  8.99382312
  12.87092479  6.42943709  8.99447924
   4.95233956  1.85494506  8.99530883
   7.59303164  6.42877346  8.99523937
   8.91179490  4.14150646  8.99468111
   4.95120328  6.42895498  8.99524383
   7.59209837  1.85566200  8.99402291
   6.27217972  4.14172649  8.99563943
  10.23170140  6.42867677  8.99463322
 


--------------------------------------------------------------------------------------------------------


 k-point  1 :   0.0000 0.0000 0.0000  plane waves:   62167
 k-point  2 :   0.5000 0.0000 0.0000  plane waves:   62242
 k-point  3 :   0.0000 0.5000 0.0000  plane waves:   62242
 k-point  4 :   0.5000 0.5000 0.0000  plane waves:   62242

 maximum and minimum number of plane-waves per node :     15586    15521

 maximum number of plane-waves:     62242
 maximum index in each direction: 
   IXMAX=   20   IYMAX=   20   IZMAX=   42
   IXMIN=  -20   IYMIN=  -20   IZMIN=  -42


 real space projection operators:
  total allocation   :      84829.22 KBytes
  max/ min on nodes  :      21209.20      21204.00


 parallel 3D FFT for wavefunctions:
    minimum data exchange during FFTs selected (reduces bandwidth)
 parallel 3D FFT for charge:
    minimum data exchange during FFTs selected (reduces bandwidth)


 total amount of memory used by VASP MPI-rank0   245874. kBytes
=======================================================================

   base      :      30000. kBytes
   nonlr-proj:      36725. kBytes
   fftplans  :      17962. kBytes
   grid      :      46451. kBytes
   one-center:        622. kBytes
   wavefun   :     114114. kBytes
 
     INWAV:  cpu time    0.0000: real time    0.0000
 Broyden mixing: mesh for mixing (old mesh)
   NGX = 41   NGY = 41   NGZ = 85
  (NGX  =168   NGY  =168   NGZ  =336)
  gives a total of 142885 points

 initial charge density was supplied:
 charge density of overlapping atoms calculated
 number of electron     864.0000000 magnetization      80.0000000
 keeping initial charge density in first step


--------------------------------------------------------------------------------------------------------


 Maximum index for non-local projection operator         1913
 Maximum index for augmentation-charges         1213 (set IRDMAX)


--------------------------------------------------------------------------------------------------------


 First call to EWALD:  gamma=   0.138
 Maximum number of real-space cells 4x 4x 2
 Maximum number of reciprocal cells 2x 2x 4

    FEWALD:  cpu time    0.0045: real time    0.0045


--------------------------------------- Iteration      1(   1)  ---------------------------------------


    POTLOK:  cpu time    0.4130: real time    0.4413
    SETDIJ:  cpu time    0.0283: real time    0.0285
     EDDAV:  cpu time   64.8745: real time   65.1556
       DOS:  cpu time    0.0017: real time    0.0018
    --------------------------------------------
      LOOP:  cpu time   65.3176: real time   65.6273

 eigenvalue-minimisations  :  8960
 total energy-change (2. order) : 0.9746741E+04  (-0.3653909E+05)
 number of electron     864.0000000 magnetization      80.0000000
 augmentation part      864.0000000 magnetization      80.0000000

 Free energy of the ion-electron system (eV)
  ---------------------------------------------------
  alpha Z        PSCENC =      2348.84637356
  Ewald energy   TEWEN  =    329109.71023744
  -Hartree energ DENC   =   -428597.51191923
  -exchange      EXHF   =         0.00000000
  -V(xc)+E(xc)   XCENC  =      2990.06185835
  PAW double counting   =     89734.98016402   -96055.21500077
  entropy T*S    EENTRO =        -0.00706419
  eigenvalues    EBANDS =      9527.48666091
  atomic energy  EATOM  =    100688.39018299
  Solvation  Ediel_sol  =         0.00000000
  ---------------------------------------------------
  free energy    TOTEN  =      9746.74149307 eV

  energy without entropy =     9746.74855727  energy(sigma->0) =     9746.74384780


--------------------------------------------------------------------------------------------------------




--------------------------------------- Iteration      1(   2)  ---------------------------------------


     EDDAV:  cpu time   64.6879: real time   64.8653
       DOS:  cpu time    0.0018: real time    0.0018
    --------------------------------------------
      LOOP:  cpu time   64.6896: real time   64.8671

 eigenvalue-minimisations  :  8960
 total energy-change (2. order) :-0.7829249E+04  (-0.7364613E+04)
 number of electron     864.0000000 magnetization      80.0000000
 augmentation part      864.0000000 magnetization      80.0000000

 Free energy of the ion-electron system (eV)
  ---------------------------------------------------
  alpha Z        PSCENC =      2348.84637356
  Ewald energy   TEWEN  =    329109.71023744
  -Hartree energ DENC   =   -428597.51191923
  -exchange      EXHF   =         0.00000000
  -V(xc)+E(xc)   XCENC  =      2990.06185835
  PAW double counting   =     89734.98016402   -96055.21500077
  entropy T*S    EENTRO =         0.00066259
  eigenvalues    EBANDS =      1698.22966626
  atomic energy  EATOM  =    100688.39018299
  Solvation  Ediel_sol  =         0.00000000
  ---------------------------------------------------
  free energy    TOTEN  =      1917.49222520 eV

  energy without entropy =     1917.49156261  energy(sigma->0) =     1917.49200434


--------------------------------------------------------------------------------------------------------




--------------------------------------- Iteration      1(   3)  ---------------------------------------


     EDDAV:  cpu time   64.7582: real time   64.9356
       DOS:  cpu time    0.0020: real time    0.0020
    --------------------------------------------
      LOOP:  cpu time   64.7601: real time   64.9376

 eigenvalue-minimisations  :  8960
 total energy-change (2. order) :-0.1978767E+04  (-0.1729795E+04)
 number of electron     864.0000000 magnetization      80.0000000
 augmentation part      864.0000000 magnetization      80.0000000

 Free energy of the ion-electron system (eV)
  ---------------------------------------------------
  alpha Z        PSCENC =      2348.84637356
  Ewald energy   TEWEN  =    329109.71023744
  -Hartree energ DENC   =   -428597.51191923
  -exchange      EXHF   =         0.00000000
  -V(xc)+E(xc)   XCENC  =      2990.06185835
  PAW double counting   =     89734.98016402   -96055.21500077
  entropy T*S    EENTRO =        -0.00240479
  eigenvalues    EBANDS =      -280.53458977
  atomic energy  EATOM  =    100688.39018299
  Solvation  Ediel_sol  =         0.00000000
  ---------------------------------------------------
  free energy    TOTEN  =       -61.27509821 eV

  energy without entropy =      -61.27269342  energy(sigma->0) =      -61.27429661


--------------------------------------------------------------------------------------------------------




--------------------------------------- Iteration      1(   4)  ---------------------------------------


     EDDAV:  cpu time   87.1179: real time   87.3564
       DOS:  cpu time    0.0022: real time    0.0022
    --------------------------------------------
      LOOP:  cpu time   87.1201: real time   87.3586

 eigenvalue-minimisations  : 13090
 total energy-change (2. order) :-0.2923377E+03  (-0.2523629E+03)
 number of electron     864.0000000 magnetization      80.0000000
 augmentation part      864.0000000 magnetization      80.0000000

 Free energy of the ion-electron system (eV)
  ---------------------------------------------------
  alpha Z        PSCENC =      2348.84637356
  Ewald energy   TEWEN  =    329109.71023744
  -Hartree energ DENC   =   -428597.51191923
  -exchange      EXHF   =         0.00000000
  -V(xc)+E(xc)   XCENC  =      2990.06185835
  PAW double counting   =     89734.98016402   -96055.21500077
  entropy T*S    EENTRO =         0.03683427
  eigenvalues    EBANDS =      -572.91157608
  atomic energy  EATOM  =    100688.39018299
  Solvation  Ediel_sol  =         0.00000000
  ---------------------------------------------------
  free energy    TOTEN  =      -353.61284546 eV

  energy without entropy =     -353.64967972  energy(sigma->0) =     -353.62512354


--------------------------------------------------------------------------------------------------------




--------------------------------------- Iteration      1(   5)  ---------------------------------------


     EDDAV:  cpu time   86.3748: real time   86.6129
       DOS:  cpu time    0.0020: real time    0.0020
    CHARGE:  cpu time    4.3611: real time    4.3730
    MIXING:  cpu time    0.0102: real time    0.0107
    --------------------------------------------
      LOOP:  cpu time   90.7481: real time   90.9987

 eigenvalue-minimisations  : 12950
 total energy-change (2. order) :-0.1658182E+02  (-0.1601617E+02)
 number of electron     864.0000467 magnetization      71.8379573
 augmentation part      462.3219876 magnetization      70.3307669

 Broyden mixing:
  rms(total) = 0.90850E+01    rms(broyden)= 0.90849E+01
  rms(prec ) = 0.93977E+01
  weight for this iteration     100.00

 Free energy of the ion-electron system (eV)
  ---------------------------------------------------
  alpha Z        PSCENC =      2348.84637356
  Ewald energy   TEWEN  =    329109.71023744
  -Hartree energ DENC   =   -428597.51191923
  -exchange      EXHF   =         0.00000000
  -V(xc)+E(xc)   XCENC  =      2990.06185835
  PAW double counting   =     89734.98016402   -96055.21500077
  entropy T*S    EENTRO =         0.06260177
  eigenvalues    EBANDS =      -589.51916353
  atomic energy  EATOM  =    100688.39018299
  Solvation  Ediel_sol  =         0.00000000
  ---------------------------------------------------
  free energy    TOTEN  =      -370.19466540 eV

  energy without entropy =     -370.25726718  energy(sigma->0) =     -370.21553266


--------------------------------------------------------------------------------------------------------




--------------------------------------- Iteration      1(   6)  ---------------------------------------


    POTLOK:  cpu time    0.3969: real time    0.3982
    SETDIJ:  cpu time    0.0276: real time    0.0276
    EDDIAG:  cpu time   11.0738: real time   11.1043
  RMM-DIIS:  cpu time   39.1621: real time   39.2695
    ORTHCH:  cpu time    1.1806: real time    1.1837
       DOS:  cpu time    0.0020: real time    0.0020
    CHARGE:  cpu time    4.3330: real time    4.3449
    MIXING:  cpu time    0.0110: real time    0.0112
    --------------------------------------------
      LOOP:  cpu time   56.1868: real time   56.3413

 eigenvalue-minimisations  :  8995
 total energy-change (2. order) : 0.2736292E+01  (-0.7445965E+02)
 number of electron     864.0000532 magnetization      68.6665806
 augmentation part      512.6706619 magnetization      45.8717444

 Broyden mixing:
  rms(total) = 0.60628E+01    rms(broyden)= 0.60627E+01
  rms(prec ) = 0.88757E+01
  weight for this iteration     100.00

 eigenvalues of (default mixing * dielectric matrix)
  average eigenvalue GAMMA=   0.7332
  0.7332

 Free energy of the ion-electron system (eV)
  ---------------------------------------------------
  alpha Z        PSCENC =      2348.84637356
  Ewald energy   TEWEN  =    329109.71023744
  -Hartree energ DENC   =   -426493.03660627
  -exchange      EXHF   =         0.00000000
  -V(xc)+E(xc)   XCENC  =      2910.45206438
  PAW double counting   =     92654.77012267   -98636.97028005
  entropy T*S    EENTRO =         0.03188699
  eigenvalues    EBANDS =     -2949.65235475
  atomic energy  EATOM  =    100688.39018299
  Solvation  Ediel_sol  =         0.00000000
  ---------------------------------------------------
  free energy    TOTEN  =      -367.45837305 eV

  energy without entropy =     -367.49026004  energy(sigma->0) =     -367.46900205


--------------------------------------------------------------------------------------------------------




--------------------------------------- Iteration      1(   7)  ---------------------------------------


    POTLOK:  cpu time    0.3997: real time    0.4006
    SETDIJ:  cpu time    0.0385: real time    0.0386
    EDDIAG:  cpu time   11.2229: real time   11.2535
  RMM-DIIS:  cpu time   41.3774: real time   41.4907
    ORTHCH:  cpu time    1.1961: real time    1.1994
       DOS:  cpu time    0.0019: real time    0.0019
    CHARGE:  cpu time    4.2998: real time    4.3115
    MIXING:  cpu time    0.0105: real time    0.0105
    --------------------------------------------
      LOOP:  cpu time   58.5469: real time   58.7068

 eigenvalue-minimisations  :  9536
 total energy-change (2. order) :-0.6374820E+02  (-0.2392886E+02)
 number of electron     864.0000475 magnetization      66.5027441
 augmentation part      485.0356036 magnetization      48.5470275

 Broyden mixing:
  rms(total) = 0.10648E+02    rms(broyden)= 0.10648E+02
  rms(prec ) = 0.14540E+02
  weight for this iteration     100.00

 eigenvalues of (default mixing * dielectric matrix)
  average eigenvalue GAMMA=   0.4451
  0.7877  0.1024

 Free energy of the ion-electron system (eV)
  ---------------------------------------------------
  alpha Z        PSCENC =      2348.84637356
  Ewald energy   TEWEN  =    329109.71023744
  -Hartree energ DENC   =   -427857.27312458
  -exchange      EXHF   =         0.00000000
  -V(xc)+E(xc)   XCENC  =      2935.60289742
  PAW double counting   =     94530.50842041  -100864.49488034
  entropy T*S    EENTRO =        -0.08733756
  eigenvalues    EBANDS =     -1322.40934007
  atomic energy  EATOM  =    100688.39018299
  Solvation  Ediel_sol  =         0.00000000
  ---------------------------------------------------
  free energy    TOTEN  =      -431.20657073 eV

  energy without entropy =     -431.11923318  energy(sigma->0) =     -431.17745821


--------------------------------------------------------------------------------------------------------




--------------------------------------- Iteration      1(   8)  ---------------------------------------


    POTLOK:  cpu time    0.3967: real time    0.3980
    SETDIJ:  cpu time    0.0276: real time    0.0277
    EDDIAG:  cpu time   11.1973: real time   11.2290
  RMM-DIIS:  cpu time   39.3446: real time   39.4393
    ORTHCH:  cpu time    1.1841: real time    1.1870
       DOS:  cpu time    0.0020: real time    0.0020
    CHARGE:  cpu time    4.2654: real time    4.2756
    MIXING:  cpu time    0.0114: real time    0.0114
    --------------------------------------------
      LOOP:  cpu time   56.4291: real time   56.5699

 eigenvalue-minimisations  :  9031
 total energy-change (2. order) : 0.8715095E+02  (-0.2928721E+01)
 number of electron     864.0000488 magnetization      64.0535877
 augmentation part      494.9267786 magnetization      48.9553126

 Broyden mixing:
  rms(total) = 0.65084E+01    rms(broyden)= 0.65083E+01
  rms(prec ) = 0.77357E+01
  weight for this iteration     100.00

 eigenvalues of (default mixing * dielectric matrix)
  average eigenvalue GAMMA=   0.4243
  0.8683  0.2024  0.2024

 Free energy of the ion-electron system (eV)
  ---------------------------------------------------
  alpha Z        PSCENC =      2348.84637356
  Ewald energy   TEWEN  =    329109.71023744
  -Hartree energ DENC   =   -427857.50122074
  -exchange      EXHF   =         0.00000000
  -V(xc)+E(xc)   XCENC  =      2932.20265746
  PAW double counting   =     95467.86154091  -101859.35019205
  entropy T*S    EENTRO =        -0.05808818
  eigenvalues    EBANDS =     -1174.15711140
  atomic energy  EATOM  =    100688.39018299
  Solvation  Ediel_sol  =         0.00000000
  ---------------------------------------------------
  free energy    TOTEN  =      -344.05562002 eV

  energy without entropy =     -343.99753184  energy(sigma->0) =     -344.03625730


--------------------------------------------------------------------------------------------------------




--------------------------------------- Iteration      1(   9)  ---------------------------------------


    POTLOK:  cpu time    0.3995: real time    0.4005
    SETDIJ:  cpu time    0.0275: real time    0.0275
    EDDIAG:  cpu time   11.2033: real time   11.2375
  RMM-DIIS:  cpu time   39.6683: real time   39.7622
    ORTHCH:  cpu time    1.1816: real time    1.1844
       DOS:  cpu time    0.0021: real time    0.0021
    CHARGE:  cpu time    4.2554: real time    4.2655
    MIXING:  cpu time    0.0108: real time    0.0108
    --------------------------------------------
      LOOP:  cpu time   56.7486: real time   56.8907

 eigenvalue-minimisations  :  9106
 total energy-change (2. order) : 0.3453684E+02  (-0.2826755E+01)
 number of electron     864.0000500 magnetization      58.2071764
 augmentation part      499.1036658 magnetization      42.3590307

 Broyden mixing:
  rms(total) = 0.41654E+01    rms(broyden)= 0.41654E+01
  rms(prec ) = 0.54380E+01
  weight for this iteration     100.00

 eigenvalues of (default mixing * dielectric matrix)
  average eigenvalue GAMMA=   0.5277
  0.9784  0.4744  0.4744  0.1837

 Free energy of the ion-electron system (eV)
  ---------------------------------------------------
  alpha Z        PSCENC =      2348.84637356
  Ewald energy   TEWEN  =    329109.71023744
  -Hartree energ DENC   =   -427523.17864764
  -exchange      EXHF   =         0.00000000
  -V(xc)+E(xc)   XCENC  =      2936.11366239
  PAW double counting   =     96191.36769160  -102609.83672818
  entropy T*S    EENTRO =         0.00889881
  eigenvalues    EBANDS =     -1450.94044657
  atomic energy  EATOM  =    100688.39018299
  Solvation  Ediel_sol  =         0.00000000
  ---------------------------------------------------
  free energy    TOTEN  =      -309.51877561 eV

  energy without entropy =     -309.52767441  energy(sigma->0) =     -309.52174188


--------------------------------------------------------------------------------------------------------




--------------------------------------- Iteration      1(  10)  ---------------------------------------


    POTLOK:  cpu time    0.4002: real time    0.4011
    SETDIJ:  cpu time    0.0276: real time    0.0276
    EDDIAG:  cpu time   11.1659: real time   11.1953
  RMM-DIIS:  cpu time   39.5705: real time   39.6794
    ORTHCH:  cpu time    1.1829: real time    1.1861
       DOS:  cpu time    0.0020: real time    0.0020
    CHARGE:  cpu time    4.2449: real time    4.2565
    MIXING:  cpu time    0.0108: real time    0.0111
    --------------------------------------------
      LOOP:  cpu time   56.6047: real time   56.7591

 eigenvalue-minimisations  :  9078
 total energy-change (2. order) : 0.2993017E+02  (-0.3953436E+01)
 number of electron     864.0000493 magnetization      53.7473163
 augmentation part      494.9232326 magnetization      36.3750004

 Broyden mixing:
  rms(total) = 0.25183E+01    rms(broyden)= 0.25183E+01
  rms(prec ) = 0.28208E+01
  weight for this iteration     100.00

 eigenvalues of (default mixing * dielectric matrix)
  average eigenvalue GAMMA=   0.5869
  1.1832  0.6331  0.6331  0.2998  0.1853

 Free energy of the ion-electron system (eV)
  ---------------------------------------------------
  alpha Z        PSCENC =      2348.84637356
  Ewald energy   TEWEN  =    329109.71023744
  -Hartree energ DENC   =   -427623.37646074
  -exchange      EXHF   =         0.00000000
  -V(xc)+E(xc)   XCENC  =      2951.53111529
  PAW double counting   =     97592.14471746  -104065.90805814
  entropy T*S    EENTRO =        -0.05042948
  eigenvalues    EBANDS =     -1280.87628218
  atomic energy  EATOM  =    100688.39018299
  Solvation  Ediel_sol  =         0.00000000
  ---------------------------------------------------
  free energy    TOTEN  =      -279.58860380 eV

  energy without entropy =     -279.53817432  energy(sigma->0) =     -279.57179397


--------------------------------------------------------------------------------------------------------




--------------------------------------- Iteration      1(  11)  ---------------------------------------


    POTLOK:  cpu time    0.3977: real time    0.3987
    SETDIJ:  cpu time    0.0279: real time    0.0280
    EDDIAG:  cpu time   11.0754: real time   11.1060
  RMM-DIIS:  cpu time   39.2765: real time   39.3840
    ORTHCH:  cpu time    1.1797: real time    1.1831
       DOS:  cpu time    0.0021: real time    0.0021
    CHARGE:  cpu time    4.2523: real time    4.2639
    MIXING:  cpu time    0.0121: real time    0.0122
    --------------------------------------------
      LOOP:  cpu time   56.2239: real time   56.3779

 eigenvalue-minimisations  :  9010
 total energy-change (2. order) : 0.2510528E+01  (-0.1516853E+01)
 number of electron     864.0000504 magnetization      50.8295045
 augmentation part      495.6578873 magnetization      37.1717334

 Broyden mixing:
  rms(total) = 0.19683E+01    rms(broyden)= 0.19683E+01
  rms(prec ) = 0.20552E+01
  weight for this iteration     100.00

 eigenvalues of (default mixing * dielectric matrix)
  average eigenvalue GAMMA=   0.5580
  1.3369  0.5491  0.5491  0.4543  0.1867  0.2720

 Free energy of the ion-electron system (eV)
  ---------------------------------------------------
  alpha Z        PSCENC =      2348.84637356
  Ewald energy   TEWEN  =    329109.71023744
  -Hartree energ DENC   =   -427631.76919325
  -exchange      EXHF   =         0.00000000
  -V(xc)+E(xc)   XCENC  =      2948.05806271
  PAW double counting   =     98336.08189828  -104826.49484630
  entropy T*S    EENTRO =        -0.00843766
  eigenvalues    EBANDS =     -1249.89235401
  atomic energy  EATOM  =    100688.39018299
  Solvation  Ediel_sol  =         0.00000000
  ---------------------------------------------------
  free energy    TOTEN  =      -277.07807624 eV

  energy without entropy =     -277.06963857  energy(sigma->0) =     -277.07526368


--------------------------------------------------------------------------------------------------------




--------------------------------------- Iteration      1(  12)  ---------------------------------------


    POTLOK:  cpu time    0.3955: real time    0.3965
    SETDIJ:  cpu time    0.0275: real time    0.0276
    EDDIAG:  cpu time   11.0922: real time   11.1228
  RMM-DIIS:  cpu time   39.3221: real time   39.4302
    ORTHCH:  cpu time    1.1798: real time    1.1829
       DOS:  cpu time    0.0021: real time    0.0021
    CHARGE:  cpu time    4.2483: real time    4.2598
    MIXING:  cpu time    0.0117: real time    0.0117
    --------------------------------------------
      LOOP:  cpu time   56.2792: real time   56.4336

 eigenvalue-minimisations  :  9040
 total energy-change (2. order) : 0.8315277E+00  (-0.1643703E+00)
 number of electron     864.0000504 magnetization      31.5313217
 augmentation part      496.9820844 magnetization      18.1635341

 Broyden mixing:
  rms(total) = 0.16146E+01    rms(broyden)= 0.16146E+01
  rms(prec ) = 0.16636E+01
  weight for this iteration     100.00

 eigenvalues of (default mixing * dielectric matrix)
  average eigenvalue GAMMA=   0.7644
  1.9150  0.9030  0.8103  0.8103  0.1864  0.2926  0.4328

 Free energy of the ion-electron system (eV)
  ---------------------------------------------------
  alpha Z        PSCENC =      2348.84637356
  Ewald energy   TEWEN  =    329109.71023744
  -Hartree energ DENC   =   -427618.48092510
  -exchange      EXHF   =         0.00000000
  -V(xc)+E(xc)   XCENC  =      2944.97445757
  PAW double counting   =     98636.30404946  -105131.67873158
  entropy T*S    EENTRO =        -0.01309417
  eigenvalues    EBANDS =     -1254.29909874
  atomic energy  EATOM  =    100688.39018299
  Solvation  Ediel_sol  =         0.00000000
  ---------------------------------------------------
  free energy    TOTEN  =      -276.24654855 eV

  energy without entropy =     -276.23345439  energy(sigma->0) =     -276.24218383


--------------------------------------------------------------------------------------------------------




--------------------------------------- Iteration      1(  13)  ---------------------------------------


    POTLOK:  cpu time    0.3962: real time    0.3974
    SETDIJ:  cpu time    0.0280: real time    0.0281
    EDDIAG:  cpu time   11.0578: real time   11.0883
  RMM-DIIS:  cpu time   39.4019: real time   39.5096
    ORTHCH:  cpu time    1.1786: real time    1.1821
       DOS:  cpu time    0.0021: real time    0.0021
    CHARGE:  cpu time    4.2120: real time    4.2236
    MIXING:  cpu time    0.0121: real time    0.0121
    --------------------------------------------
      LOOP:  cpu time   56.2887: real time   56.4433

 eigenvalue-minimisations  :  9085
 total energy-change (2. order) :-0.1430474E+02  (-0.1476925E+01)
 number of electron     864.0000503 magnetization      27.8345629
 augmentation part      501.3734496 magnetization      14.8707744

 Broyden mixing:
  rms(total) = 0.20059E+01    rms(broyden)= 0.20059E+01
  rms(prec ) = 0.24528E+01
  weight for this iteration     100.00

 eigenvalues of (default mixing * dielectric matrix)
  average eigenvalue GAMMA=   0.8412
  1.8844  1.8844  0.7247  0.7247  0.5974  0.1864  0.4320  0.2958

 Free energy of the ion-electron system (eV)
  ---------------------------------------------------
  alpha Z        PSCENC =      2348.84637356
  Ewald energy   TEWEN  =    329109.71023744
  -Hartree energ DENC   =   -427709.34277303
  -exchange      EXHF   =         0.00000000
  -V(xc)+E(xc)   XCENC  =      2927.85123588
  PAW double counting   =     99854.31411964  -106382.73562706
  entropy T*S    EENTRO =        -0.03387662
  eigenvalues    EBANDS =     -1127.55115823
  atomic energy  EATOM  =    100688.39018299
  Solvation  Ediel_sol  =         0.00000000
  ---------------------------------------------------
  free energy    TOTEN  =      -290.55128542 eV

  energy without entropy =     -290.51740880  energy(sigma->0) =     -290.53999321


--------------------------------------------------------------------------------------------------------




--------------------------------------- Iteration      1(  14)  ---------------------------------------


    POTLOK:  cpu time    0.3977: real time    0.3987
    SETDIJ:  cpu time    0.0278: real time    0.0279
    EDDIAG:  cpu time   11.0871: real time   11.1177
  RMM-DIIS:  cpu time   39.1124: real time   39.2198
    ORTHCH:  cpu time    1.1743: real time    1.1775
       DOS:  cpu time    0.0021: real time    0.0021
    CHARGE:  cpu time    4.2307: real time    4.2422
    MIXING:  cpu time    0.0120: real time    0.0120
    --------------------------------------------
      LOOP:  cpu time   56.0442: real time   56.1979

 eigenvalue-minimisations  :  8991
 total energy-change (2. order) :-0.5746379E+01  (-0.6420964E+00)
 number of electron     864.0000506 magnetization      14.3708714
 augmentation part      499.3475659 magnetization       7.1181270

 Broyden mixing:
  rms(total) = 0.10501E+01    rms(broyden)= 0.10501E+01
  rms(prec ) = 0.12051E+01
  weight for this iteration     100.00

 eigenvalues of (default mixing * dielectric matrix)
  average eigenvalue GAMMA=   1.0184
  4.1486  1.3859  0.6824  0.6824  0.8002  0.5736  0.1864  0.2966  0.4096

 Free energy of the ion-electron system (eV)
  ---------------------------------------------------
  alpha Z        PSCENC =      2348.84637356
  Ewald energy   TEWEN  =    329109.71023744
  -Hartree energ DENC   =   -427709.65675750
  -exchange      EXHF   =         0.00000000
  -V(xc)+E(xc)   XCENC  =      2925.37058901
  PAW double counting   =     99793.35742491  -106312.30575336
  entropy T*S    EENTRO =        -0.02369393
  eigenvalues    EBANDS =     -1139.98626791
  atomic energy  EATOM  =    100688.39018299
  Solvation  Ediel_sol  =         0.00000000
  ---------------------------------------------------
  free energy    TOTEN  =      -296.29766479 eV

  energy without entropy =     -296.27397086  energy(sigma->0) =     -296.28976681


--------------------------------------------------------------------------------------------------------




--------------------------------------- Iteration      1(  15)  ---------------------------------------


    POTLOK:  cpu time    0.3962: real time    0.3972
    SETDIJ:  cpu time    0.0278: real time    0.0278
    EDDIAG:  cpu time   11.0903: real time   11.1212
  RMM-DIIS:  cpu time   39.2172: real time   39.3243
    ORTHCH:  cpu time    1.1804: real time    1.1836
       DOS:  cpu time    0.0022: real time    0.0022
    CHARGE:  cpu time    4.1963: real time    4.2078
    MIXING:  cpu time    0.0132: real time    0.0132
    --------------------------------------------
      LOOP:  cpu time   56.1236: real time   56.2773

 eigenvalue-minimisations  :  9023
 total energy-change (2. order) :-0.8931557E+01  (-0.4742411E+00)
 number of electron     864.0000506 magnetization       7.2057682
 augmentation part      499.6566343 magnetization       1.3468643

 Broyden mixing:
  rms(total) = 0.86249E+00    rms(broyden)= 0.86249E+00
  rms(prec ) = 0.97260E+00
  weight for this iteration     100.00

 eigenvalues of (default mixing * dielectric matrix)
  average eigenvalue GAMMA=   1.1699
  5.4627  1.6209  0.7389  0.7389  0.8345  0.8345  0.1864  0.5844  0.2968  0.4010

 Free energy of the ion-electron system (eV)
  ---------------------------------------------------
  alpha Z        PSCENC =      2348.84637356
  Ewald energy   TEWEN  =    329109.71023744
  -Hartree energ DENC   =   -427805.68892168
  -exchange      EXHF   =         0.00000000
  -V(xc)+E(xc)   XCENC  =      2918.71850211
  PAW double counting   =    100061.04009979  -106599.66756679
  entropy T*S    EENTRO =         0.01758802
  eigenvalues    EBANDS =     -1026.59571756
  atomic energy  EATOM  =    100688.39018299
  Solvation  Ediel_sol  =         0.00000000
  ---------------------------------------------------
  free energy    TOTEN  =      -305.22922212 eV

  energy without entropy =     -305.24681014  energy(sigma->0) =     -305.23508479


--------------------------------------------------------------------------------------------------------




--------------------------------------- Iteration      1(  16)  ---------------------------------------


    POTLOK:  cpu time    0.3946: real time    0.3959
    SETDIJ:  cpu time    0.0329: real time    0.0330
    EDDIAG:  cpu time   11.0743: real time   11.1048
  RMM-DIIS:  cpu time   39.2078: real time   39.3152
    ORTHCH:  cpu time    1.1800: real time    1.1832
       DOS:  cpu time    0.0022: real time    0.0022
    CHARGE:  cpu time    4.1976: real time    4.2090
    MIXING:  cpu time    0.0131: real time    0.0131
    --------------------------------------------
      LOOP:  cpu time   56.1025: real time   56.2564

 eigenvalue-minimisations  :  9029
 total energy-change (2. order) :-0.7323053E+01  (-0.7968640E+00)
 number of electron     864.0000504 magnetization       4.7253890
 augmentation part      498.5722718 magnetization       0.4953438

 Broyden mixing:
  rms(total) = 0.48127E+00    rms(broyden)= 0.48126E+00
  rms(prec ) = 0.55672E+00
  weight for this iteration     100.00

 eigenvalues of (default mixing * dielectric matrix)
  average eigenvalue GAMMA=   1.3428
  7.4591  1.7913  1.1415  0.9144  0.7156  0.7156  0.1864  0.2967  0.5717  0.5717
  0.4066

 Free energy of the ion-electron system (eV)
  ---------------------------------------------------
  alpha Z        PSCENC =      2348.84637356
  Ewald energy   TEWEN  =    329109.71023744
  -Hartree energ DENC   =   -427824.86504541
  -exchange      EXHF   =         0.00000000
  -V(xc)+E(xc)   XCENC  =      2916.34381050
  PAW double counting   =     99647.52252568  -106178.58443454
  entropy T*S    EENTRO =        -0.01489318
  eigenvalues    EBANDS =     -1019.90103186
  atomic energy  EATOM  =    100688.39018299
  Solvation  Ediel_sol  =         0.00000000
  ---------------------------------------------------
  free energy    TOTEN  =      -312.55227481 eV

  energy without entropy =     -312.53738164  energy(sigma->0) =     -312.54731042


--------------------------------------------------------------------------------------------------------




--------------------------------------- Iteration      1(  17)  ---------------------------------------


    POTLOK:  cpu time    0.3860: real time    0.3872
    SETDIJ:  cpu time    0.0273: real time    0.0274
    EDDIAG:  cpu time   11.0714: real time   11.1020
  RMM-DIIS:  cpu time   39.4819: real time   39.5901
    ORTHCH:  cpu time    1.1821: real time    1.1853
       DOS:  cpu time    0.0020: real time    0.0021
    CHARGE:  cpu time    4.2010: real time    4.2123
    MIXING:  cpu time    0.0134: real time    0.0135
    --------------------------------------------
      LOOP:  cpu time   56.3652: real time   56.5198

 eigenvalue-minimisations  :  9077
 total energy-change (2. order) :-0.3231649E+01  (-0.3199552E+00)
 number of electron     864.0000504 magnetization       4.0201390
 augmentation part      497.5959427 magnetization       1.7162745

 Broyden mixing:
  rms(total) = 0.22026E+00    rms(broyden)= 0.22026E+00
  rms(prec ) = 0.24823E+00
  weight for this iteration     100.00

 eigenvalues of (default mixing * dielectric matrix)
  average eigenvalue GAMMA=   1.3596
  8.0127  2.0535  1.2150  0.7275  0.7275  0.7573  0.7573  0.1864  0.2967  0.5884
  0.5884  0.4051

 Free energy of the ion-electron system (eV)
  ---------------------------------------------------
  alpha Z        PSCENC =      2348.84637356
  Ewald energy   TEWEN  =    329109.71023744
  -Hartree energ DENC   =   -427798.23612014
  -exchange      EXHF   =         0.00000000
  -V(xc)+E(xc)   XCENC  =      2915.79276210
  PAW double counting   =     99350.81970336  -105872.95296036
  entropy T*S    EENTRO =         0.03904296
  eigenvalues    EBANDS =     -1058.19314613
  atomic energy  EATOM  =    100688.39018299
  Solvation  Ediel_sol  =         0.00000000
  ---------------------------------------------------
  free energy    TOTEN  =      -315.78392421 eV

  energy without entropy =     -315.82296717  energy(sigma->0) =     -315.79693853


--------------------------------------------------------------------------------------------------------




--------------------------------------- Iteration      1(  18)  ---------------------------------------


    POTLOK:  cpu time    0.3874: real time    0.3883
    SETDIJ:  cpu time    0.0274: real time    0.0275
    EDDIAG:  cpu time   11.0816: real time   11.1125
  RMM-DIIS:  cpu time   39.4682: real time   39.5761
    ORTHCH:  cpu time    1.1807: real time    1.1839
       DOS:  cpu time    0.0021: real time    0.0021
    CHARGE:  cpu time    4.2057: real time    4.2175
    MIXING:  cpu time    0.0143: real time    0.0143
    --------------------------------------------
      LOOP:  cpu time   56.3674: real time   56.5222

 eigenvalue-minimisations  :  9085
 total energy-change (2. order) :-0.1674458E+01  (-0.1059711E+00)
 number of electron     864.0000504 magnetization       3.5480563
 augmentation part      497.5173003 magnetization       1.8501567

 Broyden mixing:
  rms(total) = 0.23661E+00    rms(broyden)= 0.23661E+00
  rms(prec ) = 0.27387E+00
  weight for this iteration     100.00

 eigenvalues of (default mixing * dielectric matrix)
  average eigenvalue GAMMA=   1.3497
  8.2980  2.1422  1.3094  0.8576  0.8576  0.7030  0.7030  0.1864  0.7008  0.2967
  0.4036  0.5437  0.5437

 Free energy of the ion-electron system (eV)
  ---------------------------------------------------
  alpha Z        PSCENC =      2348.84637356
  Ewald energy   TEWEN  =    329109.71023744
  -Hartree energ DENC   =   -427743.68732969
  -exchange      EXHF   =         0.00000000
  -V(xc)+E(xc)   XCENC  =      2914.82569265
  PAW double counting   =     99202.54130462  -105718.45185770
  entropy T*S    EENTRO =         0.06559921
  eigenvalues    EBANDS =     -1119.69858525
  atomic energy  EATOM  =    100688.39018299
  Solvation  Ediel_sol  =         0.00000000
  ---------------------------------------------------
  free energy    TOTEN  =      -317.45838217 eV

  energy without entropy =     -317.52398138  energy(sigma->0) =     -317.48024858


--------------------------------------------------------------------------------------------------------




--------------------------------------- Iteration      1(  19)  ---------------------------------------


    POTLOK:  cpu time    0.3893: real time    0.3902
    SETDIJ:  cpu time    0.0274: real time    0.0275
    EDDIAG:  cpu time   11.0651: real time   11.0956
  RMM-DIIS:  cpu time   39.2966: real time   39.4049
    ORTHCH:  cpu time    1.1800: real time    1.1828
       DOS:  cpu time    0.0021: real time    0.0021
    CHARGE:  cpu time    4.2019: real time    4.2121
    MIXING:  cpu time    0.0145: real time    0.0146
    --------------------------------------------
      LOOP:  cpu time   56.1770: real time   56.3297

 eigenvalue-minimisations  :  9019
 total energy-change (2. order) :-0.8558080E+00  (-0.4718587E-01)
 number of electron     864.0000504 magnetization       2.4197468
 augmentation part      497.6866918 magnetization       1.1421018

 Broyden mixing:
  rms(total) = 0.18049E+00    rms(broyden)= 0.18048E+00
  rms(prec ) = 0.20785E+00
  weight for this iteration     100.00

 eigenvalues of (default mixing * dielectric matrix)
  average eigenvalue GAMMA=   1.3914
  8.7852  2.3096  1.7182  1.0133  1.0133  0.8718  0.7073  0.7073  0.5696  0.5696
  0.1864  0.4045  0.2967  0.3269

 Free energy of the ion-electron system (eV)
  ---------------------------------------------------
  alpha Z        PSCENC =      2348.84637356
  Ewald energy   TEWEN  =    329109.71023744
  -Hartree energ DENC   =   -427703.55613669
  -exchange      EXHF   =         0.00000000
  -V(xc)+E(xc)   XCENC  =      2913.90489526
  PAW double counting   =     99162.15594487  -105675.46765814
  entropy T*S    EENTRO =         0.05331771
  eigenvalues    EBANDS =     -1162.35134713
  atomic energy  EATOM  =    100688.39018299
  Solvation  Ediel_sol  =         0.00000000
  ---------------------------------------------------
  free energy    TOTEN  =      -318.31419012 eV

  energy without entropy =     -318.36750783  energy(sigma->0) =     -318.33196269


[...]


 FORCES acting on ions
    electron-ion (+dipol)            ewald-force                    non-local-force                 convergence-correction
 -----------------------------------------------------------------------------------------------
   -.189E+00 -.734E-01 -.216E+04   0.196E+00 0.735E-01 0.215E+04   -.576E-02 0.532E-02 0.189E+01   0.104E-02 -.563E-02 0.288E-02
   -.383E-01 -.304E-01 -.216E+04   0.522E-01 0.163E-01 0.215E+04   -.106E-01 0.454E-02 0.189E+01   -.126E-02 0.842E-02 0.108E-02
   -.274E-01 0.302E+00 -.216E+04   0.530E-01 -.293E+00 0.215E+04   -.104E-01 0.427E-02 0.189E+01   -.147E-01 -.169E-01 0.197E-01
   -.192E+00 -.655E-02 0.390E+04   0.181E+00 0.159E-01 -.389E+04   0.579E-02 -.366E-02 -.307E+01   0.270E-02 -.342E-02 -.481E-02
   0.293E+00 -.202E+00 0.390E+04   -.302E+00 0.207E+00 -.389E+04   -.382E-03 0.133E-02 -.307E+01   0.432E-02 -.232E-02 -.416E-02
   0.176E+00 -.885E-01 0.390E+04   -.183E+00 0.979E-01 -.389E+04   0.131E-02 -.190E-02 -.307E+01   0.261E-02 -.465E-02 -.303E-02
   -.209E+00 0.272E+00 0.190E+04   0.210E+00 -.275E+00 -.190E+04   0.757E-02 -.624E-02 -.121E+01   -.294E-02 0.470E-02 0.540E-01
   -.912E-01 -.475E-01 0.190E+04   0.964E-01 0.436E-01 -.190E+04   0.468E-02 -.277E-02 -.121E+01   -.546E-02 0.376E-02 0.544E-01
   -.281E+00 -.803E-01 -.216E+04   0.299E+00 0.711E-01 0.215E+04   -.105E-01 0.468E-02 0.189E+01   -.545E-02 0.404E-02 0.366E-01
   0.175E+00 -.136E+00 0.390E+04   -.182E+00 0.141E+00 -.389E+04   -.962E-03 0.118E-02 -.307E+01   0.358E-02 -.272E-02 -.162E-02
   -.519E-01 0.181E+00 0.190E+04   0.514E-01 -.184E+00 -.190E+04   0.337E-02 -.486E-02 -.121E+01   0.116E-02 0.455E-02 0.571E-01
   0.699E-01 -.336E-01 -.134E+03   -.665E-01 0.400E-01 0.134E+03   -.132E-01 0.743E-02 -.290E+00   0.471E-02 -.104E-01 0.263E-01
   0.662E-01 -.908E-01 -.216E+04   -.362E-01 0.634E-01 0.215E+04   -.117E-01 0.574E-02 0.189E+01   -.179E-01 0.204E-01 0.257E-01
   0.697E-01 0.270E+00 -.216E+04   -.687E-01 -.265E+00 0.215E+04   -.121E-01 0.416E-02 0.189E+01   0.113E-01 -.116E-01 -.174E-02
   0.253E+00 -.846E-01 -.216E+04   -.215E+00 0.736E-01 0.215E+04   -.149E-01 0.478E-02 0.189E+01   -.245E-01 0.526E-02 0.727E-02
   0.832E-01 -.316E+00 0.390E+04   -.910E-01 0.318E+00 -.389E+04   0.363E-02 0.242E-02 -.307E+01   0.101E-02 -.112E-02 -.267E-02
   0.224E+00 -.497E-02 0.390E+04   -.232E+00 0.117E-01 -.389E+04   -.251E-02 0.357E-03 -.307E+01   0.508E-02 -.401E-02 -.403E-02
   0.381E+00 -.955E-01 0.390E+04   -.384E+00 0.989E-01 -.389E+04   -.467E-02 0.183E-02 -.307E+01   0.201E-02 -.172E-02 -.386E-02
   -.367E+00 -.333E-01 0.190E+04   0.369E+00 0.320E-01 -.190E+04   0.761E-02 -.173E-02 -.121E+01   -.452E-02 0.725E-03 0.537E-01
   0.433E-01 -.142E+00 -.133E+03   -.418E-01 0.147E+00 0.133E+03   -.147E-01 0.841E-02 -.287E+00   0.713E-02 -.807E-02 0.157E-01
   -.208E+00 -.261E-01 0.190E+04   0.209E+00 0.283E-01 -.190E+04   0.545E-02 -.172E-02 -.121E+01   -.267E-02 -.224E-02 0.560E-01
   -.191E+00 0.238E+00 0.190E+04   0.189E+00 -.237E+00 -.190E+04   0.721E-02 -.488E-02 -.121E+01   -.595E-03 0.122E-02 0.551E-01
   0.756E-01 -.197E+00 -.216E+04   -.554E-01 0.172E+00 0.215E+04   -.755E-02 0.605E-02 0.189E+01   -.110E-01 0.189E-01 -.186E-02
   0.494E+00 -.200E+00 0.390E+04   -.499E+00 0.203E+00 -.389E+04   -.491E-02 -.944E-04 -.307E+01   0.359E-02 -.575E-03 -.392E-02
   -.249E+00 0.118E+00 0.190E+04   0.249E+00 -.116E+00 -.190E+04   0.656E-02 -.427E-02 -.121E+01   -.231E-02 -.272E-03 0.547E-01
   0.221E+00 -.180E+00 -.133E+03   -.214E+00 0.170E+00 0.134E+03   -.124E-01 0.889E-02 -.287E+00   0.289E-03 0.483E-02 0.191E-01
   -.194E-02 0.131E-01 -.216E+04   0.863E-02 -.191E-01 0.215E+04   -.128E-01 0.488E-02 0.189E+01   0.627E-02 0.733E-03 -.356E-02
   0.170E+00 0.160E+00 0.390E+04   -.178E+00 -.154E+00 -.389E+04   -.348E-03 -.293E-02 -.307E+01   0.448E-02 -.107E-02 -.463E-02
   -.769E-01 -.987E-02 -.216E+04   0.934E-01 -.165E-02 0.215E+04   -.105E-01 0.773E-02 0.189E+01   -.488E-02 0.281E-02 0.568E-02
   0.127E+00 -.180E+00 0.390E+04   -.133E+00 0.184E+00 -.389E+04   -.222E-02 0.323E-02 -.307E+01   0.288E-02 -.290E-02 -.494E-02
   -.826E-01 0.114E-01 0.190E+04   0.833E-01 -.115E-01 -.190E+04   0.281E-02 0.567E-03 -.121E+01   -.352E-03 -.184E-02 0.578E-01
   -.114E+00 0.919E-01 0.190E+04   0.119E+00 -.928E-01 -.190E+04   0.562E-02 -.333E-02 -.121E+01   -.699E-02 0.109E-02 0.575E-01
   -.263E-01 0.158E+00 -.216E+04   0.353E-01 -.183E+00 0.215E+04   -.120E-01 0.498E-02 0.189E+01   0.385E-02 0.182E-01 0.236E-01
   0.207E+00 -.153E+00 0.390E+04   -.216E+00 0.157E+00 -.389E+04   0.176E-02 0.908E-03 -.307E+01   0.396E-02 -.113E-02 -.310E-02
   0.329E-01 -.860E-01 0.190E+04   -.306E-01 0.795E-01 -.190E+04   0.453E-02 0.712E-03 -.121E+01   -.289E-02 0.410E-02 0.552E-01
   0.182E+00 0.460E-01 -.133E+03   -.180E+00 -.453E-01 0.134E+03   -.126E-01 0.769E-02 -.288E+00   0.552E-02 -.569E-02 0.128E-01
   -.174E+00 0.470E-01 0.190E+04   0.181E+00 -.519E-01 -.190E+04   0.509E-02 -.310E-02 -.121E+01   -.723E-02 0.516E-02 0.554E-01
   -.363E-01 0.150E+00 0.190E+04   0.407E-01 -.154E+00 -.190E+04   0.446E-02 -.672E-02 -.121E+01   -.494E-02 0.689E-02 0.580E-01
   0.678E-01 -.172E+00 -.133E+03   -.642E-01 0.175E+00 0.134E+03   -.114E-01 0.890E-02 -.289E+00   0.344E-02 -.727E-02 0.179E-01
   -.347E+00 0.168E+00 -.216E+04   0.346E+00 -.153E+00 0.215E+04   -.560E-02 0.595E-02 0.189E+01   0.993E-02 -.222E-01 0.312E-01
   0.219E+00 0.203E+00 -.216E+04   -.191E+00 -.206E+00 0.215E+04   -.148E-01 0.224E-02 0.189E+01   -.130E-01 -.132E-02 0.766E-02
   -.249E+00 0.680E-01 0.390E+04   0.237E+00 -.590E-01 -.389E+04   0.571E-02 -.188E-02 -.307E+01   0.305E-02 -.447E-02 -.297E-02
   0.333E+00 -.144E+00 0.390E+04   -.341E+00 0.150E+00 -.389E+04   0.644E-03 0.617E-03 -.307E+01   0.220E-02 -.334E-02 -.370E-02
   0.294E-01 0.393E-01 0.190E+04   -.266E-01 -.412E-01 -.190E+04   0.384E-02 -.285E-02 -.121E+01   -.284E-02 0.251E-02 0.533E-01
   -.634E-01 0.146E+00 0.190E+04   0.680E-01 -.148E+00 -.190E+04   0.612E-02 -.222E-02 -.121E+01   -.582E-02 0.152E-02 0.542E-01
   0.427E-01 -.149E+00 -.134E+03   -.324E-01 0.143E+00 0.134E+03   -.984E-02 0.803E-02 -.289E+00   -.433E-02 0.198E-02 0.248E-01
   0.122E+00 0.117E+00 -.216E+04   -.130E+00 -.120E+00 0.215E+04   -.139E-01 0.178E-02 0.189E+01   0.199E-01 -.461E-03 0.203E-01
   -.187E+00 0.183E+00 0.390E+04   0.172E+00 -.176E+00 -.389E+04   0.767E-02 -.314E-02 -.307E+01   0.437E-02 -.179E-02 -.346E-02
   0.134E+00 -.409E-02 -.133E+03   -.136E+00 -.247E-02 0.134E+03   -.103E-01 0.714E-02 -.289E+00   0.844E-02 0.177E-02 0.200E-01
   0.135E+00 -.650E-01 -.133E+03   -.133E+00 0.630E-01 0.134E+03   -.128E-01 0.616E-02 -.289E+00   0.552E-02 -.122E-02 0.121E-01
   0.814E-01 0.219E-01 -.133E+03   -.850E-01 -.174E-01 0.133E+03   -.117E-01 0.748E-02 -.286E+00   0.102E-01 -.908E-02 0.183E-01
   0.267E+00 -.152E+00 -.133E+03   -.260E+00 0.147E+00 0.133E+03   -.126E-01 0.792E-02 -.287E+00   0.707E-03 0.110E-02 0.135E-01
   0.590E-01 -.262E+00 -.133E+03   -.523E-01 0.257E+00 0.133E+03   -.118E-01 0.966E-02 -.288E+00   0.610E-03 -.123E-02 0.147E-01
   0.415E-01 -.393E-01 0.190E+04   -.370E-01 0.379E-01 -.190E+04   0.394E-02 -.139E-02 -.121E+01   -.492E-02 0.929E-03 0.552E-01
   0.540E-02 -.112E+00 -.133E+03   -.482E-02 0.111E+00 0.133E+03   -.106E-01 0.843E-02 -.287E+00   0.552E-02 -.420E-02 0.142E-01
   -.174E-01 0.755E-01 -.216E+04   0.154E-01 -.876E-01 0.215E+04   -.954E-02 0.573E-02 0.189E+01   0.125E-01 0.524E-02 0.237E-01
   -.108E+00 -.138E+00 -.216E+04   0.117E+00 0.129E+00 0.215E+04   -.886E-02 0.539E-02 0.190E+01   0.158E-02 0.269E-02 -.121E-01
   0.573E-01 0.245E-01 0.389E+04   -.678E-01 -.194E-01 -.389E+04   0.276E-03 -.592E-04 -.307E+01   0.605E-02 -.187E-02 -.371E-02
   -.100E+00 -.274E+00 0.390E+04   0.902E-01 0.278E+00 -.389E+04   0.430E-02 0.327E-02 -.307E+01   0.267E-02 -.323E-02 -.576E-02
   0.206E+00 -.307E-01 -.134E+03   -.195E+00 0.323E-01 0.134E+03   -.118E-01 0.849E-02 -.289E+00   -.425E-02 -.667E-02 0.199E-01
   0.700E-01 -.470E-01 -.133E+03   -.717E-01 0.423E-01 0.134E+03   -.961E-02 0.866E-02 -.289E+00   0.716E-02 -.243E-03 0.269E-01
   -.801E-02 0.315E-01 0.190E+04   0.995E-02 -.333E-01 -.190E+04   0.143E-02 -.169E-02 -.121E+01   -.374E-03 0.961E-03 0.550E-01
   0.186E+00 0.412E-01 -.133E+03   -.190E+00 -.450E-01 0.134E+03   -.124E-01 0.698E-02 -.289E+00   0.120E-01 0.223E-03 0.185E-01
   0.157E+00 -.440E-01 -.133E+03   -.150E+00 0.400E-01 0.134E+03   -.118E-01 0.733E-02 -.288E+00   -.197E-03 0.264E-03 0.151E-01
   -.822E-02 -.734E+00 -.350E+04   0.886E-02 0.685E+00 0.350E+04   0.685E-04 0.162E-01 0.160E+01   -.200E-02 0.495E-01 -.503E-02
   -.117E+00 -.183E+00 -.350E+04   0.160E+00 0.180E+00 0.350E+04   0.126E-01 0.309E-02 0.160E+01   -.467E-01 0.274E-02 -.345E-02
   -.180E+00 -.177E+00 -.350E+04   0.171E+00 0.142E+00 0.350E+04   0.466E-02 0.449E-03 0.160E+01   0.817E-02 0.373E-01 -.545E-02
   -.278E+00 -.655E+00 -.350E+04   0.248E+00 0.633E+00 0.350E+04   0.957E-02 0.139E-01 0.160E+01   0.278E-01 0.238E-01 -.622E-02
   0.174E+00 -.847E+00 -.350E+04   -.149E+00 0.781E+00 0.350E+04   -.504E-02 0.205E-01 0.159E+01   -.253E-01 0.661E-01 -.331E-02
   0.309E+00 0.497E+00 -.350E+04   -.312E+00 -.486E+00 0.350E+04   -.389E-02 -.135E-01 0.160E+01   0.179E-02 -.948E-02 -.256E-02
   -.607E+00 0.493E+00 -.350E+04   0.593E+00 -.497E+00 0.350E+04   0.214E-01 -.163E-01 0.160E+01   0.112E-01 0.621E-02 -.361E-02
   -.303E+00 -.283E+00 -.350E+04   0.282E+00 0.261E+00 0.350E+04   0.876E-02 0.164E-02 0.159E+01   0.182E-01 0.222E-01 -.553E-02
   0.329E+00 0.712E+00 -.350E+04   -.308E+00 -.643E+00 0.350E+04   -.108E-01 -.187E-01 0.160E+01   -.207E-01 -.670E-01 -.398E-02
   0.424E+00 0.419E+00 -.350E+04   -.376E+00 -.406E+00 0.350E+04   -.611E-02 -.151E-01 0.160E+01   -.503E-01 -.949E-02 -.278E-02
   0.447E+00 0.478E+00 -.350E+04   -.417E+00 -.459E+00 0.350E+04   -.422E-02 -.140E-01 0.159E+01   -.333E-01 -.182E-01 -.478E-02
   -.145E+00 -.109E+00 -.350E+04   0.114E+00 0.110E+00 0.350E+04   0.764E-02 0.736E-03 0.159E+01   0.314E-01 -.898E-03 -.421E-02
   -.571E+00 0.659E+00 -.350E+04   0.562E+00 -.625E+00 0.350E+04   0.200E-01 -.185E-01 0.160E+01   0.645E-02 -.340E-01 -.296E-02
   -.580E+00 0.642E+00 -.350E+04   0.545E+00 -.604E+00 0.350E+04   0.207E-01 -.191E-01 0.160E+01   0.330E-01 -.353E-01 -.611E-02
   0.377E-01 -.741E+00 -.350E+04   -.194E-01 0.707E+00 0.350E+04   0.460E-02 0.176E-01 0.160E+01   -.208E-01 0.340E-01 -.260E-02
   -.647E+00 0.696E+00 -.350E+04   0.600E+00 -.637E+00 0.350E+04   0.208E-01 -.193E-01 0.159E+01   0.451E-01 -.585E-01 -.290E-02
 -----------------------------------------------------------------------------------------------
   0.156E+00 -.864E-01 0.161E+02   0.228E-12 -.683E-12 0.146E-10   -.165E+00 0.100E+00 -.173E+02   0.212E-01 -.130E-01 0.124E+01
 
 
 POSITION                                       TOTAL-FORCE (eV/Angst)
 -----------------------------------------------------------------------------------
     12.87799      7.94788      6.92168         0.003001     -0.000662     -0.004319
      4.95834      7.94807      6.92160         0.002652     -0.001511     -0.004701
      3.63864      5.66185      6.92164         0.001207     -0.003574     -0.001889
     12.88772      7.94133      0.98786        -0.003078      0.002411      0.016753
      4.96828      7.94090      0.98788        -0.005055      0.003930      0.016616
      3.64811      5.65491      0.98789        -0.004270      0.002988      0.016495
      7.60345      1.84766      2.97612         0.005019     -0.003750     -0.019720
      8.92360      8.70642      2.97615         0.004492     -0.003086     -0.020031
      2.31862      3.37531      6.92156         0.002421     -0.000881     -0.002581
      2.32840      3.36855      0.98789        -0.005088      0.003658      0.016287
     10.24366      1.84749      2.97631         0.004098     -0.002734     -0.020453
     12.88316      4.89635      4.94988        -0.005378      0.003511      0.000483
      3.63874      1.08888      6.92153         0.001004     -0.001692      0.001507
      8.91880      5.66187      6.92155         0.000759     -0.003044     -0.001640
      4.95926      3.37531      6.92162        -0.001389     -0.001346     -0.002785
      3.64790      1.08225      0.98791        -0.003614      0.003749      0.016193
      8.92836      5.65491      0.98749        -0.005481      0.003235      0.016890
      4.96868      3.36845      0.98773        -0.006338      0.003659      0.017109
     11.56329      8.70620      2.97600         0.005394     -0.002463     -0.019700
     11.56319      7.18257      4.94948        -0.006333      0.004717      0.001760
     12.88367      6.41974      2.97616         0.004349     -0.001914     -0.019912
      8.92348      4.13384      2.97614         0.004965     -0.003070     -0.020061
      7.59834      7.94785      6.92157         0.002096     -0.000649     -0.002254
      7.60853      7.94123      0.98754        -0.006188      0.003200      0.017010
     10.24361      6.42012      2.97615         0.004297     -0.002708     -0.020384
      2.32301      0.32379      4.94958        -0.005501      0.003702      0.002038
      7.59898      3.37542      6.92163         0.000873     -0.000862     -0.004072
      7.60822      3.36882      0.98754        -0.004817      0.002458      0.017237
      6.27847      1.08881      6.92159         0.001765     -0.001578     -0.001920
      6.28821      1.08205      0.98764        -0.005297      0.004134      0.017298
     11.56394      4.13343      2.97611         0.003317     -0.001543     -0.019653
      3.64388      4.13378      2.97638         0.004475     -0.003331     -0.020070
      0.99858      1.08910      6.92143         0.001423     -0.002792     -0.001678
      1.00799      1.08229      0.98797        -0.004176      0.003331      0.016737
      6.28378      8.70616      2.97613         0.003948     -0.001864     -0.019723
      7.60312      4.89664      4.94960        -0.004805      0.002796      0.001716
      4.96354      1.84747      2.97629         0.005121     -0.003053     -0.020074
      2.32374      1.84771      2.97641         0.003958     -0.004013     -0.020279
     14.20286      7.18263      4.94973        -0.004732      0.004368      0.001200
     11.55810      5.66174      6.92136         0.003868     -0.002197      0.002662
      6.27913      5.66204      6.92136        -0.000046     -0.003044      0.003035
     11.56779      5.65497      0.98776        -0.003229      0.002728      0.016719
      6.28834      5.65490      0.98766        -0.004856      0.003346      0.016947
      7.60388      6.42003      2.97604         0.003818     -0.002379     -0.019654
      6.28360      4.13381      2.97627         0.004986     -0.003015     -0.019801
      3.64307      2.60999      4.94995        -0.004264      0.004580      0.000877
     10.23896      3.37562      6.92166        -0.000610     -0.001924     -0.004145
     10.24772      3.36878      0.98775        -0.002981      0.002403      0.017018
     10.24279      0.32399      4.94971        -0.004049      0.002492      0.000728
      8.92294      7.18292      4.94961        -0.004980      0.003038      0.001233
     10.24305      4.89652      4.94923        -0.005480      0.002983      0.003071
      6.28291      7.18288      4.94948        -0.005068      0.004031      0.002097
      4.96306      0.32354      4.94957        -0.005015      0.004410      0.001844
      4.96387      6.41973      2.97634         0.003645     -0.001933     -0.020309
      7.60287      0.32375      4.94943        -0.004926      0.003427      0.001999
      8.91837      1.08907      6.92148         0.001522     -0.001642      0.000791
     10.23834      7.94781      6.92158         0.002789     -0.000905     -0.003778
      8.92813      1.08218      0.98802        -0.004671      0.003291      0.016356
     10.24773      7.94104      0.98727        -0.003474      0.004046      0.017974
      4.96316      4.89638      4.95000        -0.005392      0.003549      0.000630
     11.56291      2.61015      4.94974        -0.004500      0.003869      0.001152
     14.20386      8.70612      2.97627         0.003068     -0.002641     -0.020398
      8.92314      2.61032      4.94973        -0.005500      0.003545      0.000819
      6.28325      2.61007      4.94966        -0.005359      0.003820      0.001885
     14.19246      8.71269      9.09988        -0.001780      0.016555      0.005207
      3.63183      4.14040      9.09992         0.008085      0.002795      0.002698
      6.27225      8.71318      9.09994         0.003666      0.003426      0.004133
     11.55190      4.14014      9.10007         0.006412      0.014882      0.003404
      8.91259      8.71241      9.10015        -0.006009      0.020559      0.003568
     10.23249      1.85485      9.10000        -0.005538     -0.012202      0.003405
      2.31143      1.85486      9.09991         0.018246     -0.014017      0.003477
     11.55210      8.71310      9.10024         0.005698      0.001935      0.002891
     12.87281      6.42779      9.10013        -0.011016     -0.016666      0.003471
      4.95246      1.85490      9.10034        -0.008812     -0.011956      0.002358
      7.59261      6.42738      9.10051        -0.007844     -0.012675      0.001976
      8.91206      4.14054      9.10012         0.006644      0.001414      0.003198
      4.95163      6.42761      9.09992         0.016385     -0.017232      0.003697
      7.59153      1.85515      9.10006         0.018058     -0.016340      0.003915
      6.27203      4.13995      9.10001         0.001389      0.017530      0.004108
     10.23168      6.42774      9.10034         0.018028     -0.017616      0.003314
 -----------------------------------------------------------------------------------
    total drift:                                0.012738      0.000933      0.036033


--------------------------------------------------------------------------------------------------------



  FREE ENERGIE OF THE ION-ELECTRON SYSTEM (eV)
  ---------------------------------------------------
  free  energy   TOTEN  =      -359.00638673 eV

  energy  without entropy=     -358.93306969  energy(sigma->0) =     -358.98194772
 
 d Force = 0.3348578E-03[-0.620E-04, 0.732E-03]  d Energy = 0.3941336E-03-0.593E-04
 d Force =-0.3829115E+02[-0.383E+02,-0.383E+02]  d Ewald  =-0.3829115E+02-0.120E-06


--------------------------------------------------------------------------------------------------------


    POTLOK:  cpu time    0.4292: real time    0.4302


--------------------------------------------------------------------------------------------------------




--------------------------------------------------------------------------------------------------------


  
 reached required accuracy - stopping structural energy minimisation
     LOOP+:  cpu time  366.1617: real time  367.1200
    4ORBIT:  cpu time    0.0000: real time    0.0000

 total amount of memory used by VASP MPI-rank0   245874. kBytes
=======================================================================

   base      :      30000. kBytes
   nonlr-proj:      36725. kBytes
   fftplans  :      17962. kBytes
   grid      :      46451. kBytes
   one-center:        622. kBytes
   wavefun   :     114114. kBytes
 
  
  
 General timing and accounting informations for this job:
 ========================================================
  
                  Total CPU time used (sec):     9682.279
                            User time (sec):     9668.384
                          System time (sec):       13.895
                         Elapsed time (sec):     9709.314
  
                   Maximum memory used (kb):      793364.
                   Average memory used (kb):           0.
  
                          Minor page faults:      2127286
                          Major page faults:            0
                 Voluntary context switches:         3983
