 vasp.5.4.4.18Apr17-6-g9f103f2a35 (build Nov 30 2020 22:55:02) complex          
  
 executed on             LinuxIFC date 2023.09.09  16:08:52
 running on   40 total cores
 distrk:  each k-point on   40 cores,    1 groups
 distr:  one band on NCORES_PER_BAND=   4 cores,   10 groups


--------------------------------------------------------------------------------------------------------


 INCAR:
 POTCAR:    PAW_PBE Pt 04Feb2005                  
 POTCAR:    PAW_PBE Pt 04Feb2005                  
   VRHFIN =Pt: s1d9                                                             
   LEXCH  = PE                                                                  
   EATOM  =   729.1176 eV,   53.5886 Ry                                         
                                                                                
   TITEL  = PAW_PBE Pt 04Feb2005                                                
   LULTRA =        F    use ultrasoft PP ?                                      
   IUNSCR =        1    unscreen: 0-lin 1-nonlin 2-no                           
   RPACOR =    2.330    partial core radius                                     
   POMASS =  195.080; ZVAL   =   10.000    mass and valenz                      
   RCORE  =    2.600    outmost cutoff radius                                   
   RWIGS  =    2.750; RWIGS  =    1.455    wigner-seitz radius (au A)           
   ENMAX  =  230.283; ENMIN  =  172.712 eV                                      
   ICORE  =        3    local potential                                         
   LCOR   =        T    correct aug charges                                     
   LPAW   =        T    paw PP                                                  
   EAUG   =  358.966                                                            
   DEXC   =    0.000                                                            
   RMAX   =    2.658    core radius for proj-oper                               
   RAUG   =    1.300    factor for augmentation sphere                          
   RDEP   =    2.761    radius for radial grids                                 
   RDEPT  =    2.203    core radius for aug-charge                              
                                                                                
   Atomic configuration                                                         
   16 entries                                                                   
     n  l   j            E        occ.                                          
     1  0  0.50    -78401.1885   2.0000                                         
     2  0  0.50    -13770.7750   2.0000                                         
     2  1  1.50    -11931.0468   6.0000                                         
     3  0  0.50     -3234.7234   2.0000                                         
     3  1  1.50     -2699.2216   6.0000                                         
     3  2  2.50     -2119.5714  10.0000                                         
     4  0  0.50      -695.1528   2.0000                                         
     4  1  1.50      -519.6034   6.0000                                         
     4  2  2.50      -306.6786  10.0000                                         
     4  3  3.50       -70.1041  14.0000                                         
     5  0  0.50      -101.7747   2.0000                                         
     5  1  1.50       -55.9873   6.0000                                         
     5  2  2.50        -6.1423   9.0000                                         
     6  0  0.50        -5.6573   1.0000                                         
     6  1  1.50        -6.8029   0.0000                                         
     5  3  2.50        -1.3606   0.0000                                         
   Description                                                                  
     l       E           TYP  RCUT    TYP  RCUT                                 
     2     -6.1423404     23  2.500                                             
     2     -7.5029230     23  2.500                                             
     0     -5.6573207     23  2.500                                             
     0      0.7416693     23  2.500                                             
     1     -2.7211652     23  2.600                                             
     1     20.4087390     23  2.600                                             
     3     -1.3605826     23  2.500                                             
  local pseudopotential read in
  partial core-charges read in
  partial kinetic energy density read in
  atomic valenz-charges read in
  non local Contribution for L=           2  read in
    real space projection operators read in
  non local Contribution for L=           2  read in
    real space projection operators read in
  non local Contribution for L=           0  read in
    real space projection operators read in
  non local Contribution for L=           0  read in
    real space projection operators read in
  non local Contribution for L=           1  read in
    real space projection operators read in
  non local Contribution for L=           1  read in
    real space projection operators read in
    PAW grid and wavefunctions read in
 
   number of l-projection  operators is LMAX  =           6
   number of lm-projection operators is LMMAX =          18
 
 Optimization of the real space projectors (new method)

 maximal supplied QI-value         = 14.36
 optimisation between [QCUT,QGAM] = [ 11.92, 23.98] = [ 39.79,161.09] Ry 
 Optimized for a Real-space Cutoff    1.49 Angstroem

   l    n(q)    QCUT    max X(q) W(low)/X(q) W(high)/X(q)  e(spline) 
   2     10    11.920    66.195    0.79E-04    0.18E-03    0.24E-06
   2     10    11.920    64.643    0.81E-04    0.19E-03    0.24E-06
   0     11    11.920    95.520    0.28E-04    0.54E-04    0.18E-06
   0     11    11.920    63.403    0.27E-04    0.52E-04    0.17E-06
   1     10    11.920    19.961    0.18E-04    0.11E-03    0.23E-06
   1     10    11.920    13.289    0.25E-04    0.87E-04    0.19E-06
  PAW_PBE Pt 04Feb2005                  :
 energy of atom  1       EATOM= -729.1176
 kinetic energy error for atom=    0.0021 (will be added to EATOM!!)
 
 
 POSCAR: Pt111                                   
  positions in cartesian coordinates
  No initial velocities read in
 exchange correlation table for  LEXCH =        8
   RHO(1)=    0.500       N(1)  =     2000
   RHO(2)=  100.500       N(2)  =     4000
 


--------------------------------------------------------------------------------------------------------


 ion  position               nearest neighbor table
   1  0.783  0.871  0.334-  73 2.67  43 2.67  72 2.67   3 2.67   2 2.67  56 2.67  71 2.82  20 2.82
                            55 2.83  35 2.86  27 2.86  34 2.87
   2  0.034  0.871  0.334-  47 2.66  23 2.66   1 2.67  72 2.67   3 2.67  57 2.67  68 2.82  55 2.82
                            65 2.83  27 2.87  39 2.87  29 2.87
   3  0.033  0.620  0.334-   9 2.66  15 2.66  56 2.66   1 2.67   2 2.67  57 2.67  76 2.82  55 2.82
                            12 2.83  35 2.86  28 2.87  39 2.87
   4  0.787  0.868  0.009-  44 2.66  75 2.66  74 2.66   5 2.67  58 2.67   6 2.67  78 2.86  21 2.86
                            19 2.87
   5  0.037  0.868  0.009-  59 2.66  24 2.66   6 2.66   4 2.67  48 2.67  74 2.67  49 2.86  70 2.86
                            78 2.86
   6  0.037  0.618  0.010-  10 2.66  59 2.66   5 2.66  58 2.66  18 2.67   4 2.67  70 2.86  46 2.86
                            21 2.86
   7  0.620  0.202  0.119-  11 2.66  61 2.66  22 2.66  78 2.66  53 2.67  19 2.67  71 2.82  79 2.83
                            80 2.85  42 2.86  44 2.86  74 2.87
   8  0.370  0.952  0.119-  60 2.66  19 2.66  53 2.66  25 2.67  54 2.67  49 2.67  69 2.81  66 2.83
                            26 2.83  16 2.86  24 2.86  75 2.87
   9  0.033  0.371  0.334-   3 2.66  56 2.66  63 2.67  15 2.67  47 2.67  13 2.67  12 2.82  77 2.82
                            62 2.82  33 2.85  30 2.87  28 2.88
  10  0.037  0.368  0.010-  16 2.66  18 2.66   6 2.66  48 2.67  58 2.67  64 2.67  54 2.86  46 2.86
                            45 2.86
  11  0.870  0.202  0.119-   7 2.66  78 2.66  22 2.66  49 2.67  54 2.67  45 2.67  65 2.81  77 2.82
                            79 2.84  64 2.86  74 2.86  48 2.87
  12  0.952  0.536  0.226-  55 2.66  62 2.66  20 2.67  77 2.67  76 2.67  67 2.67  21 2.81  45 2.81
                            46 2.82   9 2.82   3 2.83  56 2.84
  13  0.284  0.120  0.334-  43 2.66  73 2.66  15 2.67  23 2.67  47 2.67   9 2.67  62 2.81  26 2.82
                            69 2.83  33 2.86  31 2.86  36 2.87
  14  0.533  0.621  0.336-  63 2.66  23 2.66  41 2.66  57 2.66  56 2.67  73 2.67  51 2.82  66 2.84
                            52 2.84  67 2.85  38 2.86  37 2.87
  15  0.284  0.371  0.336-  57 2.66  41 2.66   3 2.66  43 2.67   9 2.67  13 2.67  76 2.82  80 2.84
                            62 2.84  36 2.84  28 2.86  50 2.88
  16  0.287  0.118  0.010-  10 2.66  48 2.66  18 2.66  24 2.66  75 2.67  44 2.67   8 2.86  53 2.86
                            54 2.87
  17  0.537  0.618  0.009-  58 2.66  75 2.66  64 2.66  42 2.67  24 2.67  59 2.67  22 2.86  25 2.86
                            60 2.87
  18  0.287  0.368  0.010-  10 2.66  16 2.66  42 2.67  44 2.67   6 2.67  59 2.67  53 2.86  61 2.86
                            46 2.87
  19  0.620  0.952  0.119-  53 2.66   8 2.66  25 2.66  21 2.67   7 2.67  78 2.67  20 2.82  71 2.82
                            69 2.82  44 2.86  75 2.86   4 2.87
  20  0.701  0.786  0.227-  69 2.67  12 2.67  55 2.67  71 2.67  67 2.67  66 2.67  56 2.82  19 2.82
                            25 2.82   1 2.82  73 2.83  21 2.83
  21  0.870  0.702  0.119-  70 2.66  25 2.66  78 2.66  45 2.67  46 2.67  19 2.67  12 2.81  55 2.82
                            20 2.83  58 2.86   4 2.86   6 2.86
  22  0.620  0.452  0.119-  11 2.66  45 2.66   7 2.66  60 2.67  61 2.67  25 2.67  79 2.82  67 2.83
                            17 2.86  42 2.86  51 2.86  64 2.87
  23  0.284  0.870  0.335-  14 2.66  57 2.66   2 2.66  73 2.66  47 2.67  13 2.67  68 2.83  26 2.83
                            66 2.83  31 2.85  29 2.86  37 2.88
  24  0.287  0.868  0.009-   5 2.66  48 2.66  16 2.66  59 2.67  75 2.67  17 2.67  60 2.86   8 2.86
                            49 2.87
  25  0.620  0.702  0.119-  19 2.66  60 2.66  45 2.66  21 2.66   8 2.67  22 2.67  20 2.82  67 2.83
                            66 2.84  17 2.86  75 2.86  58 2.87
  26  0.202  0.036  0.227-  65 2.66  69 2.66  66 2.67  68 2.67  77 2.67  62 2.67  54 2.82  13 2.82
                            49 2.82  47 2.82  23 2.83   8 2.83
  27  0.866  0.955  0.444-  40 2.66  32 2.66  39 2.66  29 2.66  35 2.66  34 2.67  72 2.86   1 2.86
                             2 2.87
  28  0.116  0.455  0.445-  30 2.66  35 2.66  33 2.66  39 2.67  50 2.67  36 2.67  15 2.86   3 2.87
                             9 2.88
  29  0.116  0.955  0.444-  32 2.66  27 2.66  39 2.66  33 2.67  37 2.67  31 2.67  23 2.86  47 2.87
                             2 2.87
  30  0.866  0.455  0.444-  28 2.66  35 2.66  38 2.66  33 2.66  52 2.67  32 2.67  63 2.86  56 2.86
                             9 2.87
  31  0.366  0.955  0.444-  36 2.66  34 2.66  52 2.67  33 2.67  37 2.67  29 2.67  23 2.85  13 2.86
                            73 2.87
  32  0.866  0.205  0.444-  29 2.66  33 2.66  27 2.66  38 2.66  40 2.67  30 2.67  63 2.85  72 2.87
                            47 2.87
  33  0.116  0.205  0.443-  32 2.66  36 2.66  30 2.66  28 2.66  29 2.67  31 2.67   9 2.85  47 2.86
                            13 2.86
  34  0.616  0.955  0.444-  40 2.66  36 2.66  52 2.66  31 2.66  35 2.67  27 2.67  43 2.86  73 2.86
                             1 2.87
  35  0.866  0.705  0.444-  52 2.66  39 2.66  30 2.66  28 2.66  27 2.66  34 2.67   1 2.86   3 2.86
                            56 2.86
  36  0.366  0.205  0.444-  31 2.66  34 2.66  33 2.66  50 2.67  40 2.67  28 2.67  15 2.84  13 2.87
                            43 2.88
  37  0.366  0.705  0.446-  31 2.67  29 2.67  39 2.67  50 2.67  52 2.67  38 2.67  57 2.86  14 2.87
                            23 2.88
  38  0.616  0.455  0.446-  32 2.66  30 2.66  40 2.67  52 2.67  37 2.67  50 2.67  14 2.86  41 2.86
                            63 2.89
  39  0.116  0.705  0.445-  35 2.66  27 2.66  29 2.66  28 2.67  50 2.67  37 2.67  57 2.84   2 2.87
                             3 2.87
  40  0.616  0.205  0.445-  34 2.66  27 2.66  32 2.67  36 2.67  38 2.67  50 2.67  41 2.83  43 2.87
                            72 2.88
  41  0.533  0.371  0.336-  57 2.66  63 2.66  14 2.66  15 2.66  72 2.67  43 2.67  51 2.82  40 2.83
                            80 2.84  79 2.86  38 2.86  50 2.87
  42  0.537  0.368  0.009-  64 2.66  17 2.67  18 2.67  59 2.67  74 2.67  44 2.67   7 2.86  22 2.86
                            61 2.87
  43  0.533  0.121  0.334-  13 2.66  15 2.67   1 2.67  72 2.67  73 2.67  41 2.67  80 2.80  69 2.83
                            71 2.83  34 2.86  40 2.87  36 2.88
  44  0.537  0.118  0.009-   4 2.66  74 2.66  18 2.67  42 2.67  75 2.67  16 2.67  19 2.86   7 2.86
                            53 2.87
  45  0.870  0.452  0.119-  22 2.66  25 2.66  54 2.66  21 2.67  46 2.67  11 2.67  12 2.81  77 2.82
                            67 2.84  58 2.86  64 2.86  10 2.86
  46  0.120  0.452  0.119-  70 2.66  61 2.66  53 2.67  21 2.67  54 2.67  45 2.67  62 2.82  12 2.82
                            76 2.84   6 2.86  10 2.86  18 2.87
  47  0.033  0.120  0.334-   2 2.66  72 2.66  23 2.67  63 2.67  13 2.67   9 2.67  77 2.81  26 2.82
                            65 2.83  33 2.86  29 2.87  32 2.87
  48  0.037  0.118  0.009-  16 2.66  24 2.66  64 2.66  74 2.67  10 2.67   5 2.67  49 2.86  54 2.86
                            11 2.87
  49  0.120  0.952  0.119-  78 2.66  70 2.66  11 2.67  60 2.67  54 2.67   8 2.67  65 2.82  26 2.82
                            68 2.83  48 2.86   5 2.86  24 2.87
  50  0.366  0.455  0.446-  28 2.67  36 2.67  40 2.67  39 2.67  37 2.67  38 2.67  57 2.86  41 2.87
                            15 2.88
  51  0.451  0.536  0.228-  76 2.66  68 2.66  66 2.66  80 2.66  79 2.66  67 2.66  41 2.82  14 2.82
                            57 2.84  60 2.85  61 2.85  22 2.86
  52  0.616  0.705  0.444-  35 2.66  34 2.66  31 2.67  30 2.67  38 2.67  37 2.67  14 2.84  73 2.87
                            56 2.88
  53  0.370  0.202  0.119-  19 2.66   8 2.66  54 2.66  46 2.67   7 2.67  61 2.67  69 2.81  62 2.83
                            80 2.84  18 2.86  16 2.86  44 2.87
  54  0.120  0.202  0.119-  53 2.66  45 2.66   8 2.67  49 2.67  46 2.67  11 2.67  26 2.82  62 2.83
                            77 2.83  10 2.86  48 2.86  16 2.87
  55  0.952  0.786  0.227-  12 2.66  65 2.67  20 2.67  71 2.67  68 2.67  76 2.67   3 2.82   2 2.82
                            78 2.82  21 2.82   1 2.83  70 2.83
  56  0.783  0.620  0.334-   9 2.66  63 2.66   3 2.66  14 2.67  73 2.67   1 2.67  67 2.81  20 2.82
                            12 2.84  30 2.86  35 2.86  52 2.88
  57  0.284  0.620  0.336-  15 2.66  41 2.66  23 2.66  14 2.66   2 2.67   3 2.67  51 2.84  76 2.84
                            39 2.84  68 2.84  50 2.86  37 2.86
  58  0.787  0.618  0.009-  17 2.66  75 2.66   6 2.66  64 2.67  10 2.67   4 2.67  45 2.86  21 2.86
                            25 2.87
  59  0.287  0.618  0.010-   5 2.66   6 2.66  24 2.67  42 2.67  18 2.67  17 2.67  60 2.86  61 2.86
                            70 2.87
  60  0.370  0.702  0.119-   8 2.66  25 2.66  22 2.67  49 2.67  61 2.67  70 2.67  66 2.83  68 2.84
                            51 2.85  59 2.86  24 2.86  17 2.87
  61  0.370  0.452  0.119-  46 2.66   7 2.66  70 2.67  22 2.67  53 2.67  60 2.67  80 2.83  76 2.84
                            51 2.85  18 2.86  59 2.86  42 2.87
  62  0.202  0.286  0.227-  80 2.66  76 2.66  69 2.66  12 2.66  77 2.67  26 2.67  13 2.81  46 2.82
                             9 2.82  54 2.83  53 2.83  15 2.84
  63  0.783  0.371  0.335-  14 2.66  41 2.66  56 2.66  72 2.66   9 2.67  47 2.67  67 2.82  79 2.83
                            77 2.84  32 2.85  30 2.86  38 2.89
  64  0.787  0.368  0.009-  74 2.66  17 2.66  42 2.66  48 2.66  58 2.67  10 2.67  11 2.86  45 2.86
                            22 2.87
  65  0.952  0.036  0.226-  26 2.66  77 2.66  55 2.67  71 2.67  79 2.67  68 2.67  11 2.81  78 2.81
                            49 2.82  47 2.83   2 2.83  72 2.84
  66  0.451  0.786  0.227-  67 2.66  51 2.66  68 2.66  26 2.67  20 2.67  69 2.67  73 2.81  60 2.83
                             8 2.83  23 2.83  14 2.84  25 2.84
  67  0.701  0.536  0.227-  66 2.66  51 2.66  79 2.66  77 2.67  20 2.67  12 2.67  56 2.81  63 2.82
                            25 2.83  22 2.83  45 2.84  14 2.85
  68  0.202  0.786  0.227-  76 2.66  51 2.66  66 2.66  26 2.67  55 2.67  65 2.67   2 2.82  23 2.83
                            70 2.83  49 2.83  60 2.84  57 2.84
  69  0.451  0.036  0.226-  71 2.66  62 2.66  26 2.66  20 2.67  80 2.67  66 2.67  53 2.81   8 2.81
                            19 2.82  73 2.82  43 2.83  13 2.83
  70  0.120  0.702  0.119-  46 2.66  21 2.66  49 2.66  61 2.67  78 2.67  60 2.67  55 2.83  68 2.83
                            76 2.83   6 2.86   5 2.86  59 2.87
  71  0.701  0.036  0.227-  69 2.66  79 2.67  65 2.67  20 2.67  55 2.67  80 2.67   7 2.82   1 2.82
                            19 2.82  72 2.82  78 2.83  43 2.83
  72  0.783  0.121  0.334-  47 2.66  63 2.66  43 2.67   1 2.67   2 2.67  41 2.67  79 2.81  71 2.82
                            65 2.84  27 2.86  32 2.87  40 2.88
  73  0.533  0.871  0.334-  13 2.66  23 2.66   1 2.67  43 2.67  56 2.67  14 2.67  66 2.81  69 2.82
                            20 2.83  34 2.86  52 2.87  31 2.87
  74  0.787  0.118  0.009-  64 2.66  44 2.66   4 2.66  48 2.67  42 2.67   5 2.67  78 2.86  11 2.86
                             7 2.87
  75  0.537  0.868  0.009-  17 2.66   4 2.66  58 2.66  24 2.67  44 2.67  16 2.67  25 2.86  19 2.86
                             8 2.87
  76  0.202  0.536  0.228-  68 2.66  51 2.66  80 2.66  62 2.66  55 2.67  12 2.67   3 2.82  15 2.82
                            70 2.83  46 2.84  57 2.84  61 2.84
  77  0.951  0.286  0.227-  65 2.66  12 2.67  67 2.67  79 2.67  26 2.67  62 2.67  47 2.81  45 2.82
                            11 2.82   9 2.82  54 2.83  63 2.84
  78  0.870  0.952  0.119-  11 2.66  49 2.66   7 2.66  21 2.66  70 2.67  19 2.67  65 2.81  55 2.82
                            71 2.83  74 2.86   4 2.86   5 2.86
  79  0.701  0.286  0.227-  80 2.66  51 2.66  67 2.66  71 2.67  77 2.67  65 2.67  72 2.81  22 2.82
                            63 2.83   7 2.83  11 2.84  41 2.86
  80  0.452  0.286  0.228-  79 2.66  51 2.66  76 2.66  62 2.66  71 2.67  69 2.67  43 2.80  61 2.83
                            53 2.84  15 2.84  41 2.84   7 2.85
 
  LATTYP: Found a hexagonal cell.
 ALAT       =    10.6599999232
 C/A-ratio  =     2.0637898835
  
  Lattice vectors:
  
 A1 = (   5.3300000753,  -9.2318306722,   0.0000000000)
 A2 = ( -10.6599999990,   0.0000000000,   0.0000000000)
 A3 = (   0.0000000000,   0.0000000000, -22.0000000000)


Analysis of symmetry for initial positions (statically):
=====================================================================
 Subroutine PRICEL returns:
 Original cell was already a primitive cell.
 

 Routine SETGRP: Setting up the symmetry group for a 
 hexagonal supercell.


 Subroutine GETGRP returns: Found  1 space group operations
 (whereof  1 operations were pure point group operations)
 out of a pool of 24 trial point group operations.


The static configuration has the point symmetry C_1 .


Analysis of symmetry for dynamics (positions and initial velocities):
=====================================================================
 Subroutine PRICEL returns:
 Original cell was already a primitive cell.
 

 Routine SETGRP: Setting up the symmetry group for a 
 hexagonal supercell.


 Subroutine GETGRP returns: Found  1 space group operations
 (whereof  1 operations were pure point group operations)
 out of a pool of 24 trial point group operations.


The dynamic configuration has the point symmetry C_1 .


Analysis of constrained symmetry for selective dynamics:
=====================================================================
 Subroutine PRICEL returns:
 Original cell was already a primitive cell.
 

 Routine SETGRP: Setting up the symmetry group for a 
 hexagonal supercell.


 Subroutine GETGRP returns: Found  1 space group operations
 (whereof  1 operations were pure point group operations)
 out of a pool of 24 trial point group operations.


The constrained configuration has the point symmetry C_1 .


Analysis of structural, dynamic, and magnetic symmetry:
=====================================================================
 Subroutine PRICEL returns:
 Original cell was already a primitive cell.
 

 Routine SETGRP: Setting up the symmetry group for a 
 hexagonal supercell.


 Subroutine GETGRP returns: Found  1 space group operations
 (whereof  1 operations were pure point group operations)
 out of a pool of 24 trial point group operations.


The magnetic configuration has the point symmetry C_1 .


 Subroutine INISYM returns: Found  1 space group operations
 (whereof  1 operations are pure point group operations),
 and found     1 'primitive' translations

 
 
 KPOINTS: mesh auto                               

Automatic generation of k-mesh.
Space group operators:
 irot       det(A)        alpha          n_x          n_y          n_z        tau_x        tau_y        tau_z
    1     1.000000     0.000000     1.000000     0.000000     0.000000     0.000000     0.000000     0.000000
 
 Subroutine IBZKPT returns following result:
 ===========================================
 
 Found      4 irreducible k-points:
 
 Following reciprocal coordinates:
            Coordinates               Weight
  0.000000  0.000000  0.000000      1.000000
  0.500000 -0.000000  0.000000      1.000000
  0.000000  0.500000  0.000000      1.000000
  0.500000  0.500000  0.000000      1.000000
 
 Following cartesian coordinates:
            Coordinates               Weight
  0.000000  0.000000  0.000000      1.000000
  0.046904 -0.027080  0.000000      1.000000
  0.000000  0.054160  0.000000      1.000000
  0.046904  0.027080  0.000000      1.000000
 


--------------------------------------------------------------------------------------------------------




 Dimension of arrays:
   k-points           NKPTS =      4   k-points in BZ     NKDIM =      4   number of bands    NBANDS=    560
   number of dos      NEDOS =    301   number of ions     NIONS =     80
   non local maximal  LDIM  =      6   non local SUM 2l+1 LMDIM =     18
   total plane-waves  NPLWV = ******
   max r-space proj   IRMAX =   7657   max aug-charges    IRDMAX=  33358
   dimension x,y,z NGX =    84 NGY =   84 NGZ =  168
   dimension x,y,z NGXF=   168 NGYF=  168 NGZF=  336
   support grid    NGXF=   168 NGYF=  168 NGZF=  336
   ions per type =              80
   NGX,Y,Z   is equivalent  to a cutoff of  13.10, 13.10, 12.70 a.u.
   NGXF,Y,Z  is equivalent  to a cutoff of  26.20, 26.20, 25.39 a.u.

 SYSTEM =  Pt111                                   
 POSCAR =  Pt111                                   

 Startparameter for this run:
   NWRITE =      2    write-flag & timer
   PREC   = accura    normal or accurate (medium, high low for compatibility)
   ISTART =      0    job   : 0-new  1-cont  2-samecut
   ICHARG =      2    charge: 1-file 2-atom 10-const
   ISPIN  =      2    spin polarized calculation?
   LNONCOLLINEAR =      F non collinear calculations
   LSORBIT =      F    spin-orbit coupling
   INIWAV =      1    electr: 0-lowe 1-rand  2-diag
   LASPH  =      F    aspherical Exc in radial PAW
   METAGGA=      F    non-selfconsistent MetaGGA calc.

 Electronic Relaxation 1
   ENCUT  =  550.0 eV  40.42 Ry    6.36 a.u.  20.38 20.38 42.07*2*pi/ulx,y,z
   ENINI  =  550.0     initial cutoff
   ENAUG  =  359.0 eV  augmentation charge cutoff
   NELM   =    200;   NELMIN=  2; NELMDL= -5     # of ELM steps 
   EDIFF  = 0.1E-04   stopping-criterion for ELM
   LREAL  =      T    real-space projection
   NLSPLINE    = F    spline interpolate recip. space projectors
   LCOMPAT=      F    compatible to vasp.4.4
   GGA_COMPAT  = T    GGA compatible to vasp.4.4-vasp.4.6
   LMAXPAW     = -100 max onsite density
   LMAXMIX     =    2 max onsite mixed and CHGCAR
   VOSKOWN=      0    Vosko Wilk Nusair interpolation
   ROPT   =   -0.00025
 Ionic relaxation
   EDIFFG = -.5E-01   stopping-criterion for IOM
   NSW    =    300    number of steps for IOM
   NBLOCK =      1;   KBLOCK =    300    inner block; outer block 
   IBRION =      2    ionic relax: 0-MD 1-quasi-New 2-CG
   NFREE  =      1    steps in history (QN), initial steepest desc. (CG)
   ISIF   =      2    stress and relaxation
   IWAVPR =     11    prediction:  0-non 1-charg 2-wave 3-comb
   ISYM   =      2    0-nonsym 1-usesym 2-fastsym
   LCORR  =      T    Harris-Foulkes like correction to forces

   POTIM  = 0.5000    time-step for ionic-motion
   TEIN   =    0.0    initial temperature
   TEBEG  =    0.0;   TEEND  =   0.0 temperature during run
   SMASS  =  -3.00    Nose mass-parameter (am)
   estimated Nose-frequenzy (Omega)   =  0.10E-29 period in steps =****** mass=  -0.260E-26a.u.
   SCALEE = 1.0000    scale energy and forces
   NPACO  =    256;   APACO  = 16.0  distance and # of slots for P.C.
   PSTRESS=    0.0 pullay stress

  Mass of Ions in am
   POMASS = 195.08
  Ionic Valenz
   ZVAL   =  10.00
  Atomic Wigner-Seitz radii
   RWIGS  =  -1.00
  virtual crystal weights 
   VCA    =   1.00
   NELECT =     800.0000    total number of electrons
   NUPDOWN=      -1.0000    fix difference up-down

 DOS related values:
   EMIN   =  10.00;   EMAX   =-10.00  energy-range for DOS
   EFERMI =   0.00
   ISMEAR =     1;   SIGMA  =   0.10  broadening in eV -4-tet -1-fermi 0-gaus

 Electronic relaxation 2 (details)
   IALGO  =     68    algorithm
   LDIAG  =      T    sub-space diagonalisation (order eigenvalues)
   LSUBROT=      F    optimize rotation matrix (better conditioning)
   TURBO    =      0    0=normal 1=particle mesh
   IRESTART =      0    0=no restart 2=restart with 2 vectors
   NREBOOT  =      0    no. of reboots
   NMIN     =      0    reboot dimension
   EREF     =   0.00    reference energy to select bands
   IMIX   =      4    mixing-type and parameters
     AMIX     =   0.40;   BMIX     =  1.00
     AMIX_MAG =   1.60;   BMIX_MAG =  1.00
     AMIN     =   0.10
     WC   =   100.;   INIMIX=   1;  MIXPRE=   1;  MAXMIX= -45

 Intra band minimization:
   WEIMIN = 0.0010     energy-eigenvalue tresh-hold
   EBREAK =  0.45E-08  absolut break condition
   DEPER  =   0.30     relativ break condition  

   TIME   =   0.40     timestep for ELM

  volume/ion in A,a.u.               =      27.06       182.63
  Fermi-wavevector in a.u.,A,eV,Ry     =   1.174759  2.219973 18.776851  1.380060
  Thomas-Fermi vector in A             =   2.311151
 
 Write flags
   LWAVE        =      F    write WAVECAR
   LDOWNSAMPLE  =      F    k-point downsampling of WAVECAR
   LCHARG       =      F    write CHGCAR
   LVTOT        =      F    write LOCPOT, total local potential
   LVHAR        =      F    write LOCPOT, Hartree potential only
   LELF         =      F    write electronic localiz. function (ELF)
   LORBIT       =      0    0 simple, 1 ext, 2 COOP (PROOUT), +10 PAW based schemes


 Dipole corrections
   LMONO  =      F    monopole corrections only (constant potential shift)
   LDIPOL =      F    correct potential (dipole corrections)
   IDIPOL =      0    1-x, 2-y, 3-z, 4-all directions 
   EPSILON=  1.0000000 bulk dielectric constant

 Exchange correlation treatment:
   GGA     =    --    GGA type
   LEXCH   =     8    internal setting for exchange type
   VOSKOWN=      0    Vosko Wilk Nusair interpolation
   LHFCALC =     F    Hartree Fock is set to
   LHFONE  =     F    Hartree Fock one center treatment
   AEXX    =    0.0000 exact exchange contribution

 Linear response parameters
   LEPSILON=     F    determine dielectric tensor
   LRPA    =     F    only Hartree local field effects (RPA)
   LNABLA  =     F    use nabla operator in PAW spheres
   LVEL    =     F    velocity operator in full k-point grid
   LINTERFAST=   F  fast interpolation
   KINTER  =     0    interpolate to denser k-point grid
   CSHIFT  =0.1000    complex shift for real part using Kramers Kronig
   OMEGAMAX=  -1.0    maximum frequency
   DEG_THRESHOLD= 0.2000000E-02 threshold for treating states as degnerate
   RTIME   =   -0.100 relaxation time in fs
  (WPLASMAI=    0.000 imaginary part of plasma frequency in eV, 0.658/RTIME)
   DFIELD  = 0.0000000 0.0000000 0.0000000 field for delta impulse in time
 
 Orbital magnetization related:
   ORBITALMAG=     F  switch on orbital magnetization
   LCHIMAG   =     F  perturbation theory with respect to B field
   DQ        =  0.001000  dq finite difference perturbation B field
   LLRAUG    =     F  two centre corrections for induced B field



--------------------------------------------------------------------------------------------------------


 conjugate gradient relaxation of ions
   using selective dynamics as specified on POSCAR
   WARNING: If single coordinates had been selected the selection of coordinates
            is made according to the corresponding   d i r e c t   coordinates!
            Don't support selection of single cartesian coordinates -- sorry ...
  !
 charge density and potential will be updated during run
 spin polarized calculation
 RMM-DIIS sequential band-by-band and
  variant of blocked Davidson during initial phase
 perform sub-space diagonalisation
    before iterative eigenvector-optimisation
 modified Broyden-mixing scheme, WC =      100.0
 initial mixing is a Kerker type mixing with AMIX =  0.4000 and BMIX =      1.0000
 Hartree-type preconditioning will be used
 using additional bands          160
 real space projection scheme for non local part
 use partial core corrections
 calculate Harris-corrections to forces 
   (improved forces if not selfconsistent)
 use gradient corrections 
 use of overlap-Matrix (Vanderbilt PP)
 Methfessel and Paxton  Order N= 1 SIGMA  =   0.10


--------------------------------------------------------------------------------------------------------


  energy-cutoff  :      550.00
  volume of cell :     2165.05
      direct lattice vectors                 reciprocal lattice vectors
    10.659999999  0.000000000  0.000000000     0.093808630 -0.054160438  0.000000000
     5.329999924  9.231830672  0.000000000     0.000000000  0.108320878  0.000000000
     0.000000000  0.000000000 22.000000000     0.000000000  0.000000000  0.045454545

  length of vectors
    10.659999999 10.659999847 22.000000000     0.108320876  0.108320878  0.045454545


 
 k-points in units of 2pi/SCALE and weight: mesh auto                               
   0.00000000  0.00000000  0.00000000       0.250
   0.04690432 -0.02708022  0.00000000       0.250
   0.00000000  0.05416044  0.00000000       0.250
   0.04690432  0.02708022  0.00000000       0.250
 
 k-points in reciprocal lattice and weights: mesh auto                               
   0.00000000  0.00000000  0.00000000       0.250
   0.50000000 -0.00000000  0.00000000       0.250
   0.00000000  0.50000000  0.00000000       0.250
   0.50000000  0.50000000  0.00000000       0.250
 
 position of ions in fractional coordinates (direct lattice) 
   0.78346287  0.87057753  0.33428200
   0.03353542  0.87053935  0.33424715
   0.03346181  0.62047774  0.33448970
   0.78719686  0.86781740  0.00920734
   0.03742736  0.86754232  0.00938891
   0.03731769  0.61764020  0.00956612
   0.61967973  0.20164816  0.11898405
   0.36967088  0.95159545  0.11911787
   0.03334346  0.37081888  0.33413032
   0.03747623  0.36762616  0.00961287
   0.86957920  0.20158104  0.11895459
   0.95152665  0.53603878  0.22629707
   0.28376255  0.12044445  0.33410579
   0.53345266  0.62050070  0.33609799
   0.28356240  0.37071887  0.33552874
   0.28716095  0.11773604  0.00955887
   0.53748247  0.61763009  0.00939974
   0.28738029  0.36754733  0.00966883
   0.61956950  0.95162562  0.11898285
   0.70144944  0.78600045  0.22668789
   0.86970341  0.70163971  0.11906311
   0.61974477  0.45158484  0.11908270
   0.28363504  0.87025422  0.33509472
   0.28723431  0.86772389  0.00941434
   0.61972441  0.70162734  0.11904415
   0.20158906  0.03581674  0.22678622
   0.86578627  0.95510916  0.44387832
   0.11560825  0.45507292  0.44473133
   0.11574784  0.95502236  0.44427165
   0.86591817  0.45509082  0.44426565
   0.36584163  0.95502222  0.44422974
   0.86594761  0.20491915  0.44396996
   0.11579185  0.20500354  0.44328740
   0.61572622  0.95512315  0.44393432
   0.86574781  0.70513196  0.44397877
   0.36574050  0.20488316  0.44445191
   0.36578695  0.70505050  0.44604749
   0.61605293  0.45489498  0.44596703
   0.11558959  0.70510447  0.44457591
   0.61588142  0.20485291  0.44455915
   0.53344226  0.37067417  0.33628464
   0.53729480  0.36772262  0.00938193
   0.53344872  0.12060382  0.33428698
   0.53744732  0.11760919  0.00931500
   0.86968470  0.45162578  0.11912876
   0.11977939  0.45162882  0.11933874
   0.03342910  0.12041762  0.33395552
   0.03735056  0.11767589  0.00937838
   0.11959597  0.95158776  0.11909876
   0.36569439  0.45490045  0.44635947
   0.45148394  0.53601630  0.22836959
   0.61593517  0.70511548  0.44443665
   0.36969168  0.20151189  0.11925355
   0.11965639  0.20161621  0.11926056
   0.95150722  0.78601517  0.22674789
   0.78348690  0.62047808  0.33421780
   0.28364374  0.62044205  0.33636720
   0.78733338  0.61765568  0.00935973
   0.28722709  0.61770450  0.00958703
   0.36976716  0.70164814  0.11917833
   0.36971887  0.45157648  0.11927960
   0.20165203  0.28618623  0.22699573
   0.78321926  0.37070821  0.33482085
   0.78732632  0.36762179  0.00930569
   0.95151238  0.03606065  0.22614193
   0.45149572  0.78563909  0.22723533
   0.70109711  0.53608500  0.22710544
   0.20182146  0.78560961  0.22733985
   0.45147175  0.03603485  0.22622411
   0.11967474  0.70158666  0.11923317
   0.70141983  0.03609382  0.22655681
   0.78347619  0.12060697  0.33408317
   0.53345989  0.87056711  0.33418850
   0.78733560  0.11769611  0.00916614
   0.53736608  0.86758613  0.00927431
   0.20184760  0.53605738  0.22766284
   0.95129221  0.28612831  0.22660280
   0.86966222  0.95165077  0.11894673
   0.70106464  0.28633418  0.22705219
   0.45151808  0.28636291  0.22751385
 
 position of ions in cartesian coordinates  (Angst):
  12.99189240  8.03702438  7.35420407
   4.99746229  8.03667186  7.35343727
   3.66384915  5.72814540  7.35877340
  13.01698517  8.01154330  0.20256152
   5.02297619  8.00900376  0.20655609
   3.68982881  5.70194971  0.21045470
   7.68057062  1.86158166  2.61764901
   9.01269529  8.78496802  2.62059303
   2.33190590  3.42333711  7.35086699
   2.35894400  3.39386243  0.21148310
  10.34414122  1.86096203  2.61700097
  13.00036079  4.94861926  4.97853556
   3.66687768  1.11192280  7.35032727
   8.99387407  5.72835742  7.39415576
   4.99870671  3.42241386  7.38163226
   3.68866881  1.08691914  0.21029518
   9.02153148  5.70185640  0.20679429
   5.02250113  3.39313469  0.21271420
  11.67677532  8.78524661  2.61762268
  11.66683339  7.25622304  4.98713352
  13.01077789  6.47741897  2.61938840
   9.01342636  4.16895476  2.61981946
   7.66200449  8.03403958  7.37208394
   7.68688598  8.01068000  0.20711555
  10.34593585  6.47730479  2.61897125
   2.33984267  0.33065411  4.98929679
  14.32001336  8.81740606  9.76532311
   3.65792254  4.20115612  9.78408917
   6.32414109  8.81660472  9.77397633
  11.65632174  4.20132138  9.77384440
   8.99014019  8.81660347  9.77305429
  10.32322057  1.89177885  9.76733901
   2.32701004  1.89255799  9.75232277
  11.65444776  8.81753515  9.76655513
  12.98722490  6.50965882  9.76753292
   4.99082101  1.89144668  9.77794206
   7.65720797  6.50890685  9.81304471
   8.99171448  4.19951343  9.81127476
   4.99039174  6.50940504  9.78067001
   7.65716196  1.89116735  9.78030130
   7.66218779  3.42200115  7.39826214
   7.68752405  3.39475294  0.20640236
   6.32938177  1.11339407  7.35431347
   6.35604545  1.08574814  0.20493010
  11.67800428  4.16933276  2.62083270
   3.68402987  4.16936077  2.62545234
   0.99818009  1.11167511  7.34702141
   1.02536947  1.08636388  0.20632433
   6.34685577  8.78489705  2.62017269
   6.32292164  4.19956397  9.81990825
   7.66978558  4.94841170  5.02413105
  10.32413437  6.50950667  9.77760632
   5.01497166  1.86032362  2.62357816
   2.35015149  1.86128672  2.62373241
  14.33252777  7.25635893  4.98845348
  11.65911841  5.72814853  7.35279160
   6.33059831  5.72781593  7.40007849
  11.68507860  5.70209265  0.20591396
   6.35420575  5.70254332  0.21091457
   7.68150248  6.47749683  2.62192333
   6.34810571  4.16887758  2.62415129
   3.67498324  2.64202283  4.99390603
  10.32499210  3.42231543  7.36605869
  10.35232268  3.39382209  0.20472528
  10.33532525  0.33290586  4.97512250
   9.00040066  7.25288703  4.99917716
  10.33102825  4.94904594  4.99631964
   6.33871590  7.25261490  5.00147681
   5.00475464  0.33266766  4.97693034
   5.01518959  6.47692921  2.62312969
   7.66951541  0.33321205  4.98424992
   8.99469135  1.11342312  7.34982976
  10.32680502  8.03692818  7.35214692
   9.02031779  1.08655056  0.20165517
  10.35255645  8.00940821  0.20403481
   5.00888125  4.94879096  5.00858259
  11.66583887  2.64148812  4.98526164
  14.34289774  8.78547873  2.61682801
   8.99951020  2.64338862  4.99514821
   6.33949703  2.64365394  5.00530465
 


--------------------------------------------------------------------------------------------------------


 k-point  1 :   0.0000 0.0000 0.0000  plane waves:   63475
 k-point  2 :   0.5000-0.0000 0.0000  plane waves:   63428
 k-point  3 :   0.0000 0.5000 0.0000  plane waves:   63428
 k-point  4 :   0.5000 0.5000 0.0000  plane waves:   63428

 maximum and minimum number of plane-waves per node :     15884    15811

 maximum number of plane-waves:     63475
 maximum index in each direction: 
   IXMAX=   20   IYMAX=   20   IZMAX=   42
   IXMIN=  -20   IYMIN=  -20   IZMIN=  -42


 real space projection operators:
  total allocation   :      83215.69 KBytes
  max/ min on nodes  :      20810.67      20795.91


 parallel 3D FFT for wavefunctions:
    minimum data exchange during FFTs selected (reduces bandwidth)
 parallel 3D FFT for charge:
    minimum data exchange during FFTs selected (reduces bandwidth)


 total amount of memory used by VASP MPI-rank0   245199. kBytes
=======================================================================

   base      :      30000. kBytes
   nonlr-proj:      36024. kBytes
   fftplans  :      17966. kBytes
   grid      :      44179. kBytes
   one-center:        622. kBytes
   wavefun   :     116408. kBytes
 
     INWAV:  cpu time    0.0000: real time    0.0000
 Broyden mixing: mesh for mixing (old mesh)
   NGX = 41   NGY = 41   NGZ = 85
  (NGX  =168   NGY  =168   NGZ  =336)
  gives a total of 142885 points

 initial charge density was supplied:
 charge density of overlapping atoms calculated
 number of electron     800.0000000 magnetization     160.0000000
 keeping initial charge density in first step


--------------------------------------------------------------------------------------------------------


 Maximum index for non-local projection operator         1878
 Maximum index for augmentation-charges         2053 (set IRDMAX)


--------------------------------------------------------------------------------------------------------


 First call to EWALD:  gamma=   0.137
 Maximum number of real-space cells 4x 4x 2
 Maximum number of reciprocal cells 2x 2x 4

    FEWALD:  cpu time    0.0043: real time    0.0043


--------------------------------------- Iteration      1(   1)  ---------------------------------------


    POTLOK:  cpu time    0.4297: real time    0.4468
    SETDIJ:  cpu time    0.0433: real time    0.0437
     EDDAV:  cpu time   64.7292: real time   64.9258
       DOS:  cpu time    0.0019: real time    0.0019
    --------------------------------------------
      LOOP:  cpu time   65.2041: real time   65.4182

 eigenvalue-minimisations  :  8960
 total energy-change (2. order) : 0.5610919E+04  (-0.3962896E+05)
 number of electron     800.0000000 magnetization     160.0000000
 augmentation part      800.0000000 magnetization     160.0000000

 Free energy of the ion-electron system (eV)
  ---------------------------------------------------
  alpha Z        PSCENC =      2809.97302481
  Ewald energy   TEWEN  =    168243.09916061
  -Hartree energ DENC   =   -233142.91723747
  -exchange      EXHF   =         0.00000000
  -V(xc)+E(xc)   XCENC  =       323.17565304
  PAW double counting   =     55665.08099183   -53403.76275866
  entropy T*S    EENTRO =        -0.00667067
  eigenvalues    EBANDS =      6787.03258981
  atomic energy  EATOM  =     58329.24398462
  Solvation  Ediel_sol  =         0.00000000
  ---------------------------------------------------
  free energy    TOTEN  =      5610.91873794 eV

  energy without entropy =     5610.92540861  energy(sigma->0) =     5610.92096150


--------------------------------------------------------------------------------------------------------




--------------------------------------- Iteration      1(   2)  ---------------------------------------


     EDDAV:  cpu time   69.8118: real time   69.9775
       DOS:  cpu time    0.0020: real time    0.0020
    --------------------------------------------
      LOOP:  cpu time   69.8138: real time   69.9796

 eigenvalue-minimisations  :  9920
 total energy-change (2. order) :-0.5798104E+04  (-0.5321326E+04)
 number of electron     800.0000000 magnetization     160.0000000
 augmentation part      800.0000000 magnetization     160.0000000

 Free energy of the ion-electron system (eV)
  ---------------------------------------------------
  alpha Z        PSCENC =      2809.97302481
  Ewald energy   TEWEN  =    168243.09916061
  -Hartree energ DENC   =   -233142.91723747
  -exchange      EXHF   =         0.00000000
  -V(xc)+E(xc)   XCENC  =       323.17565304
  PAW double counting   =     55665.08099183   -53403.76275866
  entropy T*S    EENTRO =        -0.01622422
  eigenvalues    EBANDS =       988.93813395
  atomic energy  EATOM  =     58329.24398462
  Solvation  Ediel_sol  =         0.00000000
  ---------------------------------------------------
  free energy    TOTEN  =      -187.18527147 eV

  energy without entropy =     -187.16904725  energy(sigma->0) =     -187.17986340


--------------------------------------------------------------------------------------------------------




--------------------------------------- Iteration      1(   3)  ---------------------------------------


     EDDAV:  cpu time   70.3167: real time   70.4984
       DOS:  cpu time    0.0020: real time    0.0020
    --------------------------------------------
      LOOP:  cpu time   70.3186: real time   70.5004

 eigenvalue-minimisations  : 10020
 total energy-change (2. order) :-0.2757750E+03  (-0.2600202E+03)
 number of electron     800.0000000 magnetization     160.0000000
 augmentation part      800.0000000 magnetization     160.0000000

 Free energy of the ion-electron system (eV)
  ---------------------------------------------------
  alpha Z        PSCENC =      2809.97302481
  Ewald energy   TEWEN  =    168243.09916061
  -Hartree energ DENC   =   -233142.91723747
  -exchange      EXHF   =         0.00000000
  -V(xc)+E(xc)   XCENC  =       323.17565304
  PAW double counting   =     55665.08099183   -53403.76275866
  entropy T*S    EENTRO =         0.04693524
  eigenvalues    EBANDS =       713.09993785
  atomic energy  EATOM  =     58329.24398462
  Solvation  Ediel_sol  =         0.00000000
  ---------------------------------------------------
  free energy    TOTEN  =      -462.96030810 eV

  energy without entropy =     -463.00724335  energy(sigma->0) =     -462.97595319


--------------------------------------------------------------------------------------------------------




--------------------------------------- Iteration      1(   4)  ---------------------------------------


     EDDAV:  cpu time   72.4601: real time   72.6486
       DOS:  cpu time    0.0021: real time    0.0021
    --------------------------------------------
      LOOP:  cpu time   72.4623: real time   72.6507

 eigenvalue-minimisations  : 10380
 total energy-change (2. order) :-0.5850911E+01  (-0.5813826E+01)
 number of electron     800.0000000 magnetization     160.0000000
 augmentation part      800.0000000 magnetization     160.0000000

 Free energy of the ion-electron system (eV)
  ---------------------------------------------------
  alpha Z        PSCENC =      2809.97302481
  Ewald energy   TEWEN  =    168243.09916061
  -Hartree energ DENC   =   -233142.91723747
  -exchange      EXHF   =         0.00000000
  -V(xc)+E(xc)   XCENC  =       323.17565304
  PAW double counting   =     55665.08099183   -53403.76275866
  entropy T*S    EENTRO =         0.04531168
  eigenvalues    EBANDS =       707.25065076
  atomic energy  EATOM  =     58329.24398462
  Solvation  Ediel_sol  =         0.00000000
  ---------------------------------------------------
  free energy    TOTEN  =      -468.81121876 eV

  energy without entropy =     -468.85653044  energy(sigma->0) =     -468.82632265


--------------------------------------------------------------------------------------------------------




--------------------------------------- Iteration      1(   5)  ---------------------------------------


     EDDAV:  cpu time   70.8562: real time   71.0508
       DOS:  cpu time    0.0020: real time    0.0023
    CHARGE:  cpu time    4.2091: real time    4.2214
    MIXING:  cpu time    0.0106: real time    0.0113
    --------------------------------------------
      LOOP:  cpu time   75.0781: real time   75.2858

 eigenvalue-minimisations  : 10110
 total energy-change (2. order) :-0.1874821E+00  (-0.1872518E+00)
 number of electron     800.0000005 magnetization     147.9364395
 augmentation part      232.0370108 magnetization     114.5289501

 Broyden mixing:
  rms(total) = 0.12551E+02    rms(broyden)= 0.12551E+02
  rms(prec ) = 0.12655E+02
  weight for this iteration     100.00

 Free energy of the ion-electron system (eV)
  ---------------------------------------------------
  alpha Z        PSCENC =      2809.97302481
  Ewald energy   TEWEN  =    168243.09916061
  -Hartree energ DENC   =   -233142.91723747
  -exchange      EXHF   =         0.00000000
  -V(xc)+E(xc)   XCENC  =       323.17565304
  PAW double counting   =     55665.08099183   -53403.76275866
  entropy T*S    EENTRO =         0.04529577
  eigenvalues    EBANDS =       707.06318457
  atomic energy  EATOM  =     58329.24398462
  Solvation  Ediel_sol  =         0.00000000
  ---------------------------------------------------
  free energy    TOTEN  =      -468.99870087 eV

  energy without entropy =     -469.04399663  energy(sigma->0) =     -469.01379946


--------------------------------------------------------------------------------------------------------




--------------------------------------- Iteration      1(   6)  ---------------------------------------


    POTLOK:  cpu time    0.3935: real time    0.3946
    SETDIJ:  cpu time    0.0346: real time    0.0347
    EDDIAG:  cpu time   11.2770: real time   11.3070
  RMM-DIIS:  cpu time   39.4074: real time   39.5018
    ORTHCH:  cpu time    1.2151: real time    1.2180
       DOS:  cpu time    0.0020: real time    0.0020
    CHARGE:  cpu time    4.1891: real time    4.1990
    MIXING:  cpu time    0.0094: real time    0.0096
    --------------------------------------------
      LOOP:  cpu time   56.5282: real time   56.6667

 eigenvalue-minimisations  :  9004
 total energy-change (2. order) : 0.5496225E+02  (-0.1141564E+02)
 number of electron     800.0000004 magnetization     137.9649414
 augmentation part      245.5526221 magnetization     105.2684247

 Broyden mixing:
  rms(total) = 0.93004E+01    rms(broyden)= 0.93004E+01
  rms(prec ) = 0.10102E+02
  weight for this iteration     100.00

 eigenvalues of (default mixing * dielectric matrix)
  average eigenvalue GAMMA=   0.7901
  0.7901

 Free energy of the ion-electron system (eV)
  ---------------------------------------------------
  alpha Z        PSCENC =      2809.97302481
  Ewald energy   TEWEN  =    168243.09916061
  -Hartree energ DENC   =   -232164.19728150
  -exchange      EXHF   =         0.00000000
  -V(xc)+E(xc)   XCENC  =       321.80405012
  PAW double counting   =     63520.17584833   -61392.37865184
  entropy T*S    EENTRO =         0.00876801
  eigenvalues    EBANDS =       -81.76535241
  atomic energy  EATOM  =     58329.24398462
  Solvation  Ediel_sol  =         0.00000000
  ---------------------------------------------------
  free energy    TOTEN  =      -414.03644924 eV

  energy without entropy =     -414.04521725  energy(sigma->0) =     -414.03937191


--------------------------------------------------------------------------------------------------------




--------------------------------------- Iteration      1(   7)  ---------------------------------------


    POTLOK:  cpu time    0.3830: real time    0.3839
    SETDIJ:  cpu time    0.0342: real time    0.0343
    EDDIAG:  cpu time   11.3017: real time   11.3285
  RMM-DIIS:  cpu time   38.6660: real time   38.7575
    ORTHCH:  cpu time    1.2115: real time    1.2144
       DOS:  cpu time    0.0020: real time    0.0020
    CHARGE:  cpu time    4.3125: real time    4.3227
    MIXING:  cpu time    0.0111: real time    0.0111
    --------------------------------------------
      LOOP:  cpu time   55.9221: real time   56.0545

 eigenvalue-minimisations  :  8977
 total energy-change (2. order) :-0.1647010E+03  (-0.1465720E+02)
 number of electron     800.0000007 magnetization     124.9689050
 augmentation part      239.0994949 magnetization     100.5064314

 Broyden mixing:
  rms(total) = 0.12181E+02    rms(broyden)= 0.12181E+02
  rms(prec ) = 0.15214E+02
  weight for this iteration     100.00

 eigenvalues of (default mixing * dielectric matrix)
  average eigenvalue GAMMA=   0.7159
  1.1116  0.3202

 Free energy of the ion-electron system (eV)
  ---------------------------------------------------
  alpha Z        PSCENC =      2809.97302481
  Ewald energy   TEWEN  =    168243.09916061
  -Hartree energ DENC   =   -233393.80581692
  -exchange      EXHF   =         0.00000000
  -V(xc)+E(xc)   XCENC  =       311.72416107
  PAW double counting   =     67987.58901944   -65905.24524856
  entropy T*S    EENTRO =        -0.03642983
  eigenvalues    EBANDS =      1038.72067826
  atomic energy  EATOM  =     58329.24398462
  Solvation  Ediel_sol  =         0.00000000
  ---------------------------------------------------
  free energy    TOTEN  =      -578.73746649 eV

  energy without entropy =     -578.70103666  energy(sigma->0) =     -578.72532321


--------------------------------------------------------------------------------------------------------




--------------------------------------- Iteration      1(   8)  ---------------------------------------


    POTLOK:  cpu time    0.3979: real time    0.3988
    SETDIJ:  cpu time    0.0345: real time    0.0346
    EDDIAG:  cpu time   11.1806: real time   11.2070
  RMM-DIIS:  cpu time   39.1384: real time   39.2310
    ORTHCH:  cpu time    1.2154: real time    1.2182
       DOS:  cpu time    0.0019: real time    0.0019
    CHARGE:  cpu time    4.1548: real time    4.1647
    MIXING:  cpu time    0.0111: real time    0.0111
    --------------------------------------------
      LOOP:  cpu time   56.1346: real time   56.2674

 eigenvalue-minimisations  :  9007
 total energy-change (2. order) : 0.1812488E+03  (-0.8230048E+01)
 number of electron     800.0000006 magnetization     115.8817393
 augmentation part      248.2664423 magnetization      86.0608008

 Broyden mixing:
  rms(total) = 0.59885E+01    rms(broyden)= 0.59885E+01
  rms(prec ) = 0.65411E+01
  weight for this iteration     100.00

 eigenvalues of (default mixing * dielectric matrix)
  average eigenvalue GAMMA=   0.8727
  1.8002  0.5500  0.2679

 Free energy of the ion-electron system (eV)
  ---------------------------------------------------
  alpha Z        PSCENC =      2809.97302481
  Ewald energy   TEWEN  =    168243.09916061
  -Hartree energ DENC   =   -232498.91305157
  -exchange      EXHF   =         0.00000000
  -V(xc)+E(xc)   XCENC  =       326.55076052
  PAW double counting   =     72766.80118409   -70743.90758228
  entropy T*S    EENTRO =        -0.05619114
  eigenvalues    EBANDS =       369.72009220
  atomic energy  EATOM  =     58329.24398462
  Solvation  Ediel_sol  =         0.00000000
  ---------------------------------------------------
  free energy    TOTEN  =      -397.48861815 eV

  energy without entropy =     -397.43242701  energy(sigma->0) =     -397.46988777


--------------------------------------------------------------------------------------------------------




--------------------------------------- Iteration      1(   9)  ---------------------------------------


    POTLOK:  cpu time    0.3831: real time    0.3840
    SETDIJ:  cpu time    0.0345: real time    0.0345
    EDDIAG:  cpu time   11.1754: real time   11.2019
  RMM-DIIS:  cpu time   39.1298: real time   39.2225
    ORTHCH:  cpu time    1.2085: real time    1.2113
       DOS:  cpu time    0.0021: real time    0.0021
    CHARGE:  cpu time    4.1628: real time    4.1727
    MIXING:  cpu time    0.0114: real time    0.0114
    --------------------------------------------
      LOOP:  cpu time   56.1076: real time   56.2404

 eigenvalue-minimisations  :  9019
 total energy-change (2. order) : 0.6012488E+01  (-0.6795193E+01)
 number of electron     800.0000006 magnetization     107.8190992
 augmentation part      248.7121673 magnetization      80.6606964

 Broyden mixing:
  rms(total) = 0.54860E+01    rms(broyden)= 0.54860E+01
  rms(prec ) = 0.60675E+01
  weight for this iteration     100.00

 eigenvalues of (default mixing * dielectric matrix)
  average eigenvalue GAMMA=   0.8184
  2.1009  0.5683  0.2499  0.3546

 Free energy of the ion-electron system (eV)
  ---------------------------------------------------
  alpha Z        PSCENC =      2809.97302481
  Ewald energy   TEWEN  =    168243.09916061
  -Hartree energ DENC   =   -232438.72010730
  -exchange      EXHF   =         0.00000000
  -V(xc)+E(xc)   XCENC  =       326.58368004
  PAW double counting   =     74893.86493599   -72888.18904384
  entropy T*S    EENTRO =         0.03562074
  eigenvalues    EBANDS =       332.63261372
  atomic energy  EATOM  =     58329.24398462
  Solvation  Ediel_sol  =         0.00000000
  ---------------------------------------------------
  free energy    TOTEN  =      -391.47613060 eV

  energy without entropy =     -391.51175134  energy(sigma->0) =     -391.48800418


--------------------------------------------------------------------------------------------------------




--------------------------------------- Iteration      1(  10)  ---------------------------------------


    POTLOK:  cpu time    0.3989: real time    0.3998
    SETDIJ:  cpu time    0.0341: real time    0.0342
    EDDIAG:  cpu time   11.1657: real time   11.1921
  RMM-DIIS:  cpu time   39.2568: real time   39.3655
    ORTHCH:  cpu time    1.2140: real time    1.2174
       DOS:  cpu time    0.0020: real time    0.0020
    CHARGE:  cpu time    4.1717: real time    4.1837
    MIXING:  cpu time    0.0114: real time    0.0114
    --------------------------------------------
      LOOP:  cpu time   56.2545: real time   56.4061

 eigenvalue-minimisations  :  9022
 total energy-change (2. order) :-0.1425655E+02  (-0.1254708E+01)
 number of electron     800.0000003 magnetization     105.8776196
 augmentation part      248.0520171 magnetization      79.1098994

 Broyden mixing:
  rms(total) = 0.55776E+01    rms(broyden)= 0.55776E+01
  rms(prec ) = 0.87920E+01
  weight for this iteration     100.00

 eigenvalues of (default mixing * dielectric matrix)
  average eigenvalue GAMMA=   0.7122
  2.1573  0.6010  0.3033  0.3033  0.1960

 Free energy of the ion-electron system (eV)
  ---------------------------------------------------
  alpha Z        PSCENC =      2809.97302481
  Ewald energy   TEWEN  =    168243.09916061
  -Hartree energ DENC   =   -232477.43327690
  -exchange      EXHF   =         0.00000000
  -V(xc)+E(xc)   XCENC  =       322.47881661
  PAW double counting   =     76130.64173496   -74132.90868566
  entropy T*S    EENTRO =        -0.02286372
  eigenvalues    EBANDS =       369.19542558
  atomic energy  EATOM  =     58329.24398462
  Solvation  Ediel_sol  =         0.00000000
  ---------------------------------------------------
  free energy    TOTEN  =      -405.73267908 eV

  energy without entropy =     -405.70981536  energy(sigma->0) =     -405.72505784


--------------------------------------------------------------------------------------------------------




--------------------------------------- Iteration      1(  11)  ---------------------------------------


    POTLOK:  cpu time    0.3971: real time    0.3985
    SETDIJ:  cpu time    0.0342: real time    0.0343
    EDDIAG:  cpu time   11.1997: real time   11.2325
  RMM-DIIS:  cpu time   39.2845: real time   39.3991
    ORTHCH:  cpu time    1.2105: real time    1.2143
       DOS:  cpu time    0.0021: real time    0.0021
    CHARGE:  cpu time    4.1404: real time    4.1524
    MIXING:  cpu time    0.0119: real time    0.0119
    --------------------------------------------
      LOOP:  cpu time   56.2805: real time   56.4451

 eigenvalue-minimisations  :  9024
 total energy-change (2. order) : 0.1437417E+02  (-0.4370514E+00)
 number of electron     800.0000005 magnetization      96.7841522
 augmentation part      248.0617838 magnetization      68.9137249

 Broyden mixing:
  rms(total) = 0.38578E+01    rms(broyden)= 0.38578E+01
  rms(prec ) = 0.57396E+01
  weight for this iteration     100.00

 eigenvalues of (default mixing * dielectric matrix)
  average eigenvalue GAMMA=   0.7009
  2.2036  0.7694  0.4926  0.4160  0.2493  0.0742

 Free energy of the ion-electron system (eV)
  ---------------------------------------------------
  alpha Z        PSCENC =      2809.97302481
  Ewald energy   TEWEN  =    168243.09916061
  -Hartree energ DENC   =   -232509.18602536
  -exchange      EXHF   =         0.00000000
  -V(xc)+E(xc)   XCENC  =       321.44735457
  PAW double counting   =     76292.41711968   -74295.83031512
  entropy T*S    EENTRO =         0.02109912
  eigenvalues    EBANDS =       417.45609131
  atomic energy  EATOM  =     58329.24398462
  Solvation  Ediel_sol  =         0.00000000
  ---------------------------------------------------
  free energy    TOTEN  =      -391.35850576 eV

  energy without entropy =     -391.37960488  energy(sigma->0) =     -391.36553880


--------------------------------------------------------------------------------------------------------




--------------------------------------- Iteration      1(  12)  ---------------------------------------


    POTLOK:  cpu time    0.3972: real time    0.3981
    SETDIJ:  cpu time    0.0346: real time    0.0347
    EDDIAG:  cpu time   11.1766: real time   11.2091
  RMM-DIIS:  cpu time   39.2732: real time   39.3879
    ORTHCH:  cpu time    1.2146: real time    1.2180
       DOS:  cpu time    0.0020: real time    0.0020
    CHARGE:  cpu time    4.2147: real time    4.2268
    MIXING:  cpu time    0.0123: real time    0.0123
    --------------------------------------------
      LOOP:  cpu time   56.3252: real time   56.4890

 eigenvalue-minimisations  :  9024
 total energy-change (2. order) :-0.8437906E+01  (-0.5294686E+00)
 number of electron     800.0000006 magnetization      91.5796061
 augmentation part      247.0733932 magnetization      65.6890375

 Broyden mixing:
  rms(total) = 0.27728E+01    rms(broyden)= 0.27728E+01
  rms(prec ) = 0.32457E+01
  weight for this iteration     100.00

 eigenvalues of (default mixing * dielectric matrix)
  average eigenvalue GAMMA=   0.7152
  1.5777  1.5777  0.7586  0.3896  0.3896  0.2379  0.0753

 Free energy of the ion-electron system (eV)
  ---------------------------------------------------
  alpha Z        PSCENC =      2809.97302481
  Ewald energy   TEWEN  =    168243.09916061
  -Hartree energ DENC   =   -232677.30167782
  -exchange      EXHF   =         0.00000000
  -V(xc)+E(xc)   XCENC  =       314.06190783
  PAW double counting   =     76397.93331401   -74401.84962788
  entropy T*S    EENTRO =         0.00505442
  eigenvalues    EBANDS =       585.03844773
  atomic energy  EATOM  =     58329.24398462
  Solvation  Ediel_sol  =         0.00000000
  ---------------------------------------------------
  free energy    TOTEN  =      -399.79641167 eV

  energy without entropy =     -399.80146609  energy(sigma->0) =     -399.79809648


--------------------------------------------------------------------------------------------------------




--------------------------------------- Iteration      1(  13)  ---------------------------------------


    POTLOK:  cpu time    0.3948: real time    0.3961
    SETDIJ:  cpu time    0.0344: real time    0.0345
    EDDIAG:  cpu time   11.2319: real time   11.2627
  RMM-DIIS:  cpu time   39.3180: real time   39.4391
    ORTHCH:  cpu time    1.2122: real time    1.2159
       DOS:  cpu time    0.0020: real time    0.0020
    CHARGE:  cpu time    4.1636: real time    4.1757
    MIXING:  cpu time    0.0126: real time    0.0127
    --------------------------------------------
      LOOP:  cpu time   56.3696: real time   56.5385

 eigenvalue-minimisations  :  9024
 total energy-change (2. order) :-0.9589634E+01  (-0.4464127E+00)
 number of electron     800.0000005 magnetization      84.2046318
 augmentation part      246.6783116 magnetization      59.8702258

 Broyden mixing:
  rms(total) = 0.21981E+01    rms(broyden)= 0.21981E+01
  rms(prec ) = 0.24438E+01
  weight for this iteration     100.00

 eigenvalues of (default mixing * dielectric matrix)
  average eigenvalue GAMMA=   0.7043
  1.7359  1.7359  0.7796  0.3711  0.3711  0.2395  0.3255  0.0754

 Free energy of the ion-electron system (eV)
  ---------------------------------------------------
  alpha Z        PSCENC =      2809.97302481
  Ewald energy   TEWEN  =    168243.09916061
  -Hartree energ DENC   =   -232644.41037779
  -exchange      EXHF   =         0.00000000
  -V(xc)+E(xc)   XCENC  =       308.21167365
  PAW double counting   =     75715.07728263   -73711.67320580
  entropy T*S    EENTRO =         0.04199701
  eigenvalues    EBANDS =       541.05041478
  atomic energy  EATOM  =     58329.24398462
  Solvation  Ediel_sol  =         0.00000000
  ---------------------------------------------------
  free energy    TOTEN  =      -409.38604547 eV

  energy without entropy =     -409.42804248  energy(sigma->0) =     -409.40004448


--------------------------------------------------------------------------------------------------------




--------------------------------------- Iteration      1(  14)  ---------------------------------------


    POTLOK:  cpu time    0.3971: real time    0.3981
    SETDIJ:  cpu time    0.0345: real time    0.0346
    EDDIAG:  cpu time   11.1886: real time   11.2209
  RMM-DIIS:  cpu time   39.1681: real time   39.2834
    ORTHCH:  cpu time    1.2163: real time    1.2197
       DOS:  cpu time    0.0021: real time    0.0021
    CHARGE:  cpu time    4.1601: real time    4.1720
    MIXING:  cpu time    0.0125: real time    0.0125
    --------------------------------------------
      LOOP:  cpu time   56.1794: real time   56.3432

 eigenvalue-minimisations  :  9018
 total energy-change (2. order) :-0.7615513E+01  (-0.2852756E+00)
 number of electron     800.0000005 magnetization      75.1517500
 augmentation part      246.7277159 magnetization      54.8134813

 Broyden mixing:
  rms(total) = 0.20766E+01    rms(broyden)= 0.20766E+01
  rms(prec ) = 0.21993E+01
  weight for this iteration     100.00

 eigenvalues of (default mixing * dielectric matrix)
  average eigenvalue GAMMA=   0.6919
  1.7598  1.7598  0.6950  0.6950  0.3775  0.3775  0.2362  0.2506  0.0754

 Free energy of the ion-electron system (eV)
  ---------------------------------------------------
  alpha Z        PSCENC =      2809.97302481
  Ewald energy   TEWEN  =    168243.09916061
  -Hartree energ DENC   =   -232620.44370005
  -exchange      EXHF   =         0.00000000
  -V(xc)+E(xc)   XCENC  =       303.36210962
  PAW double counting   =     75291.68231915   -73285.01172972
  entropy T*S    EENTRO =         0.02872575
  eigenvalues    EBANDS =       511.06454629
  atomic energy  EATOM  =     58329.24398462
  Solvation  Ediel_sol  =         0.00000000
  ---------------------------------------------------
  free energy    TOTEN  =      -417.00155892 eV

  energy without entropy =     -417.03028467  energy(sigma->0) =     -417.01113417


--------------------------------------------------------------------------------------------------------




--------------------------------------- Iteration      1(  15)  ---------------------------------------


    POTLOK:  cpu time    0.3958: real time    0.3970
    SETDIJ:  cpu time    0.0345: real time    0.0346
    EDDIAG:  cpu time   11.2007: real time   11.2336
  RMM-DIIS:  cpu time   39.3662: real time   39.4805
    ORTHCH:  cpu time    1.2049: real time    1.2086
       DOS:  cpu time    0.0020: real time    0.0020
    CHARGE:  cpu time    4.1532: real time    4.1650
    MIXING:  cpu time    0.0134: real time    0.0134
    --------------------------------------------
      LOOP:  cpu time   56.3707: real time   56.5347

 eigenvalue-minimisations  :  9035
 total energy-change (2. order) :-0.1416611E+01  (-0.5143465E-01)
 number of electron     800.0000005 magnetization      46.5829215
 augmentation part      246.8291412 magnetization      26.3008096

 Broyden mixing:
  rms(total) = 0.14273E+01    rms(broyden)= 0.14273E+01
  rms(prec ) = 0.14895E+01
  weight for this iteration     100.00

 eigenvalues of (default mixing * dielectric matrix)
  average eigenvalue GAMMA=   0.8480
  2.3669  2.3669  0.8881  0.8881  0.6131  0.3878  0.3878  0.2384  0.2673  0.0754

 Free energy of the ion-electron system (eV)
  ---------------------------------------------------
  alpha Z        PSCENC =      2809.97302481
  Ewald energy   TEWEN  =    168243.09916061
  -Hartree energ DENC   =   -232636.44927872
  -exchange      EXHF   =         0.00000000
  -V(xc)+E(xc)   XCENC  =       301.99939393
  PAW double counting   =     75545.76501109   -73543.27198299
  entropy T*S    EENTRO =         0.01368088
  eigenvalues    EBANDS =       531.20883573
  atomic energy  EATOM  =     58329.24398462
  Solvation  Ediel_sol  =         0.00000000
  ---------------------------------------------------
  free energy    TOTEN  =      -418.41817002 eV

  energy without entropy =     -418.43185090  energy(sigma->0) =     -418.42273031


--------------------------------------------------------------------------------------------------------




--------------------------------------- Iteration      1(  16)  ---------------------------------------


    POTLOK:  cpu time    0.3857: real time    0.3868
    SETDIJ:  cpu time    0.0365: real time    0.0365
    EDDIAG:  cpu time   11.1628: real time   11.1951
  RMM-DIIS:  cpu time   39.2397: real time   39.3507
    ORTHCH:  cpu time    1.2216: real time    1.2245
       DOS:  cpu time    0.0021: real time    0.0021
    CHARGE:  cpu time    4.1298: real time    4.1395
    MIXING:  cpu time    0.0125: real time    0.0125
    --------------------------------------------
      LOOP:  cpu time   56.1907: real time   56.3478

 eigenvalue-minimisations  :  8986
 total energy-change (2. order) :-0.2497943E+02  (-0.1414783E+01)
 number of electron     800.0000005 magnetization      38.5606401
 augmentation part      246.9412603 magnetization      23.2494568

 Broyden mixing:
  rms(total) = 0.17392E+01    rms(broyden)= 0.17392E+01
  rms(prec ) = 0.20524E+01
  weight for this iteration     100.00

 eigenvalues of (default mixing * dielectric matrix)
  average eigenvalue GAMMA=   0.8999
  3.4481  2.1537  0.9633  0.9633  0.5545  0.4755  0.3835  0.3835  0.2398  0.2584
  0.0754

 Free energy of the ion-electron system (eV)
  ---------------------------------------------------
  alpha Z        PSCENC =      2809.97302481
  Ewald energy   TEWEN  =    168243.09916061
  -Hartree energ DENC   =   -232647.75165503
  -exchange      EXHF   =         0.00000000
  -V(xc)+E(xc)   XCENC  =       286.62171117
  PAW double counting   =     75619.54127450   -73621.12990386
  entropy T*S    EENTRO =         0.01323437
  eigenvalues    EBANDS =       536.99157053
  atomic energy  EATOM  =     58329.24398462
  Solvation  Ediel_sol  =         0.00000000
  ---------------------------------------------------
  free energy    TOTEN  =      -443.39759826 eV

  energy without entropy =     -443.41083263  energy(sigma->0) =     -443.40200972


--------------------------------------------------------------------------------------------------------




--------------------------------------- Iteration      1(  17)  ---------------------------------------


    POTLOK:  cpu time    0.3866: real time    0.3876
    SETDIJ:  cpu time    0.0364: real time    0.0364
    EDDIAG:  cpu time   11.1617: real time   11.1881
  RMM-DIIS:  cpu time   39.1175: real time   39.2101
    ORTHCH:  cpu time    1.2164: real time    1.2193
       DOS:  cpu time    0.0022: real time    0.0022
    CHARGE:  cpu time    4.1523: real time    4.1622
    MIXING:  cpu time    0.0135: real time    0.0135
    --------------------------------------------
      LOOP:  cpu time   56.0866: real time   56.2193

 eigenvalue-minimisations  :  9002
 total energy-change (2. order) :-0.7134026E+01  (-0.5876027E+00)
 number of electron     800.0000005 magnetization      31.8027355
 augmentation part      246.6805233 magnetization      18.0528667

 Broyden mixing:
  rms(total) = 0.12506E+01    rms(broyden)= 0.12506E+01
  rms(prec ) = 0.14751E+01
  weight for this iteration     100.00

 eigenvalues of (default mixing * dielectric matrix)
  average eigenvalue GAMMA=   1.0139
  5.0961  2.0120  1.1222  1.1222  0.6229  0.6229  0.3854  0.3854  0.0754  0.2548
  0.2425  0.2254

 Free energy of the ion-electron system (eV)
  ---------------------------------------------------
  alpha Z        PSCENC =      2809.97302481
  Ewald energy   TEWEN  =    168243.09916061
  -Hartree energ DENC   =   -232632.70121458
  -exchange      EXHF   =         0.00000000
  -V(xc)+E(xc)   XCENC  =       281.70395235
  PAW double counting   =     75583.30708830   -73584.50650512
  entropy T*S    EENTRO =        -0.02200587
  eigenvalues    EBANDS =       519.37089042
  atomic energy  EATOM  =     58329.24398462
  Solvation  Ediel_sol  =         0.00000000
  ---------------------------------------------------
  free energy    TOTEN  =      -450.53162446 eV

  energy without entropy =     -450.50961859  energy(sigma->0) =     -450.52428917


--------------------------------------------------------------------------------------------------------




--------------------------------------- Iteration      1(  18)  ---------------------------------------


    POTLOK:  cpu time    0.3868: real time    0.3877
    SETDIJ:  cpu time    0.0366: real time    0.0366
    EDDIAG:  cpu time   11.1477: real time   11.1741
  RMM-DIIS:  cpu time   39.2596: real time   39.3525
    ORTHCH:  cpu time    1.3503: real time    1.3535
       DOS:  cpu time    0.0022: real time    0.0022
    CHARGE:  cpu time    4.1254: real time    4.1352
    MIXING:  cpu time    0.0141: real time    0.0141
    --------------------------------------------
      LOOP:  cpu time   56.3227: real time   56.4560

 eigenvalue-minimisations  :  8993
 total energy-change (2. order) :-0.6152274E+01  (-0.5005537E+00)
 number of electron     800.0000005 magnetization      26.3351036
 augmentation part      246.4374098 magnetization      14.7504757

 Broyden mixing:
  rms(total) = 0.83352E+00    rms(broyden)= 0.83352E+00
  rms(prec ) = 0.94813E+00
  weight for this iteration     100.00

 eigenvalues of (default mixing * dielectric matrix)
  average eigenvalue GAMMA=   1.1326
  6.9368  1.8755  1.1930  1.1930  0.7418  0.7418  0.4831  0.3861  0.3861  0.0754
  0.2653  0.2387  0.2077

 Free energy of the ion-electron system (eV)
  ---------------------------------------------------
  alpha Z        PSCENC =      2809.97302481
  Ewald energy   TEWEN  =    168243.09916061
  -Hartree energ DENC   =   -232599.28559878
  -exchange      EXHF   =         0.00000000
  -V(xc)+E(xc)   XCENC  =       277.29034847
  PAW double counting   =     75594.01243449   -73595.19694003
  entropy T*S    EENTRO =        -0.03785031
  eigenvalues    EBANDS =       484.21753814
  atomic energy  EATOM  =     58329.24398462
  Solvation  Ediel_sol  =         0.00000000
  ---------------------------------------------------
  free energy    TOTEN  =      -456.68389798 eV

  energy without entropy =     -456.64604767  energy(sigma->0) =     -456.67128121


--------------------------------------------------------------------------------------------------------




--------------------------------------- Iteration      1(  19)  ---------------------------------------


    POTLOK:  cpu time    0.3848: real time    0.3857
    SETDIJ:  cpu time    0.0363: real time    0.0364
    EDDIAG:  cpu time   11.1625: real time   11.1889
  RMM-DIIS:  cpu time   39.3225: real time   39.4156
    ORTHCH:  cpu time    1.2135: real time    1.2164
       DOS:  cpu time    0.0021: real time    0.0021
    CHARGE:  cpu time    4.1586: real time    4.1684
    MIXING:  cpu time    0.0140: real time    0.0140
    --------------------------------------------
      LOOP:  cpu time   56.2943: real time   56.4275

 eigenvalue-minimisations  :  9002
 total energy-change (2. order) :-0.2813022E+01  (-0.2107974E+00)
 number of electron     800.0000005 magnetization      20.9908210
 augmentation part      246.6119055 magnetization      11.4359447

 Broyden mixing:
  rms(total) = 0.68870E+00    rms(broyden)= 0.68870E+00
  rms(prec ) = 0.78283E+00
  weight for this iteration     100.00

 eigenvalues of (default mixing * dielectric matrix)
  average eigenvalue GAMMA=   1.1814
  8.0143  1.8147  1.3585  1.3585  0.7790  0.7790  0.5331  0.3878  0.3878  0.0754
  0.3348  0.2695  0.2393  0.2077

 Free energy of the ion-electron system (eV)
  ---------------------------------------------------
  alpha Z        PSCENC =      2809.97302481
  Ewald energy   TEWEN  =    168243.09916061
  -Hartree energ DENC   =   -232543.00988534
  -exchange      EXHF   =         0.00000000
  -V(xc)+E(xc)   XCENC  =       274.76304649
  PAW double counting   =     75572.22503659   -73574.26454365
  entropy T*S    EENTRO =        -0.02086060
  eigenvalues    EBANDS =       428.49411615
  atomic energy  EATOM  =     58329.24398462
  Solvation  Ediel_sol  =         0.00000000
  ---------------------------------------------------
  free energy    TOTEN  =      -459.49692032 eV

  energy without entropy =     -459.47605972  energy(sigma->0) =     -459.48996678


--------------------------------------------------------------------------------------------------------




--------------------------------------- Iteration      1(  20)  ---------------------------------------


    POTLOK:  cpu time    0.4238: real time    0.4248
    SETDIJ:  cpu time    0.0365: real time    0.0366
    EDDIAG:  cpu time   11.1511: real time   11.1775
  RMM-DIIS:  cpu time   39.1818: real time   39.2745
    ORTHCH:  cpu time    1.2143: real time    1.2172
       DOS:  cpu time    0.0022: real time    0.0022
    CHARGE:  cpu time    4.1615: real time    4.1713
    MIXING:  cpu time    0.0163: real time    0.0163
    --------------------------------------------
      LOOP:  cpu time   56.1874: real time   56.3203

 eigenvalue-minimisations  :  8994
 total energy-change (2. order) :-0.1351047E+01  (-0.1209945E+00)
 number of electron     800.0000005 magnetization      17.1891375
 augmentation part      246.8337151 magnetization       9.4647661

 Broyden mixing:
  rms(total) = 0.53799E+00    rms(broyden)= 0.53799E+00
  rms(prec ) = 0.61801E+00
  weight for this iteration     100.00

 eigenvalues of (default mixing * dielectric matrix)
  average eigenvalue GAMMA=   1.2096
  8.7849  1.8582  1.5241  1.5241  0.7865  0.7865  0.5291  0.5291  0.3866  0.3866
  0.0754  0.2730  0.2392  0.2534  0.2072

 Free energy of the ion-electron system (eV)
  ---------------------------------------------------
  alpha Z        PSCENC =      2809.97302481
  Ewald energy   TEWEN  =    168243.09916061
  -Hartree energ DENC   =   -232477.38629222
  -exchange      EXHF   =         0.00000000
  -V(xc)+E(xc)   XCENC  =       273.19725744
  PAW double counting   =     75471.86942981   -73473.62161747
  entropy T*S    EENTRO =        -0.00997714
  eigenvalues    EBANDS =       362.78706209
  atomic energy  EATOM  =     58329.24398462
  Solvation  Ediel_sol  =         0.00000000
  ---------------------------------------------------
  free energy    TOTEN  =      -460.84796745 eV

  energy without entropy =     -460.83799031  energy(sigma->0) =     -460.84464174


--------------------------------------------------------------------------------------------------------




--------------------------------------- Iteration      1(  21)  ---------------------------------------


    POTLOK:  cpu time    0.4702: real time    0.4713
    SETDIJ:  cpu time    0.0490: real time    0.0491
    EDDIAG:  cpu time   11.2157: real time   11.2563
  RMM-DIIS:  cpu time   39.1675: real time   39.2821
    ORTHCH:  cpu time    1.2168: real time    1.2204
       DOS:  cpu time    0.0020: real time    0.0020
    CHARGE:  cpu time    4.1569: real time    4.1688
    MIXING:  cpu time    0.0165: real time    0.0165
    --------------------------------------------
      LOOP:  cpu time   56.2947: real time   56.4666

 eigenvalue-minimisations  :  9008
 total energy-change (2. order) :-0.3884255E+00  (-0.4144102E-01)
 number of electron     800.0000005 magnetization      15.0466246
 augmentation part      246.9115011 magnetization       8.4559351

 Broyden mixing:
  rms(total) = 0.32555E+00    rms(broyden)= 0.32555E+00
  rms(prec ) = 0.37054E+00
  weight for this iteration     100.00

 eigenvalues of (default mixing * dielectric matrix)
  average eigenvalue GAMMA=   1.2348
  9.5977  1.9228  1.5352  1.5352  0.8862  0.8862  0.5869  0.5869  0.3853  0.3853
  0.4234  0.0754  0.2662  0.2077  0.2401  0.2361

 Free energy of the ion-electron system (eV)
  ---------------------------------------------------
  alpha Z        PSCENC =      2809.97302481
  Ewald energy   TEWEN  =    168243.09916061
  -Hartree energ DENC   =   -232441.96583682
  -exchange      EXHF   =         0.00000000
  -V(xc)+E(xc)   XCENC  =       272.59792400
  PAW double counting   =     75374.78446798   -73375.32581519
  entropy T*S    EENTRO =        -0.00947549
  eigenvalues    EBANDS =       326.36617252
  atomic energy  EATOM  =     58329.24398462
  Solvation  Ediel_sol  =         0.00000000
  ---------------------------------------------------
  free energy    TOTEN  =      -461.23639297 eV

  energy without entropy =     -461.22691748  energy(sigma->0) =     -461.23323447


--------------------------------------------------------------------------------------------------------




--------------------------------------- Iteration      1(  22)  ---------------------------------------


    POTLOK:  cpu time    0.3856: real time    0.3866
    SETDIJ:  cpu time    0.0339: real time    0.0340
    EDDIAG:  cpu time   11.3108: real time   11.3436
[...]


 FORCES acting on ions
    electron-ion (+dipol)            ewald-force                    non-local-force                 convergence-correction
 -----------------------------------------------------------------------------------------------
   0.234E-01 -.128E+00 -.135E+04   -.181E-01 0.129E+00 0.135E+04   0.218E-02 -.660E-02 0.455E+00   -.107E-01 0.730E-02 -.112E-03
   0.848E-02 -.948E+00 -.135E+04   -.592E-02 0.944E+00 0.135E+04   0.293E-03 0.778E-02 0.478E+00   -.462E-02 0.695E-02 -.265E-02
   0.731E+00 0.293E+00 -.135E+04   -.727E+00 -.296E+00 0.135E+04   -.329E-02 -.128E-02 0.469E+00   -.750E-02 0.240E-02 -.203E-02
   0.167E+00 0.423E+00 0.268E+04   -.141E+00 -.438E+00 -.268E+04   -.218E-01 0.629E-02 -.277E+00   -.840E-02 0.710E-02 -.311E-02
   -.868E+00 0.171E+01 0.268E+04   0.896E+00 -.172E+01 -.268E+04   -.174E-01 -.394E-02 -.251E+00   0.968E-03 0.123E-02 0.821E-03
   -.165E+01 0.843E+00 0.268E+04   0.167E+01 -.870E+00 -.268E+04   0.144E-02 0.193E-01 -.251E+00   -.342E-02 -.337E-04 0.134E-02
   0.597E-01 -.127E+01 0.136E+04   -.486E-01 0.130E+01 -.136E+04   0.884E-02 -.271E-01 -.449E+00   -.377E-02 -.152E-01 -.111E-01
   -.594E+00 0.714E+00 0.136E+04   0.576E+00 -.745E+00 -.136E+04   0.389E-01 0.221E-01 -.450E+00   0.144E-01 0.175E-01 0.395E-02
   0.179E+00 -.658E+00 -.135E+04   -.185E+00 0.674E+00 0.135E+04   0.763E-02 -.462E-02 0.475E+00   -.165E-02 0.304E-02 -.657E-02
   -.135E+01 -.504E+00 0.268E+04   0.135E+01 0.486E+00 -.268E+04   0.237E-02 0.208E-01 -.256E+00   0.903E-02 -.744E-02 0.413E-02
   0.138E+01 -.255E+00 0.136E+04   -.139E+01 0.264E+00 -.136E+04   -.145E-01 -.197E-01 -.437E+00   0.291E-02 -.132E-01 0.335E-02
   -.140E+00 -.171E+00 0.525E+01   0.148E+00 0.147E+00 -.526E+01   -.829E-02 0.313E-01 0.262E-01   -.507E-02 0.604E-03 -.719E-02
   -.606E+00 0.529E+00 -.135E+04   0.598E+00 -.514E+00 0.135E+04   0.330E-02 -.920E-02 0.475E+00   0.141E-01 -.911E-02 -.124E-01
   -.160E+00 0.163E+00 -.137E+04   0.140E+00 -.164E+00 0.137E+04   0.564E-02 -.111E-02 0.377E+00   0.492E-02 0.130E-02 0.136E-01
   0.690E-01 0.169E+00 -.136E+04   -.641E-01 -.139E+00 0.136E+04   -.943E-02 -.150E-01 0.416E+00   0.671E-02 -.106E-01 0.160E-02
   -.269E+00 -.766E+00 0.268E+04   0.278E+00 0.748E+00 -.268E+04   -.403E-02 0.205E-01 -.249E+00   -.389E-02 0.296E-02 0.879E-02
   0.885E+00 0.211E+00 0.268E+04   -.891E+00 -.246E+00 -.268E+04   0.179E-02 0.239E-01 -.239E+00   0.120E-01 0.764E-02 0.116E-02
   -.634E+00 -.157E+01 0.268E+04   0.650E+00 0.155E+01 -.268E+04   -.726E-02 0.399E-01 -.263E+00   -.859E-02 -.803E-02 0.517E-02
   0.105E+01 -.473E+00 0.136E+04   -.103E+01 0.464E+00 -.136E+04   -.301E-01 0.141E-01 -.479E+00   -.177E-01 0.873E-02 0.514E-02
   0.175E+00 0.191E+00 0.353E+01   -.182E+00 -.216E+00 -.356E+01   0.240E-01 0.164E-01 0.164E-03   -.239E-02 0.134E-01 0.118E-01
   -.297E+00 0.989E+00 0.136E+04   0.312E+00 -.101E+01 -.136E+04   -.314E-02 -.209E-01 -.477E+00   -.488E-02 -.302E-02 -.871E-04
   0.139E+01 -.688E+00 0.135E+04   -.142E+01 0.695E+00 -.135E+04   0.254E-01 -.145E-01 -.461E+00   0.985E-02 -.638E-02 -.255E-01
   -.844E-01 -.142E+00 -.136E+04   0.643E-01 0.128E+00 0.136E+04   0.700E-02 0.163E-01 0.438E+00   0.109E-01 -.594E-03 0.279E-03
   0.495E+00 0.173E+01 0.268E+04   -.479E+00 -.173E+01 -.268E+04   -.229E-01 -.160E-01 -.263E+00   0.131E-03 0.106E-01 0.399E-02
   0.108E+01 0.251E+00 0.136E+04   -.110E+01 -.289E+00 -.136E+04   0.147E-01 0.273E-01 -.460E+00   0.825E-02 0.163E-01 -.120E-01
   -.227E+00 0.669E+00 0.183E+01   0.209E+00 -.682E+00 -.186E+01   0.855E-02 0.141E-01 0.151E-01   0.116E-01 0.688E-02 -.123E-02
   0.611E+00 -.537E-01 -.267E+04   -.606E+00 0.776E-01 0.267E+04   -.330E-02 -.298E-01 0.254E+00   -.827E-02 0.338E-02 -.511E-02
   0.417E+01 0.993E+00 -.268E+04   -.416E+01 -.967E+00 0.268E+04   -.712E-02 -.249E-01 0.261E+00   0.909E-03 0.747E-03 0.118E-02
   0.111E+01 -.392E+01 -.268E+04   -.111E+01 0.392E+01 0.268E+04   0.535E-02 0.636E-02 0.260E+00   -.425E-03 -.164E-02 -.924E-03
   -.231E+01 0.126E+01 -.267E+04   0.230E+01 -.124E+01 0.267E+04   0.144E-01 -.282E-01 0.247E+00   -.686E-02 0.499E-02 0.299E-03
   -.937E+00 -.296E+01 -.267E+04   0.909E+00 0.297E+01 0.267E+04   0.181E-01 0.108E-02 0.254E+00   0.739E-02 -.524E-02 -.542E-02
   -.239E+01 0.257E+01 -.267E+04   0.237E+01 -.254E+01 0.267E+04   0.206E-01 -.334E-01 0.247E+00   -.728E-02 0.315E-02 -.273E-02
   0.919E+00 0.677E+00 -.267E+04   -.930E+00 -.646E+00 0.267E+04   0.102E-01 -.274E-01 0.234E+00   0.257E-03 -.894E-03 -.451E-02
   -.992E+00 0.967E+00 -.267E+04   0.969E+00 -.932E+00 0.267E+04   0.233E-01 -.380E-01 0.257E+00   0.255E-02 -.392E-03 -.966E-02
   0.704E+00 -.138E+01 -.267E+04   -.703E+00 0.138E+01 0.267E+04   0.372E-02 -.550E-02 0.252E+00   -.637E-02 0.758E-02 -.475E-02
   0.229E+01 0.367E+01 -.268E+04   -.230E+01 -.361E+01 0.268E+04   0.302E-02 -.428E-01 0.255E+00   0.741E-02 -.447E-02 -.501E-02
   -.815E+00 -.453E+01 -.269E+04   0.790E+00 0.452E+01 0.269E+04   0.160E-01 0.144E-01 0.277E+00   0.658E-02 -.511E-02 -.307E-02
   -.462E+01 0.240E+01 -.269E+04   0.459E+01 -.237E+01 0.269E+04   0.311E-01 -.229E-01 0.280E+00   0.298E-03 -.650E-03 -.516E-02
   0.458E+01 -.372E+01 -.268E+04   -.455E+01 0.371E+01 0.268E+04   -.251E-01 0.112E-01 0.221E+00   -.668E-03 0.830E-03 0.639E-03
   -.104E+01 0.607E+01 -.268E+04   0.102E+01 -.600E+01 0.268E+04   0.117E-01 -.738E-01 0.227E+00   -.287E-04 -.160E-02 -.492E-02
   -.342E+00 0.416E-01 -.137E+04   0.335E+00 -.210E-01 0.137E+04   0.237E-02 -.257E-02 0.367E+00   0.216E-02 -.619E-02 0.146E-01
   0.731E+00 -.109E+01 0.268E+04   -.707E+00 0.109E+01 -.268E+04   -.126E-01 -.228E-02 -.240E+00   -.181E-02 -.102E-01 0.147E-02
   0.409E+00 0.613E+00 -.135E+04   -.413E+00 -.585E+00 0.135E+04   -.692E-02 -.216E-01 0.481E+00   -.618E-03 -.778E-02 -.954E-02
   0.170E+00 -.126E+01 0.268E+04   -.154E+00 0.126E+01 -.268E+04   -.181E-02 0.799E-02 -.252E+00   -.592E-03 -.958E-02 0.398E-02
   0.562E+00 -.101E+01 0.136E+04   -.576E+00 0.998E+00 -.136E+04   0.141E-01 0.301E-01 -.451E+00   0.132E-01 0.501E-03 0.413E-02
   -.983E+00 -.917E+00 0.135E+04   0.102E+01 0.911E+00 -.135E+04   -.406E-01 0.315E-01 -.460E+00   -.118E-01 -.753E-02 -.485E-02
   0.761E+00 0.328E+00 -.135E+04   -.772E+00 -.320E+00 0.135E+04   0.372E-02 -.882E-02 0.474E+00   -.512E-02 -.234E-02 -.706E-02
   -.573E+00 0.421E+00 0.268E+04   0.578E+00 -.430E+00 -.268E+04   -.764E-02 0.370E-03 -.254E+00   0.937E-02 -.266E-02 0.292E-02
   0.410E+00 0.110E+01 0.136E+04   -.395E+00 -.113E+01 -.136E+04   -.372E-01 0.207E-01 -.452E+00   -.134E-02 0.149E-01 -.240E-02
   0.259E+01 0.220E+01 -.269E+04   -.260E+01 -.217E+01 0.269E+04   -.568E-03 -.244E-01 0.287E+00   0.650E-02 -.453E-02 -.372E-02
   0.742E-01 -.859E-01 -.155E+02   -.850E-01 0.814E-01 0.156E+02   0.104E-01 0.138E-01 -.992E-01   0.503E-02 -.947E-03 0.205E-01
   -.466E+01 -.252E+01 -.268E+04   0.461E+01 0.252E+01 0.268E+04   0.459E-01 0.787E-02 0.222E+00   0.146E-02 0.751E-03 -.453E-02
   -.623E+00 -.470E+00 0.136E+04   0.644E+00 0.492E+00 -.136E+04   -.122E-01 -.296E-01 -.454E+00   -.118E-01 -.227E-01 0.282E-02
   -.716E+00 -.872E-01 0.136E+04   0.715E+00 0.839E-01 -.136E+04   0.663E-02 0.667E-02 -.438E+00   0.101E-01 -.548E-02 0.507E-02
   -.353E+00 0.428E+00 0.269E+01   0.379E+00 -.446E+00 -.272E+01   -.293E-01 0.118E-01 0.348E-02   -.144E-01 0.921E-02 0.925E-02
   -.500E+00 0.410E+00 -.135E+04   0.487E+00 -.417E+00 0.135E+04   0.193E-01 0.103E-02 0.479E+00   -.449E-02 0.695E-02 -.259E-02
   -.305E+00 0.181E-01 -.137E+04   0.299E+00 -.148E-01 0.137E+04   0.125E-02 0.102E-02 0.365E+00   0.839E-02 -.429E-02 0.142E-01
   0.771E+00 -.123E+00 0.268E+04   -.758E+00 0.837E-01 -.268E+04   -.285E-01 0.375E-01 -.252E+00   -.251E-03 0.821E-02 0.146E-03
   0.284E+00 0.549E+00 0.267E+04   -.247E+00 -.575E+00 -.267E+04   -.323E-01 0.186E-01 -.237E+00   -.893E-02 0.657E-02 0.881E-03
   0.197E+00 0.150E+01 0.135E+04   -.199E+00 -.155E+01 -.135E+04   -.241E-02 0.252E-01 -.450E+00   0.835E-02 0.176E-01 -.280E-01
   -.719E+00 -.863E+00 0.135E+04   0.757E+00 0.877E+00 -.135E+04   -.263E-01 -.450E-02 -.452E+00   -.109E-01 -.122E-01 -.323E-01
   -.949E+00 -.251E+00 -.601E+00   0.957E+00 0.273E+00 0.590E+00   -.136E-01 -.152E-01 -.739E-03   0.134E-02 -.168E-01 -.211E-02
   -.791E-01 0.782E-01 -.136E+04   0.573E-01 -.629E-01 0.136E+04   0.225E-01 -.138E-01 0.446E+00   -.647E-02 0.215E-02 0.570E-02
   0.155E+01 -.141E+01 0.268E+04   -.153E+01 0.138E+01 -.268E+04   -.459E-01 0.385E-01 -.266E+00   0.862E-03 -.199E-02 0.616E-03
   0.988E-01 -.184E+00 0.745E+01   -.824E-01 0.188E+00 -.748E+01   -.171E-01 -.342E-02 0.388E-01   -.827E-03 0.596E-02 -.477E-02
   0.711E+00 0.797E+00 -.330E+01   -.746E+00 -.832E+00 0.330E+01   0.331E-01 0.389E-01 0.111E-02   0.995E-02 0.143E-01 0.112E-01
   0.919E+00 0.118E+00 -.201E+01   -.954E+00 -.137E+00 0.200E+01   0.530E-01 0.137E-01 0.648E-03   0.606E-02 0.510E-02 0.137E-01
   -.719E+00 0.928E+00 -.455E+01   0.725E+00 -.962E+00 0.456E+01   -.183E-01 0.412E-01 -.268E-02   0.596E-02 0.110E-01 0.961E-02
   -.336E-01 -.309E+00 0.628E+01   0.116E-01 0.323E+00 -.630E+01   0.229E-01 -.982E-02 0.381E-01   0.182E-02 0.211E-03 -.770E-02
   -.705E+00 0.911E+00 0.135E+04   0.746E+00 -.943E+00 -.135E+04   -.424E-01 0.255E-01 -.455E+00   -.109E-01 0.697E-02 -.202E-01
   0.572E-01 -.483E+00 0.465E+01   -.421E-01 0.503E+00 -.468E+01   -.434E-02 -.298E-01 0.125E-01   -.123E-01 -.317E-02 0.110E-01
   -.637E+00 0.317E+00 -.135E+04   0.633E+00 -.295E+00 0.135E+04   0.149E-01 -.202E-01 0.482E+00   -.739E-02 -.459E-03 -.318E-02
   -.106E+00 -.674E+00 -.135E+04   0.867E-01 0.671E+00 0.135E+04   0.111E-01 0.846E-02 0.487E+00   0.552E-02 0.511E-02 -.814E-02
   0.958E+00 -.922E+00 0.268E+04   -.920E+00 0.921E+00 -.268E+04   -.439E-01 0.109E-01 -.251E+00   -.532E-02 -.458E-02 0.101E-02
   0.506E+00 0.761E+00 0.268E+04   -.508E+00 -.777E+00 -.268E+04   0.424E-02 -.419E-02 -.251E+00   0.565E-02 0.390E-02 0.481E-02
   -.930E+00 0.200E+00 -.784E+01   0.959E+00 -.202E+00 0.787E+01   -.495E-01 0.127E-01 -.283E-01   -.562E-02 -.832E-02 0.104E-01
   0.702E+00 -.311E+00 0.336E+01   -.718E+00 0.316E+00 -.341E+01   0.110E-01 -.466E-02 0.307E-01   0.592E-02 -.669E-02 -.323E-03
   -.766E+00 -.363E+00 0.136E+04   0.786E+00 0.354E+00 -.136E+04   0.143E-01 0.171E-01 -.471E+00   0.174E-02 0.871E-02 0.128E-02
   0.278E+00 -.814E+00 -.130E+01   -.291E+00 0.844E+00 0.128E+01   0.337E-01 -.415E-01 0.905E-02   -.410E-03 -.107E-01 0.144E-01
   -.105E+00 -.906E+00 -.619E+01   0.117E+00 0.948E+00 0.621E+01   -.223E-01 -.470E-01 -.150E-01   -.653E-02 -.202E-01 0.136E-01
 -----------------------------------------------------------------------------------------------
   0.300E-01 0.290E-01 0.390E-01   -.329E-12 0.702E-13 0.746E-12   -.391E-01 -.159E-01 -.118E+00   0.249E-03 -.107E-03 -.323E-01
 
 
 POSITION                                       TOTAL-FORCE (eV/Angst)
 -----------------------------------------------------------------------------------
     12.99184      8.03724      7.35276        -0.002296      0.001651     -0.014903
      4.99692      8.03629      7.35447         0.001350      0.009854      0.009912
      3.66417      5.72891      7.35984        -0.004022     -0.004230      0.009412
     13.01778      8.01017      0.20217        -0.004275     -0.001051     -0.013324
      5.02243      8.01010      0.20560         0.011991     -0.008744     -0.000964
      3.68970      5.70196      0.20934         0.020934     -0.007603      0.001015
      7.67947      1.86324      2.62067         0.016532     -0.007904     -0.004469
      9.01078      8.78292      2.61956         0.034038      0.009927     -0.006756
      2.33188      3.42247      7.35174        -0.000305      0.012637      0.013101
      2.35748      3.39388      0.21000         0.013688     -0.004648     -0.015245
     10.34477      1.86288      2.61548        -0.013148     -0.023509     -0.007222
     13.00030      4.94848      4.98133        -0.004706      0.005182      0.012316
      3.66598      1.11252      7.35110         0.006785     -0.002154      0.009088
      8.99371      5.72851      7.39117        -0.010839     -0.002890     -0.030157
      4.99885      3.42263      7.38046         0.000919      0.003742     -0.010393
      3.68997      1.08569      0.20900        -0.000250      0.006116     -0.010078
      9.01978      5.70191      0.20684         0.007771     -0.003893      0.022180
      5.02270      3.39292      0.21171        -0.000246      0.010794     -0.000672
     11.67880      8.78448      2.61643        -0.035041      0.014857     -0.010169
     11.66631      7.25603      4.98574         0.012744      0.003374     -0.009656
     13.01054      6.47849      2.61852         0.007314     -0.042399     -0.006202
      9.01088      4.17047      2.62678         0.007728     -0.014366      0.013346
      7.66188      8.03420      7.37100        -0.002407      0.002536     -0.009266
      7.68795      8.01070      0.20634        -0.007148     -0.010696     -0.002282
     10.34419      6.47606      2.62190         0.000533      0.003943     -0.006957
      2.33982      0.33009      4.98829         0.001703      0.010257     -0.014719
     14.32000      8.81742      9.76563        -0.005589     -0.002345      0.001395
      3.65874      4.20135      9.78396         0.003782     -0.000881     -0.002501
      6.32417      8.81621      9.77410        -0.001138      0.003306     -0.000010
     11.65519      4.20139      9.77341        -0.007116     -0.001981     -0.005639
      8.98989      8.81620      9.77318        -0.003318      0.003277      0.000166
     10.32219      1.89249      9.76752        -0.002710      0.003574     -0.000183
      2.32696      1.89276      9.75385        -0.001310      0.002075      0.018678
     11.65396      8.81751      9.76696         0.001866     -0.002480      0.002795
     12.98703      6.50895      9.76806        -0.001604      0.000501      0.003700
      4.99169      1.89222      9.77807         0.001400      0.006034      0.000671
      7.65712      6.50846      9.81330        -0.002468      0.003414     -0.004600
      8.99037      4.20033      9.81167        -0.005516      0.004975     -0.004804
      4.99158      6.50875      9.78088         0.003044      0.000921      0.003230
      7.65713      1.89272      9.78008        -0.002236      0.003790     -0.001579
      7.66202      3.42212      7.39499        -0.002963      0.013295     -0.029702
      7.68753      3.39487      0.20648         0.009399     -0.007466      0.023708
      6.33007      1.11374      7.35559        -0.011955      0.001568      0.007552
      6.35480      1.08617      0.20444         0.013472      0.003212      0.000142
     11.67628      4.16863      2.61876         0.013462      0.015306     -0.012214
      3.68610      4.16838      2.62517        -0.016171      0.016205     -0.010042
      0.99893      1.11234      7.34762        -0.010457     -0.002607      0.008542
      1.02503      1.08648      0.20521         0.006298     -0.010610     -0.013306
      6.34938      8.78296      2.61942        -0.023513      0.005450     -0.013692
      6.32406      4.20042      9.82043         0.001169      0.003891     -0.002903
      7.66972      4.94825      5.02224         0.003848      0.007860      0.035427
     10.32259      6.50887      9.77748        -0.007470     -0.001057     -0.001407
      5.01675      1.86315      2.62293        -0.003995     -0.028434     -0.006252
      2.35008      1.86094      2.62148         0.014544     -0.001793     -0.021360
     14.33322      7.25617      4.98731        -0.013891      0.000936     -0.007361
     11.65853      5.72914      7.35369         0.001001     -0.002513      0.007157
      6.33035      5.72823      7.39719         0.004494     -0.001259     -0.026636
     11.68590      5.70158      0.20519        -0.016038      0.005546     -0.001285
      6.35564      5.70172      0.21090        -0.003906     -0.001333      0.022063
      7.68052      6.47499      2.62939         0.002921     -0.005354      0.027089
      6.35021      4.16989      2.63286        -0.000430     -0.003016      0.031425
      3.67497      2.64237      4.99318        -0.004465     -0.010070     -0.014148
     10.32470      3.42241      7.36500        -0.003607      0.001752     -0.007182
     10.35388      3.39347      0.20381        -0.019610      0.008761     -0.004929
     10.33503      0.33240      4.97727         0.000298      0.007689      0.007027
      9.00076      7.25300      4.99797         0.006060      0.017313      0.011042
     10.33093      4.94908      4.99521         0.022600     -0.003084      0.010300
      6.33859      7.25266      5.00034        -0.004575      0.017580      0.016170
      5.00481      0.33237      4.97963         0.001211      0.006243      0.010031
      5.01785      6.47563      2.62659        -0.010210     -0.000563     -0.004031
      7.66968      0.33376      4.98341        -0.000323     -0.009871     -0.004335
      8.99366      1.11369      7.35069         0.006115      0.003405      0.006566
     10.32696      8.03638      7.35308        -0.004872      0.010270      0.008020
      9.02090      1.08599      0.20092        -0.010915      0.006197      0.001647
     10.35218      8.01040      0.20338         0.007543     -0.015566      0.003049
      5.00898      4.94884      5.00722        -0.024108     -0.000106      0.017553
     11.66573      2.64185      4.98485         0.001411     -0.006855     -0.015311
     14.34168      8.78438      2.61562         0.036943      0.017846     -0.009987
      8.99924      2.64366      4.99392         0.021324     -0.021004      0.007862
      6.33979      2.64394      5.00377        -0.017069     -0.022731      0.015460
 -----------------------------------------------------------------------------------
    total drift:                               -0.008922      0.013001     -0.111418


--------------------------------------------------------------------------------------------------------



  FREE ENERGIE OF THE ION-ELECTRON SYSTEM (eV)
  ---------------------------------------------------
  free  energy   TOTEN  =      -514.31709177 eV

  energy  without entropy=     -514.26850641  energy(sigma->0) =     -514.30089665
 
 d Force = 0.4030169E-03[ 0.672E-04, 0.739E-03]  d Energy = 0.3951673E-03 0.785E-05
 d Force = 0.1786194E+01[ 0.178E+01, 0.179E+01]  d Ewald  = 0.1786195E+01-0.367E-06


--------------------------------------------------------------------------------------------------------


    POTLOK:  cpu time    0.4332: real time    0.4342


--------------------------------------------------------------------------------------------------------




--------------------------------------------------------------------------------------------------------


  
 reached required accuracy - stopping structural energy minimisation
     LOOP+:  cpu time  547.8347: real time  549.1974
    4ORBIT:  cpu time    0.0000: real time    0.0000

 total amount of memory used by VASP MPI-rank0   245199. kBytes
=======================================================================

   base      :      30000. kBytes
   nonlr-proj:      36024. kBytes
   fftplans  :      17966. kBytes
   grid      :      44179. kBytes
   one-center:        622. kBytes
   wavefun   :     116408. kBytes
 
  
  
 General timing and accounting informations for this job:
 ========================================================
  
                  Total CPU time used (sec):     4083.156
                            User time (sec):     4078.441
                          System time (sec):        4.715
                         Elapsed time (sec):     4095.948
  
                   Maximum memory used (kb):      688708.
                   Average memory used (kb):           0.
  
                          Minor page faults:      1193902
                          Major page faults:            0
                 Voluntary context switches:         5449
