 vasp.5.4.4.18Apr17-6-g9f103f2a35 (build Nov 30 2020 22:55:02) complex          
  
 executed on             LinuxIFC date 2023.09.09  20:36:44
 running on   40 total cores
 distrk:  each k-point on   40 cores,    1 groups
 distr:  one band on NCORES_PER_BAND=   4 cores,   10 groups


--------------------------------------------------------------------------------------------------------


 INCAR:
 POTCAR:    PAW_PBE Co 02Aug2007                  
 POTCAR:    PAW_PBE Pt 04Feb2005                  
 POTCAR:    PAW_PBE H 15Jun2001                   
 POTCAR:    PAW_PBE Co 02Aug2007                  
   VRHFIN =Co: d8 s1                                                            
   LEXCH  = PE                                                                  
   EATOM  =   813.3670 eV,   59.7808 Ry                                         
                                                                                
   TITEL  = PAW_PBE Co 02Aug2007                                                
   LULTRA =        F    use ultrasoft PP ?                                      
   IUNSCR =        1    unscreen: 0-lin 1-nonlin 2-no                           
   RPACOR =    2.000    partial core radius                                     
   POMASS =   58.933; ZVAL   =    9.000    mass and valenz                      
   RCORE  =    2.300    outmost cutoff radius                                   
   RWIGS  =    2.460; RWIGS  =    1.302    wigner-seitz radius (au A)           
   ENMAX  =  267.968; ENMIN  =  200.976 eV                                      
   RCLOC  =    1.203    cutoff for local pot                                    
   LCOR   =        T    correct aug charges                                     
   LPAW   =        T    paw PP                                                  
   EAUG   =  477.818                                                            
   DEXC   =    0.000                                                            
   RMAX   =    2.360    core radius for proj-oper                               
   RAUG   =    1.300    factor for augmentation sphere                          
   RDEP   =    2.393    radius for radial grids                                 
   RDEPT  =    1.864    core radius for aug-charge                              
                                                                                
   Atomic configuration                                                         
    9 entries                                                                   
     n  l   j            E        occ.                                          
     1  0  0.50     -7587.6674   2.0000                                         
     2  0  0.50      -893.6084   2.0000                                         
     2  1  1.50      -764.5805   6.0000                                         
     3  0  0.50       -97.5973   2.0000                                         
     3  1  1.50       -60.9648   6.0000                                         
     3  2  2.50        -4.2382   8.0000                                         
     4  0  0.50        -4.3746   1.0000                                         
     4  1  1.50        -4.0817   0.0000                                         
     4  3  2.50        -1.3606   0.0000                                         
   Description                                                                  
     l       E           TYP  RCUT    TYP  RCUT                                 
     2     -4.2382362     23  2.300                                             
     2     -5.5988188     23  2.300                                             
     0     -4.3745797     23  2.300                                             
     0      5.7660125     23  2.300                                             
     1     -2.7211652     23  2.300                                             
     1     16.9860234     23  2.300                                             
  local pseudopotential read in
  partial core-charges read in
  partial kinetic energy density read in
  atomic valenz-charges read in
  non local Contribution for L=           2  read in
    real space projection operators read in
  non local Contribution for L=           2  read in
    real space projection operators read in
  non local Contribution for L=           0  read in
    real space projection operators read in
  non local Contribution for L=           0  read in
    real space projection operators read in
  non local Contribution for L=           1  read in
    real space projection operators read in
  non local Contribution for L=           1  read in
    real space projection operators read in
    PAW grid and wavefunctions read in
 
   number of l-projection  operators is LMAX  =           6
   number of lm-projection operators is LMMAX =          18
 
 POTCAR:    PAW_PBE Pt 04Feb2005                  
   VRHFIN =Pt: s1d9                                                             
   LEXCH  = PE                                                                  
   EATOM  =   729.1176 eV,   53.5886 Ry                                         
                                                                                
   TITEL  = PAW_PBE Pt 04Feb2005                                                
   LULTRA =        F    use ultrasoft PP ?                                      
   IUNSCR =        1    unscreen: 0-lin 1-nonlin 2-no                           
   RPACOR =    2.330    partial core radius                                     
   POMASS =  195.080; ZVAL   =   10.000    mass and valenz                      
   RCORE  =    2.600    outmost cutoff radius                                   
   RWIGS  =    2.750; RWIGS  =    1.455    wigner-seitz radius (au A)           
   ENMAX  =  230.283; ENMIN  =  172.712 eV                                      
   ICORE  =        3    local potential                                         
   LCOR   =        T    correct aug charges                                     
   LPAW   =        T    paw PP                                                  
   EAUG   =  358.966                                                            
   DEXC   =    0.000                                                            
   RMAX   =    2.658    core radius for proj-oper                               
   RAUG   =    1.300    factor for augmentation sphere                          
   RDEP   =    2.761    radius for radial grids                                 
   RDEPT  =    2.203    core radius for aug-charge                              
                                                                                
   Atomic configuration                                                         
   16 entries                                                                   
     n  l   j            E        occ.                                          
     1  0  0.50    -78401.1885   2.0000                                         
     2  0  0.50    -13770.7750   2.0000                                         
     2  1  1.50    -11931.0468   6.0000                                         
     3  0  0.50     -3234.7234   2.0000                                         
     3  1  1.50     -2699.2216   6.0000                                         
     3  2  2.50     -2119.5714  10.0000                                         
     4  0  0.50      -695.1528   2.0000                                         
     4  1  1.50      -519.6034   6.0000                                         
     4  2  2.50      -306.6786  10.0000                                         
     4  3  3.50       -70.1041  14.0000                                         
     5  0  0.50      -101.7747   2.0000                                         
     5  1  1.50       -55.9873   6.0000                                         
     5  2  2.50        -6.1423   9.0000                                         
     6  0  0.50        -5.6573   1.0000                                         
     6  1  1.50        -6.8029   0.0000                                         
     5  3  2.50        -1.3606   0.0000                                         
   Description                                                                  
     l       E           TYP  RCUT    TYP  RCUT                                 
     2     -6.1423404     23  2.500                                             
     2     -7.5029230     23  2.500                                             
     0     -5.6573207     23  2.500                                             
     0      0.7416693     23  2.500                                             
     1     -2.7211652     23  2.600                                             
     1     20.4087390     23  2.600                                             
     3     -1.3605826     23  2.500                                             
  local pseudopotential read in
  partial core-charges read in
  partial kinetic energy density read in
  atomic valenz-charges read in
  non local Contribution for L=           2  read in
    real space projection operators read in
  non local Contribution for L=           2  read in
    real space projection operators read in
  non local Contribution for L=           0  read in
    real space projection operators read in
  non local Contribution for L=           0  read in
    real space projection operators read in
  non local Contribution for L=           1  read in
    real space projection operators read in
  non local Contribution for L=           1  read in
    real space projection operators read in
    PAW grid and wavefunctions read in
 
   number of l-projection  operators is LMAX  =           6
   number of lm-projection operators is LMMAX =          18
 
 POTCAR:    PAW_PBE H 15Jun2001                   
   VRHFIN =H: ultrasoft test                                                    
   LEXCH  = PE                                                                  
   EATOM  =    12.4884 eV,    0.9179 Ry                                         
                                                                                
   TITEL  = PAW_PBE H 15Jun2001                                                 
   LULTRA =        F    use ultrasoft PP ?                                      
   IUNSCR =        0    unscreen: 0-lin 1-nonlin 2-no                           
   RPACOR =    0.000    partial core radius                                     
   POMASS =    1.000; ZVAL   =    1.000    mass and valenz                      
   RCORE  =    1.100    outmost cutoff radius                                   
   RWIGS  =    0.700; RWIGS  =    0.370    wigner-seitz radius (au A)           
   ENMAX  =  250.000; ENMIN  =  200.000 eV                                      
   RCLOC  =    0.701    cutoff for local pot                                    
   LCOR   =        T    correct aug charges                                     
   LPAW   =        T    paw PP                                                  
   EAUG   =  400.000                                                            
   RMAX   =    1.123    core radius for proj-oper                               
   RAUG   =    1.200    factor for augmentation sphere                          
   RDEP   =    1.112    radius for radial grids                                 
   RDEPT  =    0.926    core radius for aug-charge                              
                                                                                
   Atomic configuration                                                         
    2 entries                                                                   
     n  l   j            E        occ.                                          
     1  0  0.50        -6.4927   1.0000                                         
     2  1  0.50        -3.4015   0.0000                                         
   Description                                                                  
     l       E           TYP  RCUT    TYP  RCUT                                 
     0     -6.4927494     23  1.100                                             
     0      6.8029130     23  1.100                                             
     1     -4.0817478     23  1.100                                             
  local pseudopotential read in
  atomic valenz-charges read in
  non local Contribution for L=           0  read in
    real space projection operators read in
  non local Contribution for L=           0  read in
    real space projection operators read in
  non local Contribution for L=           1  read in
    real space projection operators read in
    PAW grid and wavefunctions read in
 
   number of l-projection  operators is LMAX  =           3
   number of lm-projection operators is LMMAX =           5
 
 Optimization of the real space projectors (new method)

 maximal supplied QI-value         = 16.25
 optimisation between [QCUT,QGAM] = [ 11.86, 23.89] = [ 39.41,159.82] Ry 
 Optimized for a Real-space Cutoff    1.33 Angstroem

   l    n(q)    QCUT    max X(q) W(low)/X(q) W(high)/X(q)  e(spline) 
   2      9    11.864    65.824    0.22E-03    0.53E-03    0.26E-06
   2      9    11.864    61.429    0.22E-03    0.53E-03    0.26E-06
   0      9    11.864    56.174    0.21E-03    0.32E-04    0.15E-06
   0      9    11.864    31.263    0.19E-03    0.30E-04    0.14E-06
   1      9    11.864    19.828    0.63E-04    0.30E-03    0.16E-06
   1      9    11.864    15.139    0.49E-04    0.25E-03    0.13E-06
 Optimization of the real space projectors (new method)

 maximal supplied QI-value         = 14.36
 optimisation between [QCUT,QGAM] = [ 11.92, 23.98] = [ 39.79,161.09] Ry 
 Optimized for a Real-space Cutoff    1.49 Angstroem

   l    n(q)    QCUT    max X(q) W(low)/X(q) W(high)/X(q)  e(spline) 
   2     10    11.920    66.195    0.79E-04    0.18E-03    0.24E-06
   2     10    11.920    64.643    0.81E-04    0.19E-03    0.24E-06
   0     11    11.920    95.520    0.28E-04    0.54E-04    0.18E-06
   0     11    11.920    63.403    0.27E-04    0.52E-04    0.17E-06
   1     10    11.920    19.961    0.18E-04    0.11E-03    0.23E-06
   1     10    11.920    13.289    0.25E-04    0.87E-04    0.19E-06
 Optimization of the real space projectors (new method)

 maximal supplied QI-value         = 34.20
 optimisation between [QCUT,QGAM] = [ 11.97, 23.94] = [ 40.13,160.53] Ry 
 Optimized for a Real-space Cutoff    1.18 Angstroem

   l    n(q)    QCUT    max X(q) W(low)/X(q) W(high)/X(q)  e(spline) 
   0      8    11.971    19.460    0.15E-03    0.31E-03    0.25E-06
   0      8    11.971    12.209    0.13E-03    0.29E-03    0.25E-06
   1      8    11.971     4.655    0.22E-03    0.24E-03    0.21E-06
  PAW_PBE Co 02Aug2007                  :
 energy of atom  1       EATOM= -813.3670
 kinetic energy error for atom=    0.0026 (will be added to EATOM!!)
  PAW_PBE Pt 04Feb2005                  :
 energy of atom  2       EATOM= -729.1176
 kinetic energy error for atom=    0.0021 (will be added to EATOM!!)
  PAW_PBE H 15Jun2001                   :
 energy of atom  3       EATOM=  -12.4884
 kinetic energy error for atom=    0.0008 (will be added to EATOM!!)
 
 
 POSCAR: PtM\(2)                                 
  positions in direct lattice
  velocities in cartesian coordinates
  No initial velocities read in
 exchange correlation table for  LEXCH =        8
   RHO(1)=    0.500       N(1)  =     2000
   RHO(2)=  100.500       N(2)  =     4000
 


--------------------------------------------------------------------------------------------------------


 ion  position               nearest neighbor table
   1  0.785  0.869  0.311-  55 2.42  20 2.42  39 2.42  73 2.63   3 2.63   2 2.64  40 2.64  56 2.64
                            57 2.64  65 2.64  29 2.64  72 2.64
   2  0.035  0.869  0.311-  39 2.42  49 2.42  52 2.42  77 2.62  67 2.63  65 2.63   1 2.64   3 2.64
                            56 2.64  23 2.64  41 2.65  33 2.65
   3  0.035  0.620  0.312-  39 2.42  12 2.42  60 2.42  77 2.62  66 2.62   1 2.63  73 2.64   2 2.64
                            40 2.64  15 2.64   9 2.64  41 2.65
   4  0.787  0.868  0.051-  21 2.41  62 2.41  19 2.41   5 2.64   6 2.64  42 2.64  59 2.64  58 2.64
                            30 2.64
   5  0.037  0.868  0.051-  54 2.41  35 2.41  62 2.41  58 2.64  24 2.64   4 2.64  43 2.64   6 2.64
                            34 2.64
   6  0.037  0.618  0.051-  32 2.41  54 2.41  21 2.41  43 2.64  10 2.64  18 2.64   4 2.64  42 2.64
                             5 2.64
   7  0.620  0.202  0.136-  28 2.41  30 2.41  58 2.41  55 2.50  63 2.50  64 2.51  62 2.64  11 2.64
                            37 2.64  19 2.64  45 2.64  22 2.64
   8  0.370  0.952  0.136-  16 2.41  24 2.41  59 2.41  53 2.50  26 2.50  50 2.51  38 2.64  25 2.64
                            44 2.64  19 2.64  37 2.64  35 2.64
   9  0.035  0.369  0.311-  12 2.42  61 2.42  46 2.42  71 2.62  66 2.63  68 2.63  13 2.63  33 2.63
                            40 2.64   3 2.64  47 2.64  15 2.65
  10  0.037  0.368  0.051-  38 2.41  32 2.41  31 2.41   6 2.64  48 2.64  34 2.64  18 2.64  42 2.64
                            16 2.64
  11  0.870  0.202  0.136-  48 2.41  58 2.41  34 2.41  61 2.50  49 2.50  63 2.52  35 2.64   7 2.64
                            22 2.64  38 2.64  31 2.64  62 2.64
  12  0.952  0.536  0.226-   9 2.42   3 2.42  40 2.42  21 2.50  31 2.50  32 2.51  39 2.64  20 2.64
                            61 2.64  46 2.64  60 2.65  51 2.65
  13  0.284  0.120  0.311-  46 2.42  26 2.42  53 2.42  69 2.63  74 2.63   9 2.63  71 2.63  33 2.63
                            23 2.64  15 2.65  29 2.65  57 2.65
  14  0.534  0.619  0.313-  36 2.42  50 2.43  51 2.43  27 2.62  41 2.62  80 2.63  47 2.63  23 2.65
                            40 2.65  57 2.65  76 2.67  75 2.67
  15  0.285  0.370  0.312-  60 2.42  64 2.42  46 2.42  74 2.62  41 2.63  66 2.63  27 2.63   3 2.64
                            13 2.65  29 2.65   9 2.65  79 2.65
  16  0.287  0.118  0.051-   8 2.41  37 2.41  38 2.41  18 2.64  30 2.64  59 2.64  34 2.64  10 2.64
                            24 2.64
  17  0.536  0.618  0.051-  22 2.41  25 2.41  44 2.41  43 2.64  28 2.64  24 2.64  59 2.64  48 2.64
                            42 2.64
  18  0.287  0.368  0.051-  37 2.41  45 2.41  32 2.41  16 2.64   6 2.64  43 2.64  10 2.64  28 2.64
                            30 2.64
  19  0.620  0.952  0.136-  30 2.41  59 2.41   4 2.41  55 2.50  20 2.50  53 2.51  62 2.64  21 2.64
                            37 2.64   7 2.64  25 2.64   8 2.64
  20  0.702  0.785  0.226-  40 2.42   1 2.42  57 2.42  25 2.50  19 2.50  21 2.51  51 2.64  12 2.64
                            53 2.64  50 2.64  55 2.64  39 2.64
  21  0.870  0.702  0.136-   4 2.41  42 2.41   6 2.41  12 2.50  39 2.50  20 2.51  31 2.64  19 2.64
                            62 2.64  25 2.64  32 2.64  54 2.64
  22  0.620  0.452  0.136-  17 2.41  28 2.41  48 2.41  63 2.50  51 2.50  36 2.51  31 2.64  25 2.64
                            45 2.64  11 2.64  44 2.64   7 2.64
  23  0.284  0.870  0.312-  26 2.41  52 2.42  50 2.42  69 2.63  67 2.63  33 2.64  13 2.64  57 2.64
                             2 2.64  41 2.65  14 2.65  75 2.65
  24  0.286  0.868  0.051-  44 2.41   8 2.41  35 2.41  34 2.64   5 2.64  17 2.64  43 2.64  59 2.64
                            16 2.64
  25  0.620  0.702  0.136-  59 2.41  17 2.41  42 2.41  20 2.50  51 2.50  50 2.51  22 2.64  31 2.64
                             8 2.64  44 2.64  19 2.64  21 2.64
  26  0.202  0.035  0.226-  23 2.41  13 2.42  33 2.42  35 2.50  38 2.50   8 2.50  53 2.64  49 2.64
                            52 2.64  50 2.64  46 2.65  61 2.65
  27  0.534  0.371  0.313-  36 2.42  64 2.43  63 2.43  14 2.62  41 2.62  78 2.62  15 2.63  47 2.63
                            56 2.65  29 2.65  79 2.67  76 2.67
  28  0.537  0.368  0.051-   7 2.41  22 2.41  45 2.41  30 2.64  58 2.64  17 2.64  18 2.64  48 2.64
                            43 2.64
  29  0.536  0.119  0.311-  64 2.42  55 2.42  53 2.42  78 2.62  72 2.63  56 2.63  74 2.64   1 2.64
                            57 2.64  15 2.65  13 2.65  27 2.65
  30  0.537  0.118  0.051-  19 2.41   7 2.41  37 2.41  28 2.64  16 2.64  59 2.64  58 2.64  18 2.64
                             4 2.64
  31  0.870  0.452  0.136-  42 2.41  48 2.41  10 2.41  61 2.49  12 2.50  51 2.52  22 2.64  21 2.64
                            25 2.64  11 2.64  32 2.64  38 2.64
  32  0.120  0.452  0.136-   6 2.41  10 2.41  18 2.41  46 2.49  12 2.51  60 2.51  38 2.64  54 2.64
                            21 2.64  37 2.64  45 2.64  31 2.64
  33  0.035  0.120  0.311-  61 2.42  49 2.42  26 2.42  67 2.63  70 2.63  71 2.63   9 2.63  13 2.63
                            23 2.64  47 2.64  56 2.65   2 2.65
  34  0.037  0.118  0.051-  35 2.41  38 2.41  11 2.41  24 2.64  10 2.64  48 2.64  16 2.64  58 2.64
                             5 2.64
  35  0.120  0.952  0.136-  34 2.41   5 2.41  24 2.41  26 2.50  49 2.51  52 2.51  11 2.64  38 2.64
                            54 2.64  44 2.64   8 2.64  62 2.64
  36  0.452  0.536  0.226-  27 2.42  14 2.42  41 2.43  44 2.50  45 2.50  22 2.51  51 2.63  64 2.63
                            63 2.63  50 2.63  60 2.63  52 2.63
  37  0.370  0.202  0.136-  18 2.41  16 2.41  30 2.41  53 2.50  46 2.50  64 2.51   7 2.64  19 2.64
                             8 2.64  45 2.64  32 2.64  38 2.64
  38  0.120  0.202  0.136-  10 2.41  34 2.41  16 2.41  26 2.50  46 2.50  61 2.51   8 2.64  35 2.64
                            32 2.64  11 2.64  37 2.64  31 2.64
  39  0.952  0.785  0.226-   2 2.42   3 2.42   1 2.42  62 2.50  21 2.50  54 2.50  60 2.64  12 2.64
                            49 2.64  52 2.64  55 2.64  20 2.64
  40  0.785  0.619  0.312-  20 2.42  51 2.42  12 2.42  80 2.62  68 2.62  73 2.63   1 2.64  57 2.64
                            47 2.64   3 2.64   9 2.64  14 2.65
  41  0.286  0.619  0.312-  52 2.43  36 2.43  60 2.43  27 2.62  14 2.62  77 2.63  15 2.63  23 2.65
                             2 2.65   3 2.65  79 2.66  75 2.67
  42  0.787  0.618  0.051-  31 2.41  21 2.41  25 2.41  48 2.64  10 2.64   4 2.64   6 2.64  59 2.64
                            17 2.64
  43  0.287  0.618  0.051-  45 2.41  44 2.41  54 2.41   6 2.64  18 2.64  17 2.64   5 2.64  24 2.64
                            28 2.64
  44  0.370  0.702  0.136-  24 2.41  43 2.41  17 2.41  50 2.50  36 2.50  52 2.51  54 2.64  25 2.64
                            45 2.64   8 2.64  35 2.64  22 2.64
  45  0.370  0.452  0.136-  43 2.41  18 2.41  28 2.41  64 2.50  36 2.50  60 2.51  22 2.64  44 2.64
                            37 2.64   7 2.64  54 2.64  32 2.64
  46  0.202  0.286  0.226-  13 2.42   9 2.42  15 2.42  32 2.49  37 2.50  38 2.50  64 2.64  12 2.64
                            60 2.64  53 2.64  26 2.65  61 2.65
  47  0.784  0.370  0.312-  51 2.42  63 2.42  61 2.42  70 2.62  68 2.63  14 2.63  27 2.63  40 2.64
                            33 2.64   9 2.64  56 2.65  76 2.66
  48  0.787  0.368  0.051-  11 2.41  31 2.41  22 2.41  10 2.64  42 2.64  34 2.64  58 2.64  28 2.64
                            17 2.64
  49  0.952  0.036  0.226-   2 2.42  33 2.42  56 2.42  11 2.50  62 2.50  35 2.51  55 2.64  39 2.64
                            26 2.64  61 2.64  52 2.65  63 2.65
  50  0.452  0.785  0.226-  57 2.42  23 2.42  14 2.43  44 2.50   8 2.51  25 2.51  51 2.62  36 2.63
                            52 2.64  20 2.64  26 2.64  53 2.65
  51  0.701  0.536  0.226-  47 2.42  40 2.42  14 2.43  25 2.50  22 2.50  31 2.52  50 2.62  36 2.63
                            20 2.64  63 2.64  61 2.64  12 2.65
  52  0.203  0.785  0.226-  23 2.42   2 2.42  41 2.43  54 2.50  35 2.51  44 2.51  60 2.63  36 2.63
                            50 2.64  39 2.64  26 2.64  49 2.65
  53  0.452  0.036  0.226-  57 2.42  29 2.42  13 2.42  37 2.50   8 2.50  19 2.51  55 2.64  20 2.64
                            26 2.64  46 2.64  50 2.65  64 2.65
  54  0.120  0.702  0.136-   5 2.41   6 2.41  43 2.41  60 2.50  39 2.50  52 2.50  44 2.64  35 2.64
                            32 2.64  62 2.64  21 2.64  45 2.64
  55  0.702  0.035  0.226-  56 2.42   1 2.42  29 2.42   7 2.50  19 2.50  62 2.50  49 2.64  53 2.64
                            39 2.64  20 2.64  64 2.64  63 2.64
  56  0.784  0.119  0.311-  55 2.42  63 2.42  49 2.42  78 2.62  65 2.63  29 2.63  70 2.63   1 2.64
                             2 2.64  47 2.65  27 2.65  33 2.65
  57  0.535  0.869  0.311-  53 2.42  50 2.42  20 2.42  80 2.62  72 2.63  69 2.63  40 2.64   1 2.64
                            29 2.64  23 2.64  14 2.65  13 2.65
  58  0.787  0.118  0.051-  62 2.41  11 2.41   7 2.41   5 2.64  28 2.64  48 2.64  30 2.64  34 2.64
                             4 2.64
  59  0.537  0.868  0.051-  25 2.41  19 2.41   8 2.41  16 2.64  30 2.64  42 2.64   4 2.64  17 2.64
                            24 2.64
  60  0.203  0.536  0.226-  15 2.42   3 2.42  41 2.43  54 2.50  45 2.51  32 2.51  52 2.63  36 2.63
                            39 2.64  64 2.64  46 2.64  12 2.65
  61  0.951  0.286  0.226-  33 2.42   9 2.42  47 2.42  31 2.49  11 2.50  38 2.51  63 2.64  12 2.64
                            51 2.64  49 2.64  26 2.65  46 2.65
  62  0.870  0.952  0.136-  58 2.41   4 2.41   5 2.41  39 2.50  49 2.50  55 2.50   7 2.64  19 2.64
                            21 2.64  54 2.64  11 2.64  35 2.64
  63  0.701  0.286  0.226-  56 2.42  47 2.42  27 2.43  22 2.50   7 2.50  11 2.52  64 2.63  36 2.63
                            51 2.64  61 2.64  55 2.64  49 2.65
  64  0.452  0.286  0.226-  29 2.42  15 2.42  27 2.43  45 2.50  37 2.51   7 2.51  63 2.63  36 2.63
                            60 2.64  46 2.64  55 2.64  53 2.65
  65  0.868  0.954  0.409-  78 2.62  77 2.63  56 2.63   2 2.63  70 2.64  67 2.64   1 2.64  73 2.64
                            72 2.64
  66  0.117  0.454  0.409-  79 2.62   3 2.62  68 2.63   9 2.63  15 2.63  71 2.64  73 2.64  77 2.64
                            74 2.64
  67  0.117  0.954  0.409-  75 2.62  33 2.63  70 2.63  23 2.63   2 2.63  65 2.64  71 2.64  77 2.64
                            69 2.65
  68  0.869  0.453  0.409-  76 2.62  40 2.62  66 2.63   9 2.63  47 2.63  71 2.63  73 2.64  80 2.64
                            70 2.65
  69  0.368  0.954  0.409-  75 2.62  13 2.63  23 2.63  74 2.63  57 2.63  72 2.63  71 2.64  67 2.65
                            80 2.65
  70  0.868  0.203  0.409-  76 2.62  47 2.62  67 2.63  33 2.63  56 2.63  71 2.64  65 2.64  78 2.64
                            68 2.65
  71  0.118  0.204  0.409-   9 2.62  33 2.63  13 2.63  68 2.63  70 2.64  74 2.64  66 2.64  69 2.64
                            67 2.64
  72  0.617  0.954  0.409-  78 2.62  80 2.63  29 2.63  57 2.63  69 2.63  74 2.64   1 2.64  65 2.64
                            73 2.64
  73  0.868  0.703  0.409-  80 2.62  77 2.62   1 2.63  40 2.63   3 2.64  68 2.64  66 2.64  65 2.64
                            72 2.64
  74  0.368  0.203  0.409-  79 2.62  15 2.62  13 2.63  69 2.63  72 2.64  29 2.64  71 2.64  78 2.64
                            66 2.64
  75  0.366  0.707  0.411-  82 1.84  81 1.85  67 2.62  69 2.62  23 2.65  77 2.66  80 2.66  41 2.67
                            14 2.67  79 2.70  76 2.70
  76  0.622  0.451  0.412-  82 1.83  81 1.84  70 2.62  68 2.62  47 2.66  78 2.66  80 2.66  14 2.67
                            27 2.67  79 2.70  75 2.70
  77  0.116  0.704  0.409-   2 2.62   3 2.62  73 2.62  65 2.63  41 2.63  66 2.64  67 2.64  75 2.66
                            79 2.66
  78  0.619  0.201  0.409-  27 2.62  72 2.62  65 2.62  29 2.62  56 2.62  74 2.64  70 2.64  76 2.66
                            79 2.66
  79  0.366  0.452  0.412-  81 1.87  74 2.62  66 2.62  15 2.65  78 2.66  77 2.66  41 2.66  27 2.67
                            75 2.70  76 2.70
  80  0.619  0.704  0.409-  82 1.88  57 2.62  73 2.62  40 2.62  72 2.63  14 2.63  68 2.64  69 2.65
                            75 2.66  76 2.66
  81  0.452  0.538  0.457-  76 1.84  75 1.85  79 1.87
  82  0.534  0.619  0.457-  76 1.83  75 1.84  80 1.88
 
  LATTYP: Found a hexagonal cell.
 ALAT       =    10.5600004196
 C/A-ratio  =     2.0833332505
  
  Lattice vectors:
  
 A1 = (   5.2800002098,  -9.1452286274,   0.0000000000)
 A2 = ( -10.5600004196,   0.0000000000,   0.0000000000)
 A3 = (   0.0000000000,   0.0000000000, -22.0000000000)


Analysis of symmetry for initial positions (statically):
=====================================================================
 Subroutine PRICEL returns:
 Original cell was already a primitive cell.
 

 Routine SETGRP: Setting up the symmetry group for a 
 hexagonal supercell.


 Subroutine GETGRP returns: Found  1 space group operations
 (whereof  1 operations were pure point group operations)
 out of a pool of 24 trial point group operations.


The static configuration has the point symmetry C_1 .


Analysis of symmetry for dynamics (positions and initial velocities):
=====================================================================
 Subroutine PRICEL returns:
 Original cell was already a primitive cell.
 

 Routine SETGRP: Setting up the symmetry group for a 
 hexagonal supercell.


 Subroutine GETGRP returns: Found  1 space group operations
 (whereof  1 operations were pure point group operations)
 out of a pool of 24 trial point group operations.


The dynamic configuration has the point symmetry C_1 .


Analysis of constrained symmetry for selective dynamics:
=====================================================================
 Subroutine PRICEL returns:
 Original cell was already a primitive cell.
 

 Routine SETGRP: Setting up the symmetry group for a 
 hexagonal supercell.


 Subroutine GETGRP returns: Found  1 space group operations
 (whereof  1 operations were pure point group operations)
 out of a pool of 24 trial point group operations.


The constrained configuration has the point symmetry C_1 .


Analysis of structural, dynamic, and magnetic symmetry:
=====================================================================
 Subroutine PRICEL returns:
 Original cell was already a primitive cell.
 

 Routine SETGRP: Setting up the symmetry group for a 
 hexagonal supercell.


 Subroutine GETGRP returns: Found  1 space group operations
 (whereof  1 operations were pure point group operations)
 out of a pool of 24 trial point group operations.


The magnetic configuration has the point symmetry C_1 .


 Subroutine INISYM returns: Found  1 space group operations
 (whereof  1 operations are pure point group operations),
 and found     1 'primitive' translations

 
 
 KPOINTS: mesh auto                               

Automatic generation of k-mesh.
Space group operators:
 irot       det(A)        alpha          n_x          n_y          n_z        tau_x        tau_y        tau_z
    1     1.000000     0.000001     1.000000     0.000000     0.000000     0.000000     0.000000     0.000000
 
 Subroutine IBZKPT returns following result:
 ===========================================
 
 Found      4 irreducible k-points:
 
 Following reciprocal coordinates:
            Coordinates               Weight
  0.000000  0.000000  0.000000      1.000000
  0.500000  0.000000  0.000000      1.000000
  0.000000  0.500000  0.000000      1.000000
  0.500000  0.500000  0.000000      1.000000
 
 Following cartesian coordinates:
            Coordinates               Weight
  0.000000  0.000000  0.000000      1.000000
  0.047348 -0.027337  0.000000      1.000000
  0.000000  0.054673  0.000000      1.000000
  0.047348  0.027337  0.000000      1.000000
 


--------------------------------------------------------------------------------------------------------




 Dimension of arrays:
   k-points           NKPTS =      4   k-points in BZ     NKDIM =      4   number of bands    NBANDS=    490
   number of dos      NEDOS =    301   number of ions     NIONS =     82
   non local maximal  LDIM  =      6   non local SUM 2l+1 LMDIM =     18
   total plane-waves  NPLWV = ******
   max r-space proj   IRMAX =   7802   max aug-charges    IRDMAX=  33988
   dimension x,y,z NGX =    84 NGY =   84 NGZ =  168
   dimension x,y,z NGXF=   168 NGYF=  168 NGZF=  336
   support grid    NGXF=   168 NGYF=  168 NGZF=  336
   ions per type =              64  16   2
   NGX,Y,Z   is equivalent  to a cutoff of  13.22, 13.22, 12.70 a.u.
   NGXF,Y,Z  is equivalent  to a cutoff of  26.45, 26.45, 25.39 a.u.

 SYSTEM =  Pt111                                   
 POSCAR =  PtM\(2)                                 

 Startparameter for this run:
   NWRITE =      2    write-flag & timer
   PREC   = accura    normal or accurate (medium, high low for compatibility)
   ISTART =      0    job   : 0-new  1-cont  2-samecut
   ICHARG =      2    charge: 1-file 2-atom 10-const
   ISPIN  =      2    spin polarized calculation?
   LNONCOLLINEAR =      F non collinear calculations
   LSORBIT =      F    spin-orbit coupling
   INIWAV =      1    electr: 0-lowe 1-rand  2-diag
   LASPH  =      F    aspherical Exc in radial PAW
   METAGGA=      F    non-selfconsistent MetaGGA calc.

 Electronic Relaxation 1
   ENCUT  =  550.0 eV  40.42 Ry    6.36 a.u.  20.19 20.19 42.07*2*pi/ulx,y,z
   ENINI  =  550.0     initial cutoff
   ENAUG  =  477.8 eV  augmentation charge cutoff
   NELM   =    200;   NELMIN=  2; NELMDL= -5     # of ELM steps 
   EDIFF  = 0.1E-04   stopping-criterion for ELM
   LREAL  =      T    real-space projection
   NLSPLINE    = F    spline interpolate recip. space projectors
   LCOMPAT=      F    compatible to vasp.4.4
   GGA_COMPAT  = T    GGA compatible to vasp.4.4-vasp.4.6
   LMAXPAW     = -100 max onsite density
   LMAXMIX     =    2 max onsite mixed and CHGCAR
   VOSKOWN=      0    Vosko Wilk Nusair interpolation
   ROPT   =   -0.00025  -0.00025  -0.00025
 Ionic relaxation
   EDIFFG = -.5E-01   stopping-criterion for IOM
   NSW    =    300    number of steps for IOM
   NBLOCK =      1;   KBLOCK =    300    inner block; outer block 
   IBRION =      2    ionic relax: 0-MD 1-quasi-New 2-CG
   NFREE  =      1    steps in history (QN), initial steepest desc. (CG)
   ISIF   =      2    stress and relaxation
   IWAVPR =     11    prediction:  0-non 1-charg 2-wave 3-comb
   ISYM   =      2    0-nonsym 1-usesym 2-fastsym
   LCORR  =      T    Harris-Foulkes like correction to forces

   POTIM  = 0.5000    time-step for ionic-motion
   TEIN   =    0.0    initial temperature
   TEBEG  =    0.0;   TEEND  =   0.0 temperature during run
   SMASS  =  -3.00    Nose mass-parameter (am)
   estimated Nose-frequenzy (Omega)   =  0.10E-29 period in steps =****** mass=  -0.255E-26a.u.
   SCALEE = 1.0000    scale energy and forces
   NPACO  =    256;   APACO  = 16.0  distance and # of slots for P.C.
   PSTRESS=    0.0 pullay stress

  Mass of Ions in am
   POMASS =  58.93195.08  1.00
  Ionic Valenz
   ZVAL   =   9.00 10.00  1.00
  Atomic Wigner-Seitz radii
   RWIGS  =  -1.00 -1.00 -1.00
  virtual crystal weights 
   VCA    =   1.00  1.00  1.00
   NELECT =     738.0000    total number of electrons
   NUPDOWN=      -1.0000    fix difference up-down

 DOS related values:
   EMIN   =  10.00;   EMAX   =-10.00  energy-range for DOS
   EFERMI =   0.00
   ISMEAR =     1;   SIGMA  =   0.10  broadening in eV -4-tet -1-fermi 0-gaus

 Electronic relaxation 2 (details)
   IALGO  =     68    algorithm
   LDIAG  =      T    sub-space diagonalisation (order eigenvalues)
   LSUBROT=      F    optimize rotation matrix (better conditioning)
   TURBO    =      0    0=normal 1=particle mesh
   IRESTART =      0    0=no restart 2=restart with 2 vectors
   NREBOOT  =      0    no. of reboots
   NMIN     =      0    reboot dimension
   EREF     =   0.00    reference energy to select bands
   IMIX   =      4    mixing-type and parameters
     AMIX     =   0.40;   BMIX     =  1.00
     AMIX_MAG =   1.60;   BMIX_MAG =  1.00
     AMIN     =   0.10
     WC   =   100.;   INIMIX=   1;  MIXPRE=   1;  MAXMIX= -45

 Intra band minimization:
   WEIMIN = 0.0010     energy-eigenvalue tresh-hold
   EBREAK =  0.51E-08  absolut break condition
   DEPER  =   0.30     relativ break condition  

   TIME   =   0.40     timestep for ELM

  volume/ion in A,a.u.               =      25.91       174.85
  Fermi-wavevector in a.u.,A,eV,Ry     =   1.150800  2.174697 18.018751  1.324341
  Thomas-Fermi vector in A             =   2.287462
 
 Write flags
   LWAVE        =      F    write WAVECAR
   LDOWNSAMPLE  =      F    k-point downsampling of WAVECAR
   LCHARG       =      F    write CHGCAR
   LVTOT        =      F    write LOCPOT, total local potential
   LVHAR        =      F    write LOCPOT, Hartree potential only
   LELF         =      F    write electronic localiz. function (ELF)
   LORBIT       =      0    0 simple, 1 ext, 2 COOP (PROOUT), +10 PAW based schemes


 Dipole corrections
   LMONO  =      F    monopole corrections only (constant potential shift)
   LDIPOL =      F    correct potential (dipole corrections)
   IDIPOL =      0    1-x, 2-y, 3-z, 4-all directions 
   EPSILON=  1.0000000 bulk dielectric constant

 Exchange correlation treatment:
   GGA     =    --    GGA type
   LEXCH   =     8    internal setting for exchange type
   VOSKOWN=      0    Vosko Wilk Nusair interpolation
   LHFCALC =     F    Hartree Fock is set to
   LHFONE  =     F    Hartree Fock one center treatment
   AEXX    =    0.0000 exact exchange contribution

 Linear response parameters
   LEPSILON=     F    determine dielectric tensor
   LRPA    =     F    only Hartree local field effects (RPA)
   LNABLA  =     F    use nabla operator in PAW spheres
   LVEL    =     F    velocity operator in full k-point grid
   LINTERFAST=   F  fast interpolation
   KINTER  =     0    interpolate to denser k-point grid
   CSHIFT  =0.1000    complex shift for real part using Kramers Kronig
   OMEGAMAX=  -1.0    maximum frequency
   DEG_THRESHOLD= 0.2000000E-02 threshold for treating states as degnerate
   RTIME   =   -0.100 relaxation time in fs
  (WPLASMAI=    0.000 imaginary part of plasma frequency in eV, 0.658/RTIME)
   DFIELD  = 0.0000000 0.0000000 0.0000000 field for delta impulse in time
 
 Orbital magnetization related:
   ORBITALMAG=     F  switch on orbital magnetization
   LCHIMAG   =     F  perturbation theory with respect to B field
   DQ        =  0.001000  dq finite difference perturbation B field
   LLRAUG    =     F  two centre corrections for induced B field



--------------------------------------------------------------------------------------------------------


 conjugate gradient relaxation of ions
   using selective dynamics as specified on POSCAR
 charge density and potential will be updated during run
 spin polarized calculation
 RMM-DIIS sequential band-by-band and
  variant of blocked Davidson during initial phase
 perform sub-space diagonalisation
    before iterative eigenvector-optimisation
 modified Broyden-mixing scheme, WC =      100.0
 initial mixing is a Kerker type mixing with AMIX =  0.4000 and BMIX =      1.0000
 Hartree-type preconditioning will be used
 using additional bands          121
 real space projection scheme for non local part
 use partial core corrections
 calculate Harris-corrections to forces 
   (improved forces if not selfconsistent)
 use gradient corrections 
 use of overlap-Matrix (Vanderbilt PP)
 Methfessel and Paxton  Order N= 1 SIGMA  =   0.10


--------------------------------------------------------------------------------------------------------


  energy-cutoff  :      550.00
  volume of cell :     2124.62
      direct lattice vectors                 reciprocal lattice vectors
    10.560000420  0.000000000  0.000000000     0.094696966 -0.054673319  0.000000000
     5.280000210  9.145228627  0.000000000     0.000000000  0.109346638  0.000000000
     0.000000000  0.000000000 22.000000000     0.000000000  0.000000000  0.045454545

  length of vectors
    10.560000420 10.560000420 22.000000000     0.109346638  0.109346638  0.045454545


 
 k-points in units of 2pi/SCALE and weight: mesh auto                               
   0.00000000  0.00000000  0.00000000       0.250
   0.04734848 -0.02733666  0.00000000       0.250
   0.00000000  0.05467332  0.00000000       0.250
   0.04734848  0.02733666  0.00000000       0.250
 
 k-points in reciprocal lattice and weights: mesh auto                               
   0.00000000  0.00000000  0.00000000       0.250
   0.50000000  0.00000000  0.00000000       0.250
   0.00000000  0.50000000  0.00000000       0.250
   0.50000000  0.50000000  0.00000000       0.250
 
 position of ions in fractional coordinates (direct lattice) 
   0.78515850  0.86890956  0.31137047
   0.03459402  0.86913728  0.31148313
   0.03466983  0.61950077  0.31161141
   0.78672737  0.86796427  0.05124594
   0.03655829  0.86811559  0.05129685
   0.03663850  0.61800272  0.05132683
   0.61974581  0.20156539  0.13598422
   0.36965812  0.95165874  0.13596282
   0.03505758  0.36900903  0.31145234
   0.03659631  0.36812104  0.05134006
   0.86964458  0.20165938  0.13596857
   0.95199939  0.53575195  0.22614416
   0.28430928  0.11993331  0.31139948
   0.53444532  0.61877531  0.31251588
   0.28532719  0.37006279  0.31180885
   0.28668923  0.11816423  0.05129869
   0.53643122  0.61808880  0.05123215
   0.28654946  0.36808879  0.05135412
   0.61968552  0.95160862  0.13594574
   0.70196384  0.78532642  0.22606160
   0.86960684  0.70164345  0.13597445
   0.61967870  0.45169725  0.13595188
   0.28446991  0.87023764  0.31159985
   0.28644846  0.86814797  0.05128443
   0.61958777  0.70166494  0.13591218
   0.20223774  0.03529582  0.22598997
   0.53442258  0.37064744  0.31261739
   0.53667278  0.36796893  0.05129270
   0.53561584  0.11899125  0.31145007
   0.53667273  0.11808196  0.05128312
   0.86953476  0.45175991  0.13600323
   0.11968810  0.45163155  0.13605895
   0.03494769  0.11987982  0.31134145
   0.03670730  0.11813552  0.05129760
   0.11958412  0.95170982  0.13599964
   0.45217212  0.53557471  0.22646599
   0.36976480  0.20160926  0.13602383
   0.11971248  0.20160801  0.13602195
   0.95236129  0.78533212  0.22607893
   0.78488837  0.61939415  0.31158722
   0.28601673  0.61886669  0.31247254
   0.78661220  0.61805706  0.05124911
   0.28651464  0.61802871  0.05130543
   0.36959900  0.70170145  0.13596552
   0.36974844  0.45164511  0.13601924
   0.20246814  0.28627138  0.22611995
   0.78427286  0.36988034  0.31173062
   0.78671851  0.36806138  0.05126972
   0.95193210  0.03556156  0.22614284
   0.45226718  0.78474336  0.22643176
   0.70081092  0.53620846  0.22637606
   0.20261737  0.78491817  0.22643401
   0.45218055  0.03551250  0.22613192
   0.11964839  0.70167811  0.13601062
   0.70208050  0.03548885  0.22603210
   0.78447174  0.11900998  0.31149130
   0.53525479  0.86918957  0.31146916
   0.78671389  0.11805280  0.05126078
   0.53658682  0.86813335  0.05124811
   0.20259949  0.53621287  0.22639855
   0.95104783  0.28629241  0.22604090
   0.86955967  0.95164736  0.13596443
   0.70117822  0.28626784  0.22642450
   0.45242279  0.28629952  0.22644344
   0.86764803  0.95358364  0.40908537
   0.11706345  0.45350407  0.40890128
   0.11715346  0.95403994  0.40874868
   0.86850177  0.45344638  0.40892073
   0.36758977  0.95412534  0.40881095
   0.86841643  0.20284687  0.40871851
   0.11763848  0.20356634  0.40890737
   0.61732024  0.95369278  0.40908294
   0.86764910  0.70343421  0.40920853
   0.36751414  0.20305541  0.40876156
   0.36576581  0.70724630  0.41142991
   0.62172819  0.45129127  0.41174118
   0.11564557  0.70436832  0.40883349
   0.61866438  0.20143110  0.40887388
   0.36600504  0.45159854  0.41158507
   0.61882206  0.70436613  0.40881397
   0.45239730  0.53810588  0.45715832
   0.53445000  0.61878000  0.45700000
 
 position of ions in cartesian coordinates  (Angst):
  12.87911674  7.94637660  6.85015042
   4.95435793  7.94845917  6.85262876
   3.63707766  5.66547621  6.85545104
  12.89069282  7.93773165  1.12741065
   4.96970603  7.93911553  1.12853070
   3.64995711  5.65177617  1.12919030
   7.60878135  1.84336156  2.99165289
   8.92834820  8.70313676  2.99118200
   2.31857581  3.37467195  6.85195140
   2.33013621  3.36655108  1.12948134
  10.24820871  1.84422114  2.99130850
  12.88188439  4.89957407  4.97517148
   3.63555405  1.09681757  6.85078850
   8.91087652  5.65884165  6.87534928
   4.96698679  3.38430879  6.85979465
   3.65134558  1.08063889  1.12857113
   8.92822296  5.65256340  1.12710731
   4.96947128  3.36625614  1.12979070
  11.56837308  8.70267838  2.99080638
  11.55926208  7.18198962  4.97335519
  12.88772622  6.41668978  2.99143800
   8.92876895  4.13087463  2.99094130
   7.59885728  7.95852222  6.85519678
   7.60871732  7.93941164  1.12825737
  10.24763817  6.41688629  2.99006786
   2.32199262  0.32278838  4.97177937
   7.60052116  3.38965554  6.87758249
   7.61014081  3.36515998  1.12843932
   6.28437731  1.08820214  6.85190163
   6.29073703  1.07988653  1.12822855
  11.56757982  4.13144765  2.99207102
   3.64852106  4.13027377  2.99329699
   1.00201304  1.09632832  6.84951198
   1.01138472  1.08037638  1.12854727
   6.28783640  8.70360389  2.99199201
   7.60277232  4.89795314  4.98225169
   4.96921340  1.84376278  2.99252428
   2.32865418  1.84375135  2.99248299
  14.20348933  7.18204176  4.97373656
  11.55882274  5.66450111  6.85491891
   6.28795305  5.65967741  6.87439582
  11.56996659  5.65227313  1.12748032
   6.28878646  5.65201383  1.12871950
   7.60794938  6.41722021  2.99124143
   6.28923001  4.13039782  2.99242328
   3.64957664  2.61801724  4.97463884
  10.23488999  3.38264029  6.85807364
  10.25111193  3.36600545  1.12793384
  10.24016844  0.32521860  4.97514245
   8.91938667  7.17665740  4.98149867
  10.23174442  4.90374895  4.98027337
   6.28400765  7.17825613  4.98154813
   4.96253283  0.32476989  4.97490220
   4.96834764  6.41700677  2.99223361
   7.60135153  0.32455366  4.97270611
   8.91239463  1.08837347  6.85280868
  10.24161189  7.94893735  6.85232155
   8.93101782  1.07961985  1.12773711
  10.25010137  7.93927801  1.12745837
   4.97065473  4.90378925  4.98076804
  11.55468947  2.61820951  4.97289986
  14.20724879  8.70303269  2.99121738
   8.91593658  2.61798488  4.98133891
   6.28924644  2.61827458  4.98175577
  14.19728536  8.72074036  8.99987813
   3.63069169  4.14739837  8.99582824
   6.27447162  8.72491335  8.99247099
  11.56557609  4.14687081  8.99625596
   8.91953009  8.72569435  8.99384083
  10.24150938  1.85508101  8.99180719
   2.31709270  1.86166074  8.99596224
  11.55440006  8.72173849  8.99982459
  12.87650763  6.43306664  9.00258771
   4.95308213  1.85698814  8.99275441
   7.59674769  6.46792914  9.05145793
   8.94826800  4.12716187  9.05830594
   4.94028214  6.44160931  8.99433682
   7.59665242  1.84213349  8.99522536
   6.24945374  4.12997189  9.05487160
  10.25381452  6.44158926  8.99390742
   7.61851486  4.92110133 10.05748294
   8.91095075  5.65888457 10.05400000
 


--------------------------------------------------------------------------------------------------------


 k-point  1 :   0.0000 0.0000 0.0000  plane waves:   62167
 k-point  2 :   0.5000 0.0000 0.0000  plane waves:   62242
 k-point  3 :   0.0000 0.5000 0.0000  plane waves:   62242
 k-point  4 :   0.5000 0.5000 0.0000  plane waves:   62242

 maximum and minimum number of plane-waves per node :     15586    15521

 maximum number of plane-waves:     62242
 maximum index in each direction: 
   IXMAX=   20   IYMAX=   20   IZMAX=   42
   IXMIN=  -20   IYMIN=  -20   IZMIN=  -42


 real space projection operators:
  total allocation   :      64559.52 KBytes
  max/ min on nodes  :      16144.37      16135.69


 parallel 3D FFT for wavefunctions:
    minimum data exchange during FFTs selected (reduces bandwidth)
 parallel 3D FFT for charge:
    minimum data exchange during FFTs selected (reduces bandwidth)


 total amount of memory used by VASP MPI-rank0   227955. kBytes
=======================================================================

   base      :      30000. kBytes
   nonlr-proj:      30706. kBytes
   fftplans  :      17962. kBytes
   grid      :      48722. kBytes
   one-center:        653. kBytes
   wavefun   :      99912. kBytes
 
     INWAV:  cpu time    0.0000: real time    0.0000
 Broyden mixing: mesh for mixing (old mesh)
   NGX = 41   NGY = 41   NGZ = 85
  (NGX  =168   NGY  =168   NGZ  =336)
  gives a total of 142885 points

 initial charge density was supplied:
 charge density of overlapping atoms calculated
 number of electron     738.0000000 magnetization      82.0000000
 keeping initial charge density in first step


--------------------------------------------------------------------------------------------------------


 Maximum index for non-local projection operator         1903
 Maximum index for augmentation-charges         1515 (set IRDMAX)


--------------------------------------------------------------------------------------------------------


 First call to EWALD:  gamma=   0.138
 Maximum number of real-space cells 4x 4x 2
 Maximum number of reciprocal cells 2x 2x 4

    FEWALD:  cpu time    0.0041: real time    0.0041


--------------------------------------- Iteration      1(   1)  ---------------------------------------


    POTLOK:  cpu time    0.4014: real time    0.4040
    SETDIJ:  cpu time    0.0328: real time    0.0331
     EDDAV:  cpu time   50.6914: real time   50.8436
       DOS:  cpu time    0.0019: real time    0.0022
    --------------------------------------------
      LOOP:  cpu time   51.1276: real time   51.2829

 eigenvalue-minimisations  :  7840
 total energy-change (2. order) : 0.6478945E+04  (-0.3256748E+05)
 number of electron     738.0000000 magnetization      82.0000000
 augmentation part      738.0000000 magnetization      82.0000000

 Free energy of the ion-electron system (eV)
  ---------------------------------------------------
  alpha Z        PSCENC =      1576.27060381
  Ewald energy   TEWEN  =    228332.58692450
  -Hartree energ DENC   =   -292368.59997245
  -exchange      EXHF   =         0.00000000
  -V(xc)+E(xc)   XCENC  =      1119.92562099
  PAW double counting   =     57277.87247862   -60218.75697726
  entropy T*S    EENTRO =        -0.00783320
  eigenvalues    EBANDS =      7013.50663724
  atomic energy  EATOM  =     63746.14722204
  Solvation  Ediel_sol  =         0.00000000
  ---------------------------------------------------
  free energy    TOTEN  =      6478.94470429 eV

  energy without entropy =     6478.95253749  energy(sigma->0) =     6478.94731535


--------------------------------------------------------------------------------------------------------




--------------------------------------- Iteration      1(   2)  ---------------------------------------


     EDDAV:  cpu time   50.6208: real time   50.7650
       DOS:  cpu time    0.0017: real time    0.0017
    --------------------------------------------
      LOOP:  cpu time   50.6226: real time   50.7667

 eigenvalue-minimisations  :  7840
 total energy-change (2. order) :-0.6196980E+04  (-0.5805012E+04)
 number of electron     738.0000000 magnetization      82.0000000
 augmentation part      738.0000000 magnetization      82.0000000

 Free energy of the ion-electron system (eV)
  ---------------------------------------------------
  alpha Z        PSCENC =      1576.27060381
  Ewald energy   TEWEN  =    228332.58692450
  -Hartree energ DENC   =   -292368.59997245
  -exchange      EXHF   =         0.00000000
  -V(xc)+E(xc)   XCENC  =      1119.92562099
  PAW double counting   =     57277.87247862   -60218.75697726
  entropy T*S    EENTRO =         0.00065704
  eigenvalues    EBANDS =       816.51767971
  atomic energy  EATOM  =     63746.14722204
  Solvation  Ediel_sol  =         0.00000000
  ---------------------------------------------------
  free energy    TOTEN  =       281.96423700 eV

  energy without entropy =      281.96357996  energy(sigma->0) =      281.96401798


--------------------------------------------------------------------------------------------------------




--------------------------------------- Iteration      1(   3)  ---------------------------------------


     EDDAV:  cpu time   54.1169: real time   54.2511
       DOS:  cpu time    0.0019: real time    0.0019
    --------------------------------------------
      LOOP:  cpu time   54.1189: real time   54.2530

 eigenvalue-minimisations  :  8540
 total energy-change (2. order) :-0.7817616E+03  (-0.6218071E+03)
 number of electron     738.0000000 magnetization      82.0000000
 augmentation part      738.0000000 magnetization      82.0000000

 Free energy of the ion-electron system (eV)
  ---------------------------------------------------
  alpha Z        PSCENC =      1576.27060381
  Ewald energy   TEWEN  =    228332.58692450
  -Hartree energ DENC   =   -292368.59997245
  -exchange      EXHF   =         0.00000000
  -V(xc)+E(xc)   XCENC  =      1119.92562099
  PAW double counting   =     57277.87247862   -60218.75697726
  entropy T*S    EENTRO =         0.06348374
  eigenvalues    EBANDS =        34.69322534
  atomic energy  EATOM  =     63746.14722204
  Solvation  Ediel_sol  =         0.00000000
  ---------------------------------------------------
  free energy    TOTEN  =      -499.79739067 eV

  energy without entropy =     -499.86087441  energy(sigma->0) =     -499.81855192


--------------------------------------------------------------------------------------------------------




--------------------------------------- Iteration      1(   4)  ---------------------------------------


     EDDAV:  cpu time   61.6589: real time   61.8050
       DOS:  cpu time    0.0020: real time    0.0020
    --------------------------------------------
      LOOP:  cpu time   61.6608: real time   61.8069

 eigenvalue-minimisations  : 10070
 total energy-change (2. order) :-0.9103315E+02  (-0.8049986E+02)
 number of electron     738.0000000 magnetization      82.0000000
 augmentation part      738.0000000 magnetization      82.0000000

 Free energy of the ion-electron system (eV)
  ---------------------------------------------------
  alpha Z        PSCENC =      1576.27060381
  Ewald energy   TEWEN  =    228332.58692450
  -Hartree energ DENC   =   -292368.59997245
  -exchange      EXHF   =         0.00000000
  -V(xc)+E(xc)   XCENC  =      1119.92562099
  PAW double counting   =     57277.87247862   -60218.75697726
  entropy T*S    EENTRO =         0.06829069
  eigenvalues    EBANDS =       -56.34473325
  atomic energy  EATOM  =     63746.14722204
  Solvation  Ediel_sol  =         0.00000000
  ---------------------------------------------------
  free energy    TOTEN  =      -590.83054231 eV

  energy without entropy =     -590.89883300  energy(sigma->0) =     -590.85330587


--------------------------------------------------------------------------------------------------------




--------------------------------------- Iteration      1(   5)  ---------------------------------------


     EDDAV:  cpu time   62.1979: real time   62.3451
       DOS:  cpu time    0.0019: real time    0.0019
    CHARGE:  cpu time    4.0994: real time    4.1093
    MIXING:  cpu time    0.0092: real time    0.0101
    --------------------------------------------
      LOOP:  cpu time   66.3085: real time   66.4663

 eigenvalue-minimisations  : 10190
 total energy-change (2. order) :-0.2987783E+01  (-0.2887789E+01)
 number of electron     738.0000206 magnetization      81.5940677
 augmentation part      341.2267268 magnetization      61.3412500

 Broyden mixing:
  rms(total) = 0.90047E+01    rms(broyden)= 0.90047E+01
  rms(prec ) = 0.94631E+01
  weight for this iteration     100.00

 Free energy of the ion-electron system (eV)
  ---------------------------------------------------
  alpha Z        PSCENC =      1576.27060381
  Ewald energy   TEWEN  =    228332.58692450
  -Hartree energ DENC   =   -292368.59997245
  -exchange      EXHF   =         0.00000000
  -V(xc)+E(xc)   XCENC  =      1119.92562099
  PAW double counting   =     57277.87247862   -60218.75697726
  entropy T*S    EENTRO =         0.05069774
  eigenvalues    EBANDS =       -59.31492298
  atomic energy  EATOM  =     63746.14722204
  Solvation  Ediel_sol  =         0.00000000
  ---------------------------------------------------
  free energy    TOTEN  =      -593.81832499 eV

  energy without entropy =     -593.86902273  energy(sigma->0) =     -593.83522424


--------------------------------------------------------------------------------------------------------




--------------------------------------- Iteration      1(   6)  ---------------------------------------


    POTLOK:  cpu time    0.3878: real time    0.3888
    SETDIJ:  cpu time    0.0318: real time    0.0318
    EDDIAG:  cpu time    9.1851: real time    9.2072
  RMM-DIIS:  cpu time   31.6421: real time   31.7171
    ORTHCH:  cpu time    0.9699: real time    0.9722
       DOS:  cpu time    0.0020: real time    0.0020
    CHARGE:  cpu time    4.0589: real time    4.0699
    MIXING:  cpu time    0.0099: real time    0.0268
    --------------------------------------------
      LOOP:  cpu time   46.2875: real time   46.4158

 eigenvalue-minimisations  :  7852
 total energy-change (2. order) :-0.1180933E+03  (-0.9064124E+02)
 number of electron     738.0000229 magnetization      80.8687441
 augmentation part      386.5682948 magnetization      71.2114219

 Broyden mixing:
  rms(total) = 0.17024E+02    rms(broyden)= 0.17024E+02
  rms(prec ) = 0.19777E+02
  weight for this iteration     100.00

 eigenvalues of (default mixing * dielectric matrix)
  average eigenvalue GAMMA=   0.2435
  0.2435

 Free energy of the ion-electron system (eV)
  ---------------------------------------------------
  alpha Z        PSCENC =      1576.27060381
  Ewald energy   TEWEN  =    228332.58692450
  -Hartree energ DENC   =   -291623.21154532
  -exchange      EXHF   =         0.00000000
  -V(xc)+E(xc)   XCENC  =      1070.03740147
  PAW double counting   =     62097.31786700   -64741.97877103
  entropy T*S    EENTRO =        -0.09237577
  eigenvalues    EBANDS =     -1168.98892172
  atomic energy  EATOM  =     63746.14722204
  Solvation  Ediel_sol  =         0.00000000
  ---------------------------------------------------
  free energy    TOTEN  =      -711.91159502 eV

  energy without entropy =     -711.81921925  energy(sigma->0) =     -711.88080310


--------------------------------------------------------------------------------------------------------




--------------------------------------- Iteration      1(   7)  ---------------------------------------


    POTLOK:  cpu time    0.3884: real time    0.3894
    SETDIJ:  cpu time    0.0319: real time    0.0319
    EDDIAG:  cpu time    9.1964: real time    9.2197
  RMM-DIIS:  cpu time   31.8802: real time   31.9660
    ORTHCH:  cpu time    0.9691: real time    0.9715
       DOS:  cpu time    0.0019: real time    0.0019
    CHARGE:  cpu time    4.0548: real time    4.0664
    MIXING:  cpu time    0.0099: real time    0.0100
    --------------------------------------------
      LOOP:  cpu time   46.5327: real time   46.6569

 eigenvalue-minimisations  :  7888
 total energy-change (2. order) : 0.5319837E+02  (-0.3308712E+02)
 number of electron     738.0000248 magnetization      79.2931999
 augmentation part      394.9833484 magnetization      69.0026353

 Broyden mixing:
  rms(total) = 0.14084E+02    rms(broyden)= 0.14084E+02
  rms(prec ) = 0.17422E+02
  weight for this iteration     100.00

 eigenvalues of (default mixing * dielectric matrix)
  average eigenvalue GAMMA=   0.3624
  0.6043  0.1205

 Free energy of the ion-electron system (eV)
  ---------------------------------------------------
  alpha Z        PSCENC =      1576.27060381
  Ewald energy   TEWEN  =    228332.58692450
  -Hartree energ DENC   =   -291230.73618174
  -exchange      EXHF   =         0.00000000
  -V(xc)+E(xc)   XCENC  =      1070.30480735
  PAW double counting   =     63055.89333610   -65744.23291223
  entropy T*S    EENTRO =         0.03901680
  eigenvalues    EBANDS =     -1464.98603672
  atomic energy  EATOM  =     63746.14722204
  Solvation  Ediel_sol  =         0.00000000
  ---------------------------------------------------
  free energy    TOTEN  =      -658.71322009 eV

  energy without entropy =     -658.75223690  energy(sigma->0) =     -658.72622569


--------------------------------------------------------------------------------------------------------




--------------------------------------- Iteration      1(   8)  ---------------------------------------


    POTLOK:  cpu time    0.3891: real time    0.3900
    SETDIJ:  cpu time    0.0319: real time    0.0320
    EDDIAG:  cpu time    9.2190: real time    9.2454
  RMM-DIIS:  cpu time   31.6657: real time   31.7557
    ORTHCH:  cpu time    0.9687: real time    0.9715
       DOS:  cpu time    0.0019: real time    0.0019
    CHARGE:  cpu time    4.0575: real time    4.0689
    MIXING:  cpu time    0.0105: real time    0.0106
    --------------------------------------------
      LOOP:  cpu time   46.3442: real time   46.4758

 eigenvalue-minimisations  :  7849
 total energy-change (2. order) :-0.2446633E+03  (-0.1695245E+02)
 number of electron     738.0000229 magnetization      78.4134883
 augmentation part      377.8068841 magnetization      73.0694005

 Broyden mixing:
  rms(total) = 0.22600E+02    rms(broyden)= 0.22600E+02
  rms(prec ) = 0.32832E+02
  weight for this iteration     100.00

 eigenvalues of (default mixing * dielectric matrix)
  average eigenvalue GAMMA=   0.2643
  0.6169  0.1214  0.0548

 Free energy of the ion-electron system (eV)
  ---------------------------------------------------
  alpha Z        PSCENC =      1576.27060381
  Ewald energy   TEWEN  =    228332.58692450
  -Hartree energ DENC   =   -291516.08785896
  -exchange      EXHF   =         0.00000000
  -V(xc)+E(xc)   XCENC  =      1080.41097483
  PAW double counting   =     65186.56587613   -68041.70097479
  entropy T*S    EENTRO =        -0.00013694
  eigenvalues    EBANDS =     -1267.56911622
  atomic energy  EATOM  =     63746.14722204
  Solvation  Ediel_sol  =         0.00000000
  ---------------------------------------------------
  free energy    TOTEN  =      -903.37648560 eV

  energy without entropy =     -903.37634866  energy(sigma->0) =     -903.37643995


--------------------------------------------------------------------------------------------------------




--------------------------------------- Iteration      1(   9)  ---------------------------------------


    POTLOK:  cpu time    0.3883: real time    0.3894
    SETDIJ:  cpu time    0.0319: real time    0.0319
    EDDIAG:  cpu time    9.2159: real time    9.2425
  RMM-DIIS:  cpu time   31.7803: real time   31.8709
    ORTHCH:  cpu time    0.9702: real time    0.9730
       DOS:  cpu time    0.0019: real time    0.0019
    CHARGE:  cpu time    4.0637: real time    4.0752
    MIXING:  cpu time    0.0101: real time    0.0102
    --------------------------------------------
      LOOP:  cpu time   46.4622: real time   46.5950

 eigenvalue-minimisations  :  7864
 total energy-change (2. order) : 0.3739680E+03  (-0.4759711E+01)
 number of electron     738.0000225 magnetization      77.9828840
 augmentation part      375.3202279 magnetization      61.0682586

 Broyden mixing:
  rms(total) = 0.80015E+01    rms(broyden)= 0.80014E+01
  rms(prec ) = 0.98106E+01
  weight for this iteration     100.00

 eigenvalues of (default mixing * dielectric matrix)
  average eigenvalue GAMMA=   0.3717
  0.9439  0.3738  0.0846  0.0846

 Free energy of the ion-electron system (eV)
  ---------------------------------------------------
  alpha Z        PSCENC =      1576.27060381
  Ewald energy   TEWEN  =    228332.58692450
  -Hartree energ DENC   =   -291813.90368226
  -exchange      EXHF   =         0.00000000
  -V(xc)+E(xc)   XCENC  =      1080.09382374
  PAW double counting   =     65874.04794624   -68759.31723969
  entropy T*S    EENTRO =         0.10428716
  eigenvalues    EBANDS =      -565.43838414
  atomic energy  EATOM  =     63746.14722204
  Solvation  Ediel_sol  =         0.00000000
  ---------------------------------------------------
  free energy    TOTEN  =      -529.40849861 eV

  energy without entropy =     -529.51278577  energy(sigma->0) =     -529.44326100


--------------------------------------------------------------------------------------------------------




--------------------------------------- Iteration      1(  10)  ---------------------------------------


    POTLOK:  cpu time    0.3882: real time    0.3891
    SETDIJ:  cpu time    0.0319: real time    0.0320
    EDDIAG:  cpu time    9.2759: real time    9.3023
  RMM-DIIS:  cpu time   31.8003: real time   31.8907
    ORTHCH:  cpu time    0.9669: real time    0.9696
       DOS:  cpu time    0.0020: real time    0.0020
    CHARGE:  cpu time    4.0436: real time    4.0551
    MIXING:  cpu time    0.0100: real time    0.0100
    --------------------------------------------
      LOOP:  cpu time   46.5188: real time   46.6509

 eigenvalue-minimisations  :  7860
 total energy-change (2. order) :-0.4452886E+02  (-0.1161053E+02)
 number of electron     738.0000216 magnetization      77.7969080
 augmentation part      375.6359449 magnetization      64.9289772

 Broyden mixing:
  rms(total) = 0.10932E+02    rms(broyden)= 0.10932E+02
  rms(prec ) = 0.13130E+02
  weight for this iteration     100.00

 eigenvalues of (default mixing * dielectric matrix)
  average eigenvalue GAMMA=   0.3676
  1.1070  0.3597  0.2036  0.0839  0.0839

 Free energy of the ion-electron system (eV)
  ---------------------------------------------------
  alpha Z        PSCENC =      1576.27060381
  Ewald energy   TEWEN  =    228332.58692450
  -Hartree energ DENC   =   -291777.40506440
  -exchange      EXHF   =         0.00000000
  -V(xc)+E(xc)   XCENC  =      1091.36311815
  PAW double counting   =     67343.06348742   -70274.80110418
  entropy T*S    EENTRO =         0.00155704
  eigenvalues    EBANDS =      -611.16410406
  atomic energy  EATOM  =     63746.14722204
  Solvation  Ediel_sol  =         0.00000000
  ---------------------------------------------------
  free energy    TOTEN  =      -573.93735969 eV

  energy without entropy =     -573.93891673  energy(sigma->0) =     -573.93787870


--------------------------------------------------------------------------------------------------------




--------------------------------------- Iteration      1(  11)  ---------------------------------------


    POTLOK:  cpu time    0.3902: real time    0.3913
    SETDIJ:  cpu time    0.0320: real time    0.0320
    EDDIAG:  cpu time    9.2101: real time    9.2363
  RMM-DIIS:  cpu time   31.7718: real time   31.8623
    ORTHCH:  cpu time    0.9686: real time    0.9714
       DOS:  cpu time    0.0020: real time    0.0020
    CHARGE:  cpu time    4.0758: real time    4.0873
    MIXING:  cpu time    0.0109: real time    0.0109
    --------------------------------------------
      LOOP:  cpu time   46.4613: real time   46.5935

 eigenvalue-minimisations  :  7871
 total energy-change (2. order) : 0.4020296E+02  (-0.7714951E+01)
 number of electron     738.0000230 magnetization      77.9578573
 augmentation part      378.7703915 magnetization      62.2396503

 Broyden mixing:
  rms(total) = 0.76330E+01    rms(broyden)= 0.76330E+01
  rms(prec ) = 0.88439E+01
  weight for this iteration     100.00

 eigenvalues of (default mixing * dielectric matrix)
  average eigenvalue GAMMA=   0.3887
  1.2876  0.3859  0.3859  0.0982  0.0982  0.0764

 Free energy of the ion-electron system (eV)
  ---------------------------------------------------
  alpha Z        PSCENC =      1576.27060381
  Ewald energy   TEWEN  =    228332.58692450
  -Hartree energ DENC   =   -291767.61460040
  -exchange      EXHF   =         0.00000000
  -V(xc)+E(xc)   XCENC  =      1095.84924747
  PAW double counting   =     67866.73005448   -70808.83601967
  entropy T*S    EENTRO =         0.00520236
  eigenvalues    EBANDS =      -574.87302948
  atomic energy  EATOM  =     63746.14722204
  Solvation  Ediel_sol  =         0.00000000
  ---------------------------------------------------
  free energy    TOTEN  =      -533.73439490 eV

  energy without entropy =     -533.73959726  energy(sigma->0) =     -533.73612902


--------------------------------------------------------------------------------------------------------




--------------------------------------- Iteration      1(  12)  ---------------------------------------


    POTLOK:  cpu time    0.3900: real time    0.3911
    SETDIJ:  cpu time    0.0321: real time    0.0322
    EDDIAG:  cpu time    9.2038: real time    9.2300
  RMM-DIIS:  cpu time   31.8095: real time   31.8973
    ORTHCH:  cpu time    0.9681: real time    0.9704
       DOS:  cpu time    0.0020: real time    0.0020
    CHARGE:  cpu time    4.0509: real time    4.0605
    MIXING:  cpu time    0.0105: real time    0.0106
    --------------------------------------------
      LOOP:  cpu time   46.4669: real time   46.5941

 eigenvalue-minimisations  :  7873
 total energy-change (2. order) : 0.6711062E+01  (-0.4158701E+01)
 number of electron     738.0000233 magnetization      78.1251992
 augmentation part      380.1921067 magnetization      65.1468927

 Broyden mixing:
  rms(total) = 0.81483E+01    rms(broyden)= 0.81482E+01
  rms(prec ) = 0.96440E+01
  weight for this iteration     100.00

 eigenvalues of (default mixing * dielectric matrix)
  average eigenvalue GAMMA=   0.4042
  1.4782  0.4786  0.4786  0.0840  0.0840  0.1131  0.1131

 Free energy of the ion-electron system (eV)
  ---------------------------------------------------
  alpha Z        PSCENC =      1576.27060381
  Ewald energy   TEWEN  =    228332.58692450
  -Hartree energ DENC   =   -291791.63116877
  -exchange      EXHF   =         0.00000000
  -V(xc)+E(xc)   XCENC  =      1098.39324304
  PAW double counting   =     68407.09296720   -71360.11067102
  entropy T*S    EENTRO =         0.00308742
  eigenvalues    EBANDS =      -535.77554072
  atomic energy  EATOM  =     63746.14722204
  Solvation  Ediel_sol  =         0.00000000
  ---------------------------------------------------
  free energy    TOTEN  =      -527.02333251 eV

  energy without entropy =     -527.02641993  energy(sigma->0) =     -527.02436165


--------------------------------------------------------------------------------------------------------




--------------------------------------- Iteration      1(  13)  ---------------------------------------


    POTLOK:  cpu time    0.3901: real time    0.3910
    SETDIJ:  cpu time    0.0317: real time    0.0318
    EDDIAG:  cpu time    9.1805: real time    9.2022
  RMM-DIIS:  cpu time   31.7284: real time   31.8033
    ORTHCH:  cpu time    0.9694: real time    0.9717
       DOS:  cpu time    0.0020: real time    0.0020
    CHARGE:  cpu time    4.0591: real time    4.0687
    MIXING:  cpu time    0.0125: real time    0.0125
    --------------------------------------------
      LOOP:  cpu time   46.3737: real time   46.4832

 eigenvalue-minimisations  :  7866
 total energy-change (2. order) : 0.3923075E+01  (-0.3528512E+01)
 number of electron     738.0000230 magnetization      78.2105762
 augmentation part      378.6017798 magnetization      67.4383619

 Broyden mixing:
  rms(total) = 0.76886E+01    rms(broyden)= 0.76886E+01
  rms(prec ) = 0.90602E+01
  weight for this iteration     100.00

 eigenvalues of (default mixing * dielectric matrix)
  average eigenvalue GAMMA=   0.3896
  1.5908  0.5020  0.5020  0.1349  0.1349  0.0888  0.0888  0.0751

 Free energy of the ion-electron system (eV)
  ---------------------------------------------------
  alpha Z        PSCENC =      1576.27060381
  Ewald energy   TEWEN  =    228332.58692450
  -Hartree energ DENC   =   -291851.03724502
  -exchange      EXHF   =         0.00000000
  -V(xc)+E(xc)   XCENC  =      1101.02995345
  PAW double counting   =     68980.69658630   -71947.90483337
  entropy T*S    EENTRO =         0.00993456
  eigenvalues    EBANDS =      -460.89940327
  atomic energy  EATOM  =     63746.14722204
  Solvation  Ediel_sol  =         0.00000000
  ---------------------------------------------------
  free energy    TOTEN  =      -523.10025701 eV

  energy without entropy =     -523.11019157  energy(sigma->0) =     -523.10356853


--------------------------------------------------------------------------------------------------------




--------------------------------------- Iteration      1(  14)  ---------------------------------------


    POTLOK:  cpu time    0.4074: real time    0.4083
    SETDIJ:  cpu time    0.0373: real time    0.0373
    EDDIAG:  cpu time    9.1976: real time    9.2195
  RMM-DIIS:  cpu time   31.7145: real time   31.7893
    ORTHCH:  cpu time    0.9715: real time    0.9738
       DOS:  cpu time    0.0020: real time    0.0020
    CHARGE:  cpu time    4.0762: real time    4.0859
    MIXING:  cpu time    0.0114: real time    0.0114
    --------------------------------------------
      LOOP:  cpu time   46.4178: real time   46.5277

 eigenvalue-minimisations  :  7864
 total energy-change (2. order) : 0.1660449E+02  (-0.2142310E+01)
 number of electron     738.0000230 magnetization      78.4259165
 augmentation part      379.0876776 magnetization      64.9532405

 Broyden mixing:
  rms(total) = 0.49077E+01    rms(broyden)= 0.49076E+01
  rms(prec ) = 0.54576E+01
  weight for this iteration     100.00

 eigenvalues of (default mixing * dielectric matrix)
  average eigenvalue GAMMA=   0.3572
  1.5858  0.5024  0.5024  0.1530  0.1530  0.0909  0.0909  0.0701  0.0660

 Free energy of the ion-electron system (eV)
  ---------------------------------------------------
  alpha Z        PSCENC =      1576.27060381
  Ewald energy   TEWEN  =    228332.58692450
  -Hartree energ DENC   =   -291891.04198436
  -exchange      EXHF   =         0.00000000
  -V(xc)+E(xc)   XCENC  =      1102.02242591
  PAW double counting   =     69428.96078053   -72405.56327467
  entropy T*S    EENTRO =         0.00769000
  eigenvalues    EBANDS =      -395.88615441
  atomic energy  EATOM  =     63746.14722204
  Solvation  Ediel_sol  =         0.00000000
  ---------------------------------------------------
  free energy    TOTEN  =      -506.49576665 eV

  energy without entropy =     -506.50345665  energy(sigma->0) =     -506.49832998


--------------------------------------------------------------------------------------------------------




--------------------------------------- Iteration      1(  15)  ---------------------------------------


    POTLOK:  cpu time    0.3905: real time    0.3915
    SETDIJ:  cpu time    0.0322: real time    0.0322
    EDDIAG:  cpu time    9.1787: real time    9.2005
  RMM-DIIS:  cpu time   31.7031: real time   31.7927
    ORTHCH:  cpu time    0.9898: real time    0.9926
       DOS:  cpu time    0.0020: real time    0.0020
    CHARGE:  cpu time    4.0514: real time    4.0628
    MIXING:  cpu time    0.0124: real time    0.0124
    --------------------------------------------
      LOOP:  cpu time   46.3601: real time   46.4867

 eigenvalue-minimisations  :  7861
 total energy-change (2. order) : 0.5664461E+01  (-0.4106051E+00)
 number of electron     738.0000226 magnetization      79.0551804
 augmentation part      377.8249225 magnetization      64.7975065

 Broyden mixing:
  rms(total) = 0.35687E+01    rms(broyden)= 0.35687E+01
  rms(prec ) = 0.37880E+01
  weight for this iteration     100.00

 eigenvalues of (default mixing * dielectric matrix)
  average eigenvalue GAMMA=   0.3622
  1.6513  0.5533  0.5533  0.2219  0.1704  0.1106  0.1106  0.0879  0.0879  0.0749

 Free energy of the ion-electron system (eV)
  ---------------------------------------------------
  alpha Z        PSCENC =      1576.27060381
  Ewald energy   TEWEN  =    228332.58692450
  -Hartree energ DENC   =   -291920.79429014
  -exchange      EXHF   =         0.00000000
  -V(xc)+E(xc)   XCENC  =      1101.27991986
  PAW double counting   =     69482.34646755   -72463.24683082
  entropy T*S    EENTRO =        -0.03078349
  eigenvalues    EBANDS =      -355.39053896
  atomic energy  EATOM  =     63746.14722204
  Solvation  Ediel_sol  =         0.00000000
  ---------------------------------------------------
  free energy    TOTEN  =      -500.83130566 eV

  energy without entropy =     -500.80052217  energy(sigma->0) =     -500.82104450


--------------------------------------------------------------------------------------------------------




--------------------------------------- Iteration      1(  16)  ---------------------------------------


    POTLOK:  cpu time    0.3932: real time    0.3943
    SETDIJ:  cpu time    0.0321: real time    0.0322
    EDDIAG:  cpu time    9.1994: real time    9.2259
  RMM-DIIS:  cpu time   31.7248: real time   31.8037
    ORTHCH:  cpu time    0.9695: real time    0.9717
       DOS:  cpu time    0.0020: real time    0.0020
    CHARGE:  cpu time    4.0314: real time    4.0411
    MIXING:  cpu time    0.0120: real time    0.0120
    --------------------------------------------
      LOOP:  cpu time   46.3643: real time   46.4829

 eigenvalue-minimisations  :  7864
 total energy-change (2. order) :-0.2390671E+01  (-0.1993046E+00)
 number of electron     738.0000226 magnetization      79.3218972
 augmentation part      377.1466551 magnetization      65.5548337

 Broyden mixing:
  rms(total) = 0.34735E+01    rms(broyden)= 0.34735E+01
  rms(prec ) = 0.37330E+01
  weight for this iteration     100.00

 eigenvalues of (default mixing * dielectric matrix)
  average eigenvalue GAMMA=   0.3521
  1.6805  0.5440  0.5440  0.2527  0.2527  0.1319  0.1319  0.0906  0.0906  0.0773
  0.0773

 Free energy of the ion-electron system (eV)
  ---------------------------------------------------
  alpha Z        PSCENC =      1576.27060381
  Ewald energy   TEWEN  =    228332.58692450
  -Hartree energ DENC   =   -291951.34846953
  -exchange      EXHF   =         0.00000000
  -V(xc)+E(xc)   XCENC  =      1101.65073963
  PAW double counting   =     69605.68180732   -72591.07667715
  entropy T*S    EENTRO =        -0.02287611
  eigenvalues    EBANDS =      -323.11125154
  atomic energy  EATOM  =     63746.14722204
  Solvation  Ediel_sol  =         0.00000000
  ---------------------------------------------------
  free energy    TOTEN  =      -503.22197703 eV

  energy without entropy =     -503.19910092  energy(sigma->0) =     -503.21435166


--------------------------------------------------------------------------------------------------------




--------------------------------------- Iteration      1(  17)  ---------------------------------------


    POTLOK:  cpu time    0.3934: real time    0.3943
    SETDIJ:  cpu time    0.0317: real time    0.0318
    EDDIAG:  cpu time    9.2075: real time    9.2295
  RMM-DIIS:  cpu time   31.7730: real time   31.8481
    ORTHCH:  cpu time    0.9749: real time    0.9772
       DOS:  cpu time    0.0021: real time    0.0021
    CHARGE:  cpu time    4.0386: real time    4.0483
    MIXING:  cpu time    0.0139: real time    0.0140
    --------------------------------------------
      LOOP:  cpu time   46.4352: real time   46.5452

 eigenvalue-minimisations  :  7864
 total energy-change (2. order) :-0.2866007E+00  (-0.8198699E-01)
 number of electron     738.0000226 magnetization      79.9926834
 augmentation part      377.7239275 magnetization      66.5465234

 Broyden mixing:
  rms(total) = 0.31964E+01    rms(broyden)= 0.31964E+01
  rms(prec ) = 0.33769E+01
  weight for this iteration     100.00

 eigenvalues of (default mixing * dielectric matrix)
  average eigenvalue GAMMA=   0.3787
  1.6786  0.6646  0.6646  0.4135  0.4135  0.1333  0.1333  0.0979  0.0979  0.0864
  0.0864  0.0750

 Free energy of the ion-electron system (eV)
  ---------------------------------------------------
  alpha Z        PSCENC =      1576.27060381
  Ewald energy   TEWEN  =    228332.58692450
  -Hartree energ DENC   =   -291943.31955203
[...]
   -.256E+00 0.292E+00 0.275E+04   0.261E+00 -.311E+00 -.275E+04   -.126E-01 0.628E-02 -.225E+01   0.793E-02 0.895E-02 -.441E-01
   0.150E+00 -.185E+01 0.140E+04   -.124E+00 0.178E+01 -.140E+04   0.416E-02 -.441E-02 -.181E+00   -.307E-01 0.880E-01 0.427E-02
   0.892E+00 0.141E+01 0.140E+04   -.937E+00 -.135E+01 -.140E+04   0.222E-03 0.888E-02 -.144E+00   0.349E-01 -.890E-01 -.135E-01
   0.372E+01 0.127E+01 -.126E+04   -.375E+01 -.130E+01 0.126E+04   -.320E-01 0.148E-01 0.163E+01   0.640E-01 0.154E-01 0.265E+00
   0.592E-01 0.116E+00 0.275E+04   -.666E-01 -.129E+00 -.274E+04   0.212E-01 -.500E-01 -.225E+01   -.162E-01 0.646E-01 -.823E-01
   0.118E+00 -.171E+01 0.140E+04   -.539E-01 0.165E+01 -.140E+04   -.820E-02 0.807E-02 -.173E+00   -.630E-01 0.655E-01 -.113E-01
   -.452E+00 0.232E+01 0.848E+02   0.388E+00 -.239E+01 -.847E+02   0.832E-02 0.512E-01 -.286E+00   0.573E-01 0.186E-01 0.113E+00
   0.287E+01 0.232E+01 -.126E+04   -.289E+01 -.236E+01 0.126E+04   -.132E-01 -.147E-01 0.163E+01   0.432E-01 0.411E-01 0.272E+00
   -.713E+00 0.137E+00 -.131E+04   0.682E+00 -.137E+00 0.131E+04   0.547E-01 0.426E-01 0.188E+01   -.128E-01 -.399E-01 0.330E+00
   -.970E+01 -.537E+01 -.126E+04   0.975E+01 0.538E+01 0.126E+04   -.402E-01 -.136E-01 0.162E+01   0.989E-02 0.671E-02 0.241E+00
   0.373E+00 0.316E-01 0.275E+04   -.386E+00 -.262E-01 -.275E+04   -.281E-01 0.305E-01 -.226E+01   0.385E-01 -.383E-01 -.955E-01
   0.730E-01 0.734E-01 0.275E+04   -.698E-01 -.578E-01 -.275E+04   0.120E-01 -.555E-03 -.227E+01   -.168E-01 -.149E-01 0.168E-01
   -.348E+00 -.191E+00 0.275E+04   0.307E+00 0.167E+00 -.274E+04   -.252E-01 -.257E-01 -.226E+01   0.672E-01 0.487E-01 -.220E-01
   0.101E+01 -.610E-01 0.140E+04   -.989E+00 0.887E-01 -.140E+04   0.347E-02 -.152E-02 -.171E+00   -.177E-01 -.236E-01 0.794E-02
   0.173E+01 0.143E+01 0.838E+02   -.178E+01 -.143E+01 -.837E+02   0.124E-01 0.116E-01 -.330E+00   0.419E-01 -.973E-02 0.823E-01
   0.484E+00 0.877E+00 0.140E+04   -.461E+00 -.848E+00 -.140E+04   -.188E-03 0.806E-02 -.172E+00   -.246E-01 -.267E-01 0.138E-01
   0.261E+00 -.405E+00 0.140E+04   -.222E+00 0.364E+00 -.140E+04   0.518E-02 -.162E-01 -.164E+00   -.529E-01 0.616E-01 -.649E-01
   -.968E+00 0.147E+01 -.128E+04   0.105E+01 -.163E+01 0.128E+04   -.442E-01 0.169E+00 0.162E+01   -.372E-01 -.124E-01 0.292E+00
   -.356E+00 0.229E+00 0.275E+04   0.322E+00 -.135E+00 -.275E+04   0.212E-02 0.251E-02 -.227E+01   0.352E-01 -.955E-01 -.385E-01
   0.136E+01 0.702E+00 0.140E+04   -.134E+01 -.669E+00 -.140E+04   0.156E-01 0.115E-01 -.155E+00   -.428E-01 -.427E-01 -.501E-01
   -.262E+00 -.572E+00 0.787E+02   0.276E+00 0.518E+00 -.786E+02   -.194E-01 0.700E-01 -.314E+00   0.364E-02 -.231E-01 0.145E+00
   0.290E+01 -.350E+01 -.129E+04   -.278E+01 0.368E+01 0.129E+04   -.593E-01 -.142E+00 0.169E+01   -.528E-01 -.400E-01 0.302E+00
   0.726E-01 -.646E+00 0.275E+04   -.977E-01 0.599E+00 -.275E+04   0.150E-01 -.241E-01 -.226E+01   0.773E-02 0.743E-01 0.262E-01
   -.405E+00 -.436E+01 -.126E+04   0.396E+00 0.432E+01 0.126E+04   -.650E-02 -.459E-02 0.163E+01   0.180E-01 0.433E-01 0.223E+00
   0.226E+00 -.469E+00 0.275E+04   -.255E+00 0.492E+00 -.275E+04   0.468E-02 -.233E-01 -.226E+01   0.178E-01 0.453E-02 -.560E-01
   0.151E+01 0.156E+00 0.140E+04   -.148E+01 -.228E+00 -.140E+04   0.928E-02 -.490E-02 -.144E+00   -.519E-01 0.787E-01 -.924E-03
   -.103E+01 -.102E+01 0.140E+04   0.970E+00 0.956E+00 -.140E+04   0.461E-02 0.973E-02 -.134E+00   0.596E-01 0.703E-01 0.494E-01
   -.225E+01 -.151E+01 -.127E+04   0.225E+01 0.150E+01 0.126E+04   0.979E-02 0.179E-01 0.163E+01   -.702E-02 0.432E-03 0.318E+00
   -.184E+00 -.192E+00 0.275E+04   0.172E+00 0.189E+00 -.275E+04   0.248E-01 0.968E-02 -.225E+01   -.226E-01 -.901E-02 -.104E+00
   -.124E+01 0.792E+00 0.140E+04   0.123E+01 -.701E+00 -.140E+04   0.288E-02 -.127E-01 -.173E+00   0.111E-01 -.866E-01 -.143E-01
   0.801E+00 0.533E+00 0.718E+02   -.760E+00 -.506E+00 -.716E+02   0.293E-01 0.174E-01 -.321E+00   -.677E-01 -.425E-01 -.153E-01
   -.131E+01 -.737E+00 0.140E+04   0.123E+01 0.701E+00 -.140E+04   0.717E-02 0.442E-03 -.135E+00   0.843E-01 0.386E-01 0.429E-01
   0.169E+01 0.574E+00 0.140E+04   -.173E+01 -.610E+00 -.140E+04   -.464E-02 0.131E-02 -.107E+00   0.806E-02 0.230E-01 0.173E-01
   -.135E+01 0.189E+01 0.863E+02   0.138E+01 -.184E+01 -.862E+02   -.360E-01 0.392E-01 -.322E+00   0.318E-02 -.803E-01 0.136E+00
   0.673E+01 0.684E+00 -.127E+04   -.694E+01 -.619E+00 0.127E+04   0.110E+00 -.593E-01 0.164E+01   0.970E-01 -.561E-02 0.223E+00
   -.140E+01 0.455E+01 -.129E+04   0.163E+01 -.452E+01 0.129E+04   -.164E+00 0.335E-01 0.169E+01   -.573E-01 -.630E-01 0.304E+00
   0.599E+00 0.223E+00 0.275E+04   -.577E+00 -.251E+00 -.275E+04   0.251E-01 0.142E-01 -.227E+01   -.523E-01 0.133E-01 -.352E-01
   -.391E+00 0.182E+00 0.275E+04   0.339E+00 -.168E+00 -.275E+04   -.931E-02 0.180E-01 -.226E+01   0.612E-01 -.315E-01 0.259E-01
   -.262E+00 0.351E+00 0.140E+04   0.249E+00 -.280E+00 -.140E+04   -.112E-01 0.149E-01 -.165E+00   0.202E-01 -.889E-01 -.678E-01
   -.849E+00 -.539E+00 0.140E+04   0.829E+00 0.523E+00 -.140E+04   -.785E-02 -.206E-02 -.152E+00   0.464E-01 0.332E-01 0.389E-02
   0.730E+00 0.314E+00 0.904E+02   -.811E+00 -.390E+00 -.903E+02   0.313E-01 0.224E-01 -.318E+00   0.528E-01 0.523E-01 0.190E+00
   0.824E+00 -.194E+01 -.128E+04   -.931E+00 0.207E+01 0.128E+04   0.114E+00 -.103E+00 0.162E+01   -.911E-02 -.302E-01 0.282E+00
   0.411E+00 -.411E+00 0.275E+04   -.357E+00 0.342E+00 -.275E+04   0.118E-02 -.108E-01 -.227E+01   -.587E-01 0.829E-01 -.270E-01
   -.169E+01 -.140E+01 0.867E+02   0.175E+01 0.144E+01 -.867E+02   -.565E-01 -.241E-01 -.316E+00   -.988E-02 -.103E-01 0.133E+00
   0.167E+00 -.882E+00 0.744E+02   -.206E+00 0.875E+00 -.742E+02   0.279E-01 0.683E-02 -.319E+00   0.147E-01 -.904E-03 0.231E-01
   -.887E+00 0.957E+00 0.739E+02   0.837E+00 -.980E+00 -.737E+02   0.177E-01 0.261E-01 -.321E+00   0.356E-01 -.474E-02 0.271E-01
   -.118E+01 0.207E+00 0.767E+02   0.125E+01 -.154E+00 -.766E+02   -.342E-01 0.581E-02 -.311E+00   -.261E-01 -.647E-01 0.871E-01
   0.169E+01 -.157E+01 0.849E+02   -.179E+01 0.154E+01 -.848E+02   0.434E-01 -.126E-01 -.288E+00   0.557E-01 0.302E-01 0.111E+00
   -.113E+01 0.995E+00 0.140E+04   0.109E+01 -.920E+00 -.140E+04   -.571E-02 0.904E-02 -.183E+00   0.476E-01 -.808E-01 0.690E-02
   0.410E+00 -.204E+01 0.857E+02   -.375E+00 0.205E+01 -.856E+02   0.151E-01 -.401E-01 -.320E+00   -.424E-01 0.240E-01 0.138E+00
   0.328E+00 -.461E+01 -.126E+04   -.286E+00 0.460E+01 0.126E+04   -.149E-01 0.366E-02 0.166E+01   -.233E-01 0.352E-02 0.309E+00
   0.351E+01 0.570E+01 -.127E+04   -.358E+01 -.589E+01 0.127E+04   -.190E-02 0.139E+00 0.164E+01   0.638E-01 0.392E-01 0.234E+00
   -.291E-01 -.565E+00 0.275E+04   0.523E-01 0.611E+00 -.275E+04   0.788E-02 -.629E-01 -.227E+01   -.336E-01 0.264E-01 -.615E-01
   0.686E+00 0.266E+00 0.275E+04   -.709E+00 -.212E+00 -.275E+04   0.262E-01 0.967E-02 -.228E+01   -.106E-01 -.629E-01 -.460E-01
   -.453E+00 0.113E+01 0.769E+02   0.533E+00 -.112E+01 -.768E+02   -.778E-01 0.307E-01 -.316E+00   0.218E-02 -.387E-01 0.111E+00
   -.549E+00 0.119E+00 0.788E+02   0.512E+00 -.107E+00 -.787E+02   0.491E-01 -.473E-01 -.315E+00   -.151E-01 0.302E-01 0.141E+00
   -.442E+00 -.390E+00 0.140E+04   0.474E+00 0.419E+00 -.140E+04   -.260E-02 -.318E-02 -.155E+00   -.289E-01 -.212E-01 -.562E-02
   -.808E+00 -.725E+00 0.772E+02   0.877E+00 0.744E+00 -.771E+02   -.139E-01 -.339E-01 -.309E+00   -.526E-01 0.148E-01 0.869E-01
   0.644E+00 -.777E+00 0.767E+02   -.609E+00 0.820E+00 -.766E+02   -.151E-01 -.716E-01 -.315E+00   -.192E-01 0.285E-01 0.118E+00
   0.212E+01 0.105E+01 -.292E+04   -.208E+01 -.102E+01 0.292E+04   -.669E-02 -.747E-02 0.206E+01   -.181E-01 -.239E-01 0.134E+00
   0.271E+01 -.224E+01 -.291E+04   -.274E+01 0.230E+01 0.291E+04   0.459E-01 -.112E-01 0.210E+01   -.676E-02 -.361E-01 0.112E+00
   0.312E+01 -.603E+01 -.291E+04   -.309E+01 0.608E+01 0.291E+04   0.161E-01 -.403E-01 0.206E+01   -.492E-01 0.875E-02 0.173E+00
   -.492E+01 -.596E+00 -.290E+04   0.514E+01 0.408E+00 0.290E+04   -.281E+00 0.260E+00 0.227E+01   0.577E-01 -.692E-01 0.161E+00
   -.312E+01 -.404E+01 -.290E+04   0.306E+01 0.434E+01 0.290E+04   0.907E-01 -.375E+00 0.226E+01   -.223E-01 0.730E-01 0.177E+00
   -.363E+01 0.561E+01 -.291E+04   0.368E+01 -.562E+01 0.291E+04   -.180E-01 0.294E-01 0.206E+01   -.139E-01 -.488E-01 0.158E+00
   0.291E+00 0.112E+00 -.292E+04   -.436E+00 -.191E+00 0.292E+04   0.595E-02 -.530E-03 0.199E+01   0.106E+00 0.573E-01 0.136E+00
   -.238E+01 -.394E+01 -.291E+04   0.234E+01 0.394E+01 0.291E+04   0.652E-03 -.287E-01 0.208E+01   0.399E-01 0.390E-01 0.153E+00
   -.450E+01 0.235E+00 -.291E+04   0.448E+01 -.237E+00 0.291E+04   -.249E-01 0.261E-02 0.208E+01   0.617E-01 -.111E-01 0.131E+00
   -.709E+00 0.343E+01 -.291E+04   0.760E+00 -.348E+01 0.291E+04   0.172E-01 0.412E-01 0.209E+01   -.328E-01 0.492E-02 0.119E+00
   0.109E+02 -.195E+02 -.292E+04   -.118E+02 0.212E+02 0.292E+04   0.100E+01 -.170E+01 0.222E+01   -.721E-01 -.227E-01 0.214E+00
   -.114E+02 0.198E+02 -.292E+04   0.124E+02 -.214E+02 0.292E+04   -.976E+00 0.170E+01 0.221E+01   -.490E-01 -.722E-01 0.193E+00
   0.620E+01 0.933E+00 -.290E+04   -.648E+01 -.753E+00 0.290E+04   0.277E+00 -.231E+00 0.220E+01   -.782E-02 0.320E-01 0.118E+00
   0.367E+01 0.486E+01 -.290E+04   -.367E+01 -.518E+01 0.290E+04   -.571E-01 0.342E+00 0.219E+01   0.471E-01 -.269E-01 0.115E+00
   0.196E+02 0.116E+02 -.290E+04   -.200E+02 -.118E+02 0.290E+04   0.346E+00 0.197E+00 0.813E+00   -.241E-02 -.137E-01 0.117E+00
   -.187E+02 -.106E+02 -.290E+04   0.189E+02 0.108E+02 0.290E+04   -.324E+00 -.194E+00 0.625E+00   0.815E-01 0.194E-01 0.234E+00
   -.917E+00 -.497E+00 -.352E+03   0.142E+01 0.785E+00 0.354E+03   -.491E+00 -.279E+00 -.173E+01   -.293E-02 -.201E-02 -.357E-02
   0.151E+01 0.818E+00 -.352E+03   -.209E+01 -.115E+01 0.354E+03   0.582E+00 0.327E+00 -.175E+01   -.164E-02 -.128E-02 0.735E-03
 -----------------------------------------------------------------------------------------------
   -.361E+00 0.867E-01 -.186E+02   -.400E-13 -.568E-12 -.375E-11   0.130E+00 0.144E+00 0.107E+02   0.299E+00 -.289E+00 0.770E+01
 
 
 POSITION                                       TOTAL-FORCE (eV/Angst)
 -----------------------------------------------------------------------------------
     12.88699      7.95093      6.83715        -0.006172     -0.000905     -0.000168
      4.95803      7.95500      6.84451         0.005213     -0.000768     -0.000189
      3.64353      5.66167      6.84108         0.001687     -0.003465     -0.000411
     12.89069      7.93773      1.12741        -0.010201      0.002313      0.008468
      4.96971      7.93912      1.12853         0.004782     -0.003651     -0.000154
      3.64996      5.65178      1.12919        -0.001222     -0.003649     -0.003982
      7.60878      1.84336      2.99165        -0.001272      0.009431     -0.015830
      8.92835      8.70314      2.99118        -0.011142     -0.011086      0.009410
      2.31879      3.37518      6.84399         0.003865     -0.000238     -0.005238
      2.33014      3.36655      1.12948        -0.003417      0.003069     -0.001295
     10.24821      1.84422      2.99131        -0.007360      0.011892     -0.005421
     12.87840      4.90046      4.96914         0.000807     -0.003442      0.001764
      3.63890      1.08876      6.84429         0.005925     -0.004274     -0.006083
      8.91933      5.66288      6.89128         0.004543      0.000281      0.002186
      4.93992      3.36462      6.83713         0.015856      0.004544      0.007350
      3.65135      1.08064      1.12857        -0.003007     -0.001788      0.001354
      8.92822      5.65256      1.12711        -0.002490      0.000943      0.005465
      4.96947      3.36626      1.12979        -0.000284     -0.000416     -0.010339
     11.56837      8.70268      2.99081         0.002524      0.003661     -0.027083
     11.55898      7.18403      4.97086         0.000275     -0.001616      0.002297
     12.88773      6.41669      2.99144        -0.002727      0.011033     -0.029039
      8.92877      4.13087      2.99094        -0.009623      0.005046     -0.001422
      7.60162      7.92624      6.86598         0.001762     -0.002043     -0.001860
      7.60872      7.93941      1.12826         0.002773      0.002529     -0.007666
     10.24764      6.41689      2.99007        -0.006746      0.001918      0.005480
      2.32098      0.31205      4.97496        -0.001718     -0.005787      0.003642
      7.60673      3.39343      6.87508         0.004083      0.007714     -0.000010
      7.61014      3.36516      1.12844        -0.003264      0.004205     -0.000883
      6.28189      1.09151      6.84207         0.001739     -0.002414     -0.004494
      6.29074      1.07989      1.12823        -0.007852      0.005042     -0.002440
     11.56758      4.13145      2.99207        -0.017185      0.002045      0.006491
      3.64852      4.13027      2.99330         0.004543      0.017594     -0.001277
      0.99847      1.08817      6.84610         0.003325      0.002726      0.004830
      1.01138      1.08038      1.12855        -0.010331     -0.001629     -0.001156
      6.28784      8.70360      2.99199         0.003409     -0.007917     -0.007511
      7.61024      4.90300      4.98564         0.000398      0.001010      0.021390
      4.96921      1.84376      2.99252         0.010850      0.003632      0.001467
      2.32865      1.84375      2.99248        -0.029789     -0.010780      0.018507
     14.20428      7.18400      4.96774         0.004381      0.002050     -0.002293
     11.56482      5.66523      6.84642        -0.009952     -0.000783     -0.000111
      6.29885      5.66052      6.87585         0.011479     -0.009970     -0.005220
     11.56997      5.65227      1.12748        -0.006169      0.000136     -0.001951
      6.28879      5.65201      1.12872        -0.001400      0.001079     -0.003980
      7.60795      6.41722      2.99124        -0.005196     -0.002708     -0.000838
      6.28923      4.13040      2.99242         0.017128      0.015862      0.003268
      3.63891      2.60926      4.96007         0.001733     -0.000394      0.005486
     10.22181      3.38870      6.86581        -0.001370      0.002202     -0.007520
     10.25111      3.36601      1.12793        -0.003610      0.004547     -0.004445
     10.24478      0.32646      4.96665        -0.000809     -0.001248      0.000461
      8.91958      7.17192      4.98243         0.003541      0.001563      0.016765
     10.22979      4.90380      4.98284         0.004950     -0.001038      0.014734
      6.28393      7.17663      4.97889         0.002863     -0.004004      0.012313
      4.96235      0.32108      4.96897         0.001456     -0.003097      0.002987
      4.96835      6.41701      2.99223         0.000904      0.004105     -0.019100
      7.60177      0.32801      4.96868         0.006625     -0.002468     -0.004167
      8.92482      1.08703      6.84306         0.003963     -0.002622     -0.003418
     10.24367      7.95183      6.84677        -0.003667     -0.013478     -0.001895
      8.93102      1.07962      1.12774        -0.003334      0.010612      0.002545
     10.25010      7.93928      1.12746        -0.008263      0.001037     -0.004899
      4.97770      4.90246      4.97761         0.002141     -0.001615      0.004702
     11.54959      2.61776      4.97488        -0.003335     -0.003892      0.001733
     14.20725      8.70303      2.99122         0.000390      0.005310     -0.031800
      8.91580      2.61907      4.97850         0.002037     -0.000744      0.008511
      6.29344      2.62278      4.97771        -0.000659     -0.001261      0.004080
     14.20617      8.71872      8.99168         0.018750      0.008271     -0.006074
      3.62914      4.13737      8.97888         0.019211      0.022456      0.004264
      6.27772      8.72232      8.99100        -0.003707      0.020659     -0.003571
     11.57537      4.13235      8.98093         0.001804     -0.001971      0.002108
      8.91868      8.73284      8.98145         0.003213     -0.002969      0.002093
     10.24494      1.85099      8.98991         0.018714     -0.019273     -0.005362
      2.31897      1.85541      8.98671        -0.035753     -0.022520     -0.004105
     11.57092      8.72480      8.97805        -0.000750      0.010168      0.004388
     12.89456      6.43295      8.97822         0.011149     -0.011333      0.003568
      4.95051      1.84851      8.97920         0.035223      0.004476      0.000971
      7.58459      6.45877      9.10886         0.008362      0.010094      0.010410
      8.93812      4.11503      9.10926         0.016712     -0.003434      0.007855
      4.94925      6.44006      8.97765        -0.009515     -0.017307      0.003728
      7.60467      1.84098      8.97774        -0.016295     -0.006195      0.002273
      6.23109      4.11395      9.04709        -0.013420     -0.011557     -0.003287
     10.29417      6.46003      9.05080        -0.026340     -0.020335      0.011222
      7.39461      4.79077     10.11177         0.010631      0.007556      0.008586
      9.14750      5.79178     10.11795         0.003626     -0.000728      0.008835
 -----------------------------------------------------------------------------------
    total drift:                                0.068314     -0.057949     -0.211964


--------------------------------------------------------------------------------------------------------



  FREE ENERGIE OF THE ION-ELECTRON SYSTEM (eV)
  ---------------------------------------------------
  free  energy   TOTEN  =      -556.92630052 eV

  energy  without entropy=     -556.88510091  energy(sigma->0) =     -556.91256732
 
 d Force = 0.6435312E-03[-0.333E-03, 0.162E-02]  d Energy = 0.7296695E-03-0.861E-04
 d Force = 0.7821422E+01[ 0.781E+01, 0.784E+01]  d Ewald  = 0.7821423E+01-0.116E-05


--------------------------------------------------------------------------------------------------------


    POTLOK:  cpu time    0.5262: real time    0.5276


--------------------------------------------------------------------------------------------------------


 Conjugate gradient step on ions:
 trial-energy change:   -0.000730  1 .order   -0.000644   -0.001620    0.000333
  (g-gl).g = 0.897E-03      g.g   = 0.113E-02  gl.gl    = 0.206E-02
 g(Force)  = 0.113E-02   g(Stress)= 0.000E+00 ortho     = 0.397E-05
 gamma     =   0.43425
 trial     =   1.43352
 opt step  =   1.23468  (harmonic =   1.18934) maximal distance =0.00576492
 next E    =  -556.926323   (d E  =  -0.00075)


--------------------------------------------------------------------------------------------------------


  
 reached required accuracy - stopping structural energy minimisation
     LOOP+:  cpu time  343.3714: real time  344.3532
    4ORBIT:  cpu time    0.0000: real time    0.0000

 total amount of memory used by VASP MPI-rank0   227955. kBytes
=======================================================================

   base      :      30000. kBytes
   nonlr-proj:      30706. kBytes
   fftplans  :      17962. kBytes
   grid      :      48722. kBytes
   one-center:        653. kBytes
   wavefun   :      99912. kBytes
 
  
  
 General timing and accounting informations for this job:
 ========================================================
  
                  Total CPU time used (sec):    12835.916
                            User time (sec):    12824.916
                          System time (sec):       11.000
                         Elapsed time (sec):    12870.821
  
                   Maximum memory used (kb):      871472.
                   Average memory used (kb):           0.
  
                          Minor page faults:      3561372
                          Major page faults:            0
                 Voluntary context switches:         6055
