 vasp.5.4.4.18Apr17-6-g9f103f2a35 (build Nov 30 2020 22:55:02) complex          
  
 executed on             LinuxIFC date 2023.08.07  23:03:32
 running on   40 total cores
 distrk:  each k-point on   40 cores,    1 groups
 distr:  one band on NCORES_PER_BAND=   4 cores,   10 groups


--------------------------------------------------------------------------------------------------------


 INCAR:
 POTCAR:    PAW_PBE Pt 04Feb2005                  
 POTCAR:    PAW_PBE Pt 04Feb2005                  
   VRHFIN =Pt: s1d9                                                             
   LEXCH  = PE                                                                  
   EATOM  =   729.1176 eV,   53.5886 Ry                                         
                                                                                
   TITEL  = PAW_PBE Pt 04Feb2005                                                
   LULTRA =        F    use ultrasoft PP ?                                      
   IUNSCR =        1    unscreen: 0-lin 1-nonlin 2-no                           
   RPACOR =    2.330    partial core radius                                     
   POMASS =  195.080; ZVAL   =   10.000    mass and valenz                      
   RCORE  =    2.600    outmost cutoff radius                                   
   RWIGS  =    2.750; RWIGS  =    1.455    wigner-seitz radius (au A)           
   ENMAX  =  230.283; ENMIN  =  172.712 eV                                      
   ICORE  =        3    local potential                                         
   LCOR   =        T    correct aug charges                                     
   LPAW   =        T    paw PP                                                  
   EAUG   =  358.966                                                            
   DEXC   =    0.000                                                            
   RMAX   =    2.658    core radius for proj-oper                               
   RAUG   =    1.300    factor for augmentation sphere                          
   RDEP   =    2.761    radius for radial grids                                 
   RDEPT  =    2.203    core radius for aug-charge                              
                                                                                
   Atomic configuration                                                         
   16 entries                                                                   
     n  l   j            E        occ.                                          
     1  0  0.50    -78401.1885   2.0000                                         
     2  0  0.50    -13770.7750   2.0000                                         
     2  1  1.50    -11931.0468   6.0000                                         
     3  0  0.50     -3234.7234   2.0000                                         
     3  1  1.50     -2699.2216   6.0000                                         
     3  2  2.50     -2119.5714  10.0000                                         
     4  0  0.50      -695.1528   2.0000                                         
     4  1  1.50      -519.6034   6.0000                                         
     4  2  2.50      -306.6786  10.0000                                         
     4  3  3.50       -70.1041  14.0000                                         
     5  0  0.50      -101.7747   2.0000                                         
     5  1  1.50       -55.9873   6.0000                                         
     5  2  2.50        -6.1423   9.0000                                         
     6  0  0.50        -5.6573   1.0000                                         
     6  1  1.50        -6.8029   0.0000                                         
     5  3  2.50        -1.3606   0.0000                                         
   Description                                                                  
     l       E           TYP  RCUT    TYP  RCUT                                 
     2     -6.1423404     23  2.500                                             
     2     -7.5029230     23  2.500                                             
     0     -5.6573207     23  2.500                                             
     0      0.7416693     23  2.500                                             
     1     -2.7211652     23  2.600                                             
     1     20.4087390     23  2.600                                             
     3     -1.3605826     23  2.500                                             
  local pseudopotential read in
  partial core-charges read in
  partial kinetic energy density read in
  atomic valenz-charges read in
  non local Contribution for L=           2  read in
    real space projection operators read in
  non local Contribution for L=           2  read in
    real space projection operators read in
  non local Contribution for L=           0  read in
    real space projection operators read in
  non local Contribution for L=           0  read in
    real space projection operators read in
  non local Contribution for L=           1  read in
    real space projection operators read in
  non local Contribution for L=           1  read in
    real space projection operators read in
    PAW grid and wavefunctions read in
 
   number of l-projection  operators is LMAX  =           6
   number of lm-projection operators is LMMAX =          18
 
 Optimization of the real space projectors (new method)

 maximal supplied QI-value         = 14.36
 optimisation between [QCUT,QGAM] = [ 11.92, 23.98] = [ 39.79,161.09] Ry 
 Optimized for a Real-space Cutoff    1.49 Angstroem

   l    n(q)    QCUT    max X(q) W(low)/X(q) W(high)/X(q)  e(spline) 
   2     10    11.920    66.195    0.79E-04    0.18E-03    0.24E-06
   2     10    11.920    64.643    0.81E-04    0.19E-03    0.24E-06
   0     11    11.920    95.520    0.28E-04    0.54E-04    0.18E-06
   0     11    11.920    63.403    0.27E-04    0.52E-04    0.17E-06
   1     10    11.920    19.961    0.18E-04    0.11E-03    0.23E-06
   1     10    11.920    13.289    0.25E-04    0.87E-04    0.19E-06
  PAW_PBE Pt 04Feb2005                  :
 energy of atom  1       EATOM= -729.1176
 kinetic energy error for atom=    0.0021 (will be added to EATOM!!)
 
 
 POSCAR: Pt111\(1\1\1)\(2)                       
  positions in direct lattice
  velocities in cartesian coordinates
 exchange correlation table for  LEXCH =        8
   RHO(1)=    0.500       N(1)  =     2000
   RHO(2)=  100.500       N(2)  =     4000
 


--------------------------------------------------------------------------------------------------------


 ion  position               nearest neighbor table
   1  1.000  0.000  0.056-   5 2.64   9 2.64  13 2.64  29 2.64  37 2.64  57 2.64  42 2.87  14 2.87
                            54 2.87
   2  0.333  0.167  0.178-  30 2.64  26 2.64  38 2.64  42 2.64  14 2.64   6 2.64  15 2.84   7 2.84
                            11 2.84   9 2.87  21 2.87  13 2.87
   3  0.167  0.333  0.297-  39 2.64  27 2.64  43 2.64   7 2.64  15 2.64  31 2.64  14 2.84   6 2.84
                            10 2.84  12 2.87   8 2.87  48 2.87
   4  0.000  1.000  0.419-   8 2.64  12 2.64  16 2.64  32 2.64  40 2.64  60 2.64  27 2.87   7 2.87
                            63 2.87
   5  1.000  0.250  0.056-   1 2.64  45 2.64  33 2.64   9 2.64  29 2.64  25 2.64  14 2.87  10 2.87
                            18 2.87
   6  0.333  0.417  0.178-  26 2.64  62 2.64  10 2.64  34 2.64  14 2.64   2 2.64  43 2.84   3 2.84
                            15 2.84  45 2.87  49 2.87   9 2.87
   7  0.167  0.083  0.297-  27 2.64  15 2.64   3 2.64  63 2.64  11 2.64  35 2.64  42 2.84   2 2.84
                            14 2.84  16 2.87   4 2.87  12 2.87
   8  0.000  0.250  0.419-   4 2.64  48 2.64  36 2.64  12 2.64  32 2.64  28 2.64  31 2.87   3 2.87
                            27 2.87
   9  0.250  0.250  0.056-  21 2.64  13 2.64  49 2.64   1 2.64  45 2.64   5 2.64   2 2.87  14 2.87
                             6 2.87
  10  0.083  0.417  0.178-  34 2.64   6 2.64  46 2.64  14 2.64  18 2.64  22 2.64  39 2.84  31 2.84
                             3 2.84  33 2.87  45 2.87   5 2.87
  11  0.417  0.083  0.297-  19 2.64  15 2.64   7 2.64  47 2.64  35 2.64  23 2.64  30 2.84  38 2.84
                             2 2.84  20 2.87  16 2.87  24 2.87
  12  0.250  0.250  0.419-  24 2.64  16 2.64  52 2.64   4 2.64  48 2.64   8 2.64   3 2.87  15 2.87
                             7 2.87
  13  0.250  0.000  0.056-  21 2.64   9 2.64  17 2.64   1 2.64  37 2.64  41 2.64  38 2.87   2 2.87
                            42 2.87
  14  0.083  0.167  0.178-  42 2.64  54 2.64   6 2.64   2 2.64  10 2.64  18 2.64  27 2.84   3 2.84
                             7 2.84   5 2.87   1 2.87   9 2.87
  15  0.417  0.333  0.297-  43 2.64   7 2.64   3 2.64  11 2.64  55 2.64  19 2.64  26 2.84   2 2.84
                             6 2.84  24 2.87  12 2.87  52 2.87
  16  0.250  1.000  0.419-  24 2.64  12 2.64  20 2.64   4 2.64  40 2.64  44 2.64   7 2.87  11 2.87
                            35 2.87
  17  0.500  0.000  0.056-  29 2.64  25 2.64  13 2.64  21 2.64  41 2.64  53 2.64  58 2.87  30 2.87
                            38 2.87
  18  0.833  0.167  0.178-  54 2.64  58 2.64  22 2.64  30 2.64  10 2.64  14 2.64  23 2.84  31 2.84
                            27 2.84  25 2.87  29 2.87   5 2.87
  19  0.667  0.333  0.297-  55 2.64  31 2.64  59 2.64  11 2.64  23 2.64  15 2.64  22 2.84  30 2.84
                            26 2.84  28 2.87  64 2.87  24 2.87
  20  0.500  1.000  0.419-  32 2.64  28 2.64  16 2.64  24 2.64  44 2.64  56 2.64  11 2.87  23 2.87
                            47 2.87
  21  0.500  0.250  0.056-  25 2.64  61 2.64   9 2.64  13 2.64  49 2.64  17 2.64  30 2.87   2 2.87
                            26 2.87
  22  0.833  0.417  0.178-  50 2.64  26 2.64  30 2.64  18 2.64  46 2.64  10 2.64  19 2.84  59 2.84
                            31 2.84  61 2.87  25 2.87  33 2.87
  23  0.667  0.083  0.297-  27 2.64  31 2.64  19 2.64  51 2.64  47 2.64  11 2.64  18 2.84  58 2.84
                            30 2.84  32 2.87  28 2.87  20 2.87
  24  0.500  0.250  0.419-  28 2.64  64 2.64  12 2.64  16 2.64  52 2.64  20 2.64  15 2.87  11 2.87
                            19 2.87
  25  0.750  0.250  0.056-  21 2.64  17 2.64  29 2.64  61 2.64  33 2.64   5 2.64  18 2.87  22 2.87
                            30 2.87
  26  0.583  0.417  0.178-   6 2.64   2 2.64  22 2.64  30 2.64  62 2.64  50 2.64  55 2.84  15 2.84
                            19 2.84  49 2.87  61 2.87  21 2.87
  27  0.917  0.083  0.297-  23 2.64   7 2.64   3 2.64  51 2.64  31 2.64  63 2.64  54 2.84  14 2.84
                            18 2.84   4 2.87   8 2.87  32 2.87
  28  0.750  0.250  0.419-  24 2.64  20 2.64  32 2.64  64 2.64  36 2.64   8 2.64  19 2.87  23 2.87
                            31 2.87
  29  0.750  0.000  0.056-  17 2.64  25 2.64   5 2.64  53 2.64   1 2.64  57 2.64  54 2.87  18 2.87
                            58 2.87
  30  0.583  0.167  0.178-   2 2.64  38 2.64  58 2.64  26 2.64  22 2.64  18 2.64  11 2.84  19 2.84
                            23 2.84  21 2.87  17 2.87  25 2.87
  31  0.917  0.333  0.297-  59 2.64  19 2.64  23 2.64  39 2.64   3 2.64  27 2.64  18 2.84  10 2.84
                            22 2.84   8 2.87  36 2.87  28 2.87
  32  0.750  1.000  0.419-  20 2.64  28 2.64   8 2.64  56 2.64   4 2.64  60 2.64  23 2.87  27 2.87
                            51 2.87
  33  1.000  0.500  0.056-  37 2.64  41 2.64   5 2.64  45 2.64  25 2.64  61 2.64  10 2.87  46 2.87
                            22 2.87
  34  0.333  0.667  0.178-  62 2.64  10 2.64  58 2.64  46 2.64   6 2.64  38 2.64  47 2.84  39 2.84
                            43 2.84  41 2.87  45 2.87  53 2.87
  35  0.167  0.833  0.297-  63 2.64  59 2.64   7 2.64  11 2.64  47 2.64  39 2.64  46 2.84  38 2.84
                            42 2.84  44 2.87  40 2.87  16 2.87
  36  0.000  0.500  0.419-  40 2.64  44 2.64   8 2.64  48 2.64  28 2.64  64 2.64  59 2.87  39 2.87
                            31 2.87
  37  1.000  0.750  0.056-  33 2.64  41 2.64  61 2.64  57 2.64  13 2.64   1 2.64  46 2.87  50 2.87
                            42 2.87
  38  0.333  0.917  0.178-  58 2.64  30 2.64   2 2.64  42 2.64  34 2.64  46 2.64  11 2.84  35 2.84
                            47 2.84  13 2.87  17 2.87  41 2.87
  39  0.167  0.583  0.297-   3 2.64  31 2.64  59 2.64  43 2.64  47 2.64  35 2.64  10 2.84  34 2.84
                            46 2.84  48 2.87  36 2.87  44 2.87
  40  0.000  0.750  0.419-  36 2.64  44 2.64  64 2.64  60 2.64  16 2.64   4 2.64  63 2.87  35 2.87
                            59 2.87
  41  0.250  0.750  0.056-  45 2.64  33 2.64  37 2.64  53 2.64  17 2.64  13 2.64  34 2.87  46 2.87
                            38 2.87
  42  0.083  0.917  0.178-  14 2.64   2 2.64  38 2.64  46 2.64  50 2.64  54 2.64   7 2.84  63 2.84
                            35 2.84   1 2.87  13 2.87  37 2.87
  43  0.417  0.583  0.297-  15 2.64   3 2.64  39 2.64  51 2.64  47 2.64  55 2.64  62 2.84   6 2.84
                            34 2.84  52 2.87  56 2.87  48 2.87
  44  0.250  0.750  0.419-  48 2.64  36 2.64  40 2.64  56 2.64  20 2.64  16 2.64  35 2.87  39 2.87
                            47 2.87
  45  0.250  0.500  0.056-  41 2.64  53 2.64   5 2.64   9 2.64  49 2.64  33 2.64   6 2.87  10 2.87
                            34 2.87
  46  0.083  0.667  0.178-  34 2.64  50 2.64  10 2.64  42 2.64  22 2.64  38 2.64  59 2.84  35 2.84
                            39 2.84  37 2.87  33 2.87  41 2.87
  47  0.417  0.833  0.297-  39 2.64  43 2.64  11 2.64  23 2.64  35 2.64  51 2.64  58 2.84  34 2.84
                            38 2.84  56 2.87  44 2.87  20 2.87
  48  0.250  0.500  0.419-  44 2.64  56 2.64   8 2.64  12 2.64  52 2.64  36 2.64  39 2.87   3 2.87
                            43 2.87
  49  0.500  0.500  0.056-  61 2.64  53 2.64  57 2.64  21 2.64   9 2.64  45 2.64  26 2.87   6 2.87
                            62 2.87
  50  0.833  0.667  0.178-  22 2.64  46 2.64  26 2.64  42 2.64  54 2.64  62 2.64  55 2.84  63 2.84
                            59 2.84  57 2.87  61 2.87  37 2.87
  51  0.667  0.833  0.297-  63 2.64  27 2.64  43 2.64  55 2.64  23 2.64  47 2.64  54 2.84  62 2.84
                            58 2.84  60 2.87  32 2.87  56 2.87
  52  0.500  0.500  0.419-  64 2.64  56 2.64  60 2.64  24 2.64  12 2.64  48 2.64  43 2.87  15 2.87
                            55 2.87
  53  0.500  0.750  0.056-  49 2.64  57 2.64  45 2.64  41 2.64  29 2.64  17 2.64  62 2.87  34 2.87
                            58 2.87
  54  0.833  0.917  0.178-  18 2.64  14 2.64  50 2.64  58 2.64  42 2.64  62 2.64  51 2.84  27 2.84
                            63 2.84  29 2.87   1 2.87  57 2.87
  55  0.667  0.583  0.297-  19 2.64  59 2.64  63 2.64  15 2.64  51 2.64  43 2.64  50 2.84  26 2.84
                            62 2.84  64 2.87  60 2.87  52 2.87
  56  0.500  0.750  0.419-  52 2.64  60 2.64  48 2.64  44 2.64  32 2.64  20 2.64  47 2.87  43 2.87
                            51 2.87
  57  0.750  0.750  0.056-  61 2.64  49 2.64  53 2.64  37 2.64   1 2.64  29 2.64  50 2.87  62 2.87
                            54 2.87
  58  0.583  0.917  0.178-  38 2.64  30 2.64  18 2.64  34 2.64  62 2.64  54 2.64  47 2.84  23 2.84
                            51 2.84  17 2.87  29 2.87  53 2.87
  59  0.917  0.583  0.297-  31 2.64  55 2.64  19 2.64  39 2.64  35 2.64  63 2.64  22 2.84  46 2.84
                            50 2.84  36 2.87  40 2.87  64 2.87
  60  0.750  0.750  0.419-  64 2.64  52 2.64  56 2.64  40 2.64   4 2.64  32 2.64  51 2.87  55 2.87
                            63 2.87
  61  0.750  0.500  0.056-  49 2.64  57 2.64  21 2.64  25 2.64  37 2.64  33 2.64  22 2.87  26 2.87
                            50 2.87
  62  0.583  0.667  0.178-  34 2.64   6 2.64  26 2.64  58 2.64  54 2.64  50 2.64  43 2.84  51 2.84
                            55 2.84  53 2.87  49 2.87  57 2.87
  63  0.917  0.833  0.297-  51 2.64  35 2.64  55 2.64   7 2.64  59 2.64  27 2.64  50 2.84  42 2.84
                            54 2.84  40 2.87   4 2.87  60 2.87
  64  0.750  0.500  0.419-  52 2.64  60 2.64  24 2.64  28 2.64  40 2.64  36 2.64  55 2.87  19 2.87
                            59 2.87
 
  LATTYP: Found a hexagonal cell.
 ALAT       =    10.5600004196
 C/A-ratio  =     1.8939393187
  
  Lattice vectors:
  
 A1 = (  10.5600004196,   0.0000000000,   0.0000000000)
 A2 = (  -5.2800002098,   9.1452286274,   0.0000000000)
 A3 = (   0.0000000000,   0.0000000000,  20.0000000000)


Analysis of symmetry for initial positions (statically):
=====================================================================
 Subroutine PRICEL returns following result:
 
  Warning from LATTYP: Got some problem with cell dimensions!
  Tried to take original basis but could not verify dimensions!
  LATTYP: Found a hexagonal cell.
 ALAT       =     2.6400002950
 C/A-ratio  =     7.5757567292
  
  Lattice vectors:
  
 A1 = (   1.3199997040,   2.2863075775,   0.0000000000)
 A2 = (   1.3200001686,  -2.2863075775,   0.0000000000)
 A3 = (   0.0000000000,   0.0000000000, -20.0000000000)
 
  16 primitive cells build up your supercell.
 

 Routine SETGRP: Setting up the symmetry group for a 
 hexagonal supercell.


 Subroutine GETGRP returns: Found  4 space group operations
 (whereof  2 operations were pure point group operations)
 out of a pool of 24 trial point group operations.


The static configuration has the point symmetry C_1h.
 The point group associated with its full space group is C_2h.


Analysis of symmetry for dynamics (positions and initial velocities):
=====================================================================
 Subroutine PRICEL returns following result:
 
  Warning from LATTYP: Got some problem with cell dimensions!
  Tried to take original basis but could not verify dimensions!
  LATTYP: Found a hexagonal cell.
 ALAT       =     2.6400002950
 C/A-ratio  =     7.5757567292
  
  Lattice vectors:
  
 A1 = (   1.3199997040,   2.2863075775,   0.0000000000)
 A2 = (   1.3200001686,  -2.2863075775,   0.0000000000)
 A3 = (   0.0000000000,   0.0000000000, -20.0000000000)
 
  16 primitive cells build up your supercell.
 

 Routine SETGRP: Setting up the symmetry group for a 
 hexagonal supercell.


 Subroutine GETGRP returns: Found  4 space group operations
 (whereof  2 operations were pure point group operations)
 out of a pool of 24 trial point group operations.


The dynamic configuration has the point symmetry C_1h.
 The point group associated with its full space group is C_2h.


Analysis of structural, dynamic, and magnetic symmetry:
=====================================================================
 Subroutine PRICEL returns following result:
 
  Warning from LATTYP: Got some problem with cell dimensions!
  Tried to take original basis but could not verify dimensions!
  LATTYP: Found a hexagonal cell.
 ALAT       =     2.6400002950
 C/A-ratio  =     7.5757567292
  
  Lattice vectors:
  
 A1 = (   1.3199997040,   2.2863075775,   0.0000000000)
 A2 = (   1.3200001686,  -2.2863075775,   0.0000000000)
 A3 = (   0.0000000000,   0.0000000000, -20.0000000000)
 
  16 primitive cells build up your supercell.
 

 Routine SETGRP: Setting up the symmetry group for a 
 hexagonal supercell.


 Subroutine GETGRP returns: Found  4 space group operations
 (whereof  2 operations were pure point group operations)
 out of a pool of 24 trial point group operations.


The magnetic configuration has the point symmetry C_1h.
 The point group associated with its full space group is C_2h.


 Subroutine INISYM returns: Found  4 space group operations
 (whereof  2 operations are pure point group operations),
 and found    16 'primitive' translations

 
 
 KPOINTS: mesh auto                               

Automatic generation of k-mesh.
Space group operators:
 irot       det(A)        alpha          n_x          n_y          n_z        tau_x        tau_y        tau_z
    1     1.000000     0.000000     1.000000     0.000000     0.000000     0.000000     0.000000     0.000000
    2    -1.000000   180.000000    -0.500000    -0.866025     0.000000     0.000000     0.000000     0.000000
    3    -1.000000     0.000000     1.000000     0.000000     0.000000     0.000000     0.000000    -0.525180
    4     1.000000   180.000000    -0.500000    -0.866025     0.000000    -0.000000    -0.250000    -0.525180
 
 Subroutine IBZKPT returns following result:
 ===========================================
 
 Found      3 irreducible k-points:
 
 Following reciprocal coordinates:
            Coordinates               Weight
  0.000000  0.000000  0.000000      1.000000
  0.500000 -0.000000  0.000000      2.000000
  0.500000  0.500000  0.000000      1.000000
 
 Following cartesian coordinates:
            Coordinates               Weight
  0.000000  0.000000  0.000000      1.000000
  0.047348  0.027337  0.000000      2.000000
  0.047348  0.082010  0.000000      1.000000
 


--------------------------------------------------------------------------------------------------------




 Dimension of arrays:
   k-points           NKPTS =      3   k-points in BZ     NKDIM =      3   number of bands    NBANDS=    420
   number of dos      NEDOS =    301   number of ions     NIONS =     64
   non local maximal  LDIM  =      6   non local SUM 2l+1 LMDIM =     18
   total plane-waves  NPLWV = ******
   max r-space proj   IRMAX =   8171   max aug-charges    IRDMAX=  35597
   dimension x,y,z NGX =    84 NGY =   84 NGZ =  160
   dimension x,y,z NGXF=   168 NGYF=  168 NGZF=  320
   support grid    NGXF=   168 NGYF=  168 NGZF=  320
   ions per type =              64
   NGX,Y,Z   is equivalent  to a cutoff of  13.22, 13.22, 13.30 a.u.
   NGXF,Y,Z  is equivalent  to a cutoff of  26.45, 26.45, 26.60 a.u.

 SYSTEM =  Pt111                                   
 POSCAR =  Pt111\(1\1\1)\(2)                       

 Startparameter for this run:
   NWRITE =      2    write-flag & timer
   PREC   = accura    normal or accurate (medium, high low for compatibility)
   ISTART =      0    job   : 0-new  1-cont  2-samecut
   ICHARG =      2    charge: 1-file 2-atom 10-const
   ISPIN  =      2    spin polarized calculation?
   LNONCOLLINEAR =      F non collinear calculations
   LSORBIT =      F    spin-orbit coupling
   INIWAV =      1    electr: 0-lowe 1-rand  2-diag
   LASPH  =      F    aspherical Exc in radial PAW
   METAGGA=      F    non-selfconsistent MetaGGA calc.

 Electronic Relaxation 1
   ENCUT  =  550.0 eV  40.42 Ry    6.36 a.u.  20.19 20.19 38.24*2*pi/ulx,y,z
   ENINI  =  550.0     initial cutoff
   ENAUG  =  359.0 eV  augmentation charge cutoff
   NELM   =    200;   NELMIN=  2; NELMDL= -5     # of ELM steps 
   EDIFF  = 0.1E-04   stopping-criterion for ELM
   LREAL  =      T    real-space projection
   NLSPLINE    = F    spline interpolate recip. space projectors
   LCOMPAT=      F    compatible to vasp.4.4
   GGA_COMPAT  = T    GGA compatible to vasp.4.4-vasp.4.6
   LMAXPAW     = -100 max onsite density
   LMAXMIX     =    2 max onsite mixed and CHGCAR
   VOSKOWN=      0    Vosko Wilk Nusair interpolation
   ROPT   =   -0.00025
 Ionic relaxation
   EDIFFG = -.5E-01   stopping-criterion for IOM
   NSW    =    300    number of steps for IOM
   NBLOCK =      1;   KBLOCK =    300    inner block; outer block 
   IBRION =      2    ionic relax: 0-MD 1-quasi-New 2-CG
   NFREE  =      1    steps in history (QN), initial steepest desc. (CG)
   ISIF   =      2    stress and relaxation
   IWAVPR =     11    prediction:  0-non 1-charg 2-wave 3-comb
   ISYM   =      2    0-nonsym 1-usesym 2-fastsym
   LCORR  =      T    Harris-Foulkes like correction to forces

   POTIM  = 0.5000    time-step for ionic-motion
   TEIN   =    0.0    initial temperature
   TEBEG  =    0.0;   TEEND  =   0.0 temperature during run
   SMASS  =  -3.00    Nose mass-parameter (am)
   estimated Nose-frequenzy (Omega)   =  0.10E-29 period in steps =****** mass=  -0.255E-26a.u.
   SCALEE = 1.0000    scale energy and forces
   NPACO  =    256;   APACO  = 16.0  distance and # of slots for P.C.
   PSTRESS=    0.0 pullay stress

  Mass of Ions in am
   POMASS = 195.08
  Ionic Valenz
   ZVAL   =  10.00
  Atomic Wigner-Seitz radii
   RWIGS  =  -1.00
  virtual crystal weights 
   VCA    =   1.00
   NELECT =     640.0000    total number of electrons
   NUPDOWN=      -1.0000    fix difference up-down

 DOS related values:
   EMIN   =  10.00;   EMAX   =-10.00  energy-range for DOS
   EFERMI =   0.00
   ISMEAR =     1;   SIGMA  =   0.10  broadening in eV -4-tet -1-fermi 0-gaus

 Electronic relaxation 2 (details)
   IALGO  =     68    algorithm
   LDIAG  =      T    sub-space diagonalisation (order eigenvalues)
   LSUBROT=      F    optimize rotation matrix (better conditioning)
   TURBO    =      0    0=normal 1=particle mesh
   IRESTART =      0    0=no restart 2=restart with 2 vectors
   NREBOOT  =      0    no. of reboots
   NMIN     =      0    reboot dimension
   EREF     =   0.00    reference energy to select bands
   IMIX   =      4    mixing-type and parameters
     AMIX     =   0.40;   BMIX     =  1.00
     AMIX_MAG =   1.60;   BMIX_MAG =  1.00
     AMIN     =   0.10
     WC   =   100.;   INIMIX=   1;  MIXPRE=   1;  MAXMIX= -45

 Intra band minimization:
   WEIMIN = 0.0010     energy-eigenvalue tresh-hold
   EBREAK =  0.60E-08  absolut break condition
   DEPER  =   0.30     relativ break condition  

   TIME   =   0.40     timestep for ELM

  volume/ion in A,a.u.               =      30.18       203.66
  Fermi-wavevector in a.u.,A,eV,Ry     =   1.132849  2.140774 17.460991  1.283347
  Thomas-Fermi vector in A             =   2.269551
 
 Write flags
   LWAVE        =      F    write WAVECAR
   LDOWNSAMPLE  =      F    k-point downsampling of WAVECAR
   LCHARG       =      F    write CHGCAR
   LVTOT        =      F    write LOCPOT, total local potential
   LVHAR        =      F    write LOCPOT, Hartree potential only
   LELF         =      F    write electronic localiz. function (ELF)
   LORBIT       =      0    0 simple, 1 ext, 2 COOP (PROOUT), +10 PAW based schemes


 Dipole corrections
   LMONO  =      F    monopole corrections only (constant potential shift)
   LDIPOL =      F    correct potential (dipole corrections)
   IDIPOL =      0    1-x, 2-y, 3-z, 4-all directions 
   EPSILON=  1.0000000 bulk dielectric constant

 Exchange correlation treatment:
   GGA     =    --    GGA type
   LEXCH   =     8    internal setting for exchange type
   VOSKOWN=      0    Vosko Wilk Nusair interpolation
   LHFCALC =     F    Hartree Fock is set to
   LHFONE  =     F    Hartree Fock one center treatment
   AEXX    =    0.0000 exact exchange contribution

 Linear response parameters
   LEPSILON=     F    determine dielectric tensor
   LRPA    =     F    only Hartree local field effects (RPA)
   LNABLA  =     F    use nabla operator in PAW spheres
   LVEL    =     F    velocity operator in full k-point grid
   LINTERFAST=   F  fast interpolation
   KINTER  =     0    interpolate to denser k-point grid
   CSHIFT  =0.1000    complex shift for real part using Kramers Kronig
   OMEGAMAX=  -1.0    maximum frequency
   DEG_THRESHOLD= 0.2000000E-02 threshold for treating states as degnerate
   RTIME   =   -0.100 relaxation time in fs
  (WPLASMAI=    0.000 imaginary part of plasma frequency in eV, 0.658/RTIME)
   DFIELD  = 0.0000000 0.0000000 0.0000000 field for delta impulse in time
 
 Orbital magnetization related:
   ORBITALMAG=     F  switch on orbital magnetization
   LCHIMAG   =     F  perturbation theory with respect to B field
   DQ        =  0.001000  dq finite difference perturbation B field
   LLRAUG    =     F  two centre corrections for induced B field



--------------------------------------------------------------------------------------------------------


 conjugate gradient relaxation of ions
 charge density and potential will be updated during run
 spin polarized calculation
 RMM-DIIS sequential band-by-band and
  variant of blocked Davidson during initial phase
 perform sub-space diagonalisation
    before iterative eigenvector-optimisation
 modified Broyden-mixing scheme, WC =      100.0
 initial mixing is a Kerker type mixing with AMIX =  0.4000 and BMIX =      1.0000
 Hartree-type preconditioning will be used
 using additional bands          100
 real space projection scheme for non local part
 use partial core corrections
 calculate Harris-corrections to forces 
   (improved forces if not selfconsistent)
 use gradient corrections 
 use of overlap-Matrix (Vanderbilt PP)
 Methfessel and Paxton  Order N= 1 SIGMA  =   0.10


--------------------------------------------------------------------------------------------------------


  energy-cutoff  :      550.00
  volume of cell :     1931.47
      direct lattice vectors                 reciprocal lattice vectors
    10.560000420  0.000000000  0.000000000     0.094696966  0.054673319  0.000000000
    -5.280000210  9.145228627  0.000000000     0.000000000  0.109346638  0.000000000
     0.000000000  0.000000000 20.000000000     0.000000000  0.000000000  0.050000000

  length of vectors
    10.560000420 10.560000420 20.000000000     0.109346638  0.109346638  0.050000000


 
 k-points in units of 2pi/SCALE and weight: mesh auto                               
   0.00000000  0.00000000  0.00000000       0.250
   0.04734848  0.02733666  0.00000000       0.500
   0.04734848  0.08200998  0.00000000       0.250
 
 k-points in reciprocal lattice and weights: mesh auto                               
   0.00000000  0.00000000  0.00000000       0.250
   0.50000000 -0.00000000  0.00000000       0.500
   0.50000000  0.50000000  0.00000000       0.250
 
 position of ions in fractional coordinates (direct lattice) 
   0.99999844  0.00000156  0.05579229
   0.33333173  0.16666826  0.17752397
   0.16666826  0.33333171  0.29729603
   0.00000156  0.99999844  0.41902774
   0.99999844  0.25000155  0.05579229
   0.33333172  0.41666827  0.17752397
   0.16666826  0.08333172  0.29729603
   0.00000155  0.24999844  0.41902774
   0.24999844  0.25000155  0.05579229
   0.08333172  0.41666827  0.17752397
   0.41666827  0.08333172  0.29729603
   0.25000155  0.24999844  0.41902774
   0.24999844  0.00000156  0.05579229
   0.08333172  0.16666826  0.17752397
   0.41666826  0.33333171  0.29729603
   0.25000156  0.99999844  0.41902774
   0.49999844  0.00000156  0.05579229
   0.83333168  0.16666826  0.17752397
   0.66666828  0.33333171  0.29729603
   0.50000156  0.99999844  0.41902774
   0.49999843  0.25000155  0.05579229
   0.83333168  0.41666827  0.17752397
   0.66666830  0.08333172  0.29729603
   0.50000154  0.24999844  0.41902774
   0.74999841  0.25000155  0.05579229
   0.58333168  0.41666827  0.17752397
   0.91666827  0.08333172  0.29729603
   0.75000152  0.24999844  0.41902774
   0.74999842  0.00000156  0.05579229
   0.58333166  0.16666826  0.17752397
   0.91666826  0.33333171  0.29729603
   0.75000153  0.99999844  0.41902774
   0.99999844  0.50000154  0.05579229
   0.33333171  0.66666826  0.17752397
   0.16666825  0.83333170  0.29729603
   0.00000155  0.49999843  0.41902774
   0.99999843  0.75000151  0.05579229
   0.33333173  0.91666828  0.17752397
   0.16666826  0.58333168  0.29729603
   0.00000154  0.74999840  0.41902774
   0.24999843  0.75000151  0.05579229
   0.08333173  0.91666828  0.17752397
   0.41666828  0.58333168  0.29729603
   0.25000154  0.74999840  0.41902774
   0.24999844  0.50000154  0.05579229
   0.08333171  0.66666826  0.17752397
   0.41666827  0.83333170  0.29729603
   0.25000155  0.49999843  0.41902774
   0.49999844  0.50000154  0.05579229
   0.83333171  0.66666826  0.17752397
   0.66666830  0.83333170  0.29729603
   0.50000155  0.49999843  0.41902774
   0.49999843  0.75000151  0.05579229
   0.83333170  0.91666828  0.17752397
   0.66666830  0.58333168  0.29729603
   0.50000154  0.74999840  0.41902774
   0.74999841  0.75000151  0.05579229
   0.58333168  0.91666828  0.17752397
   0.91666828  0.58333168  0.29729603
   0.75000152  0.74999840  0.41902774
   0.74999839  0.50000154  0.05579229
   0.58333166  0.66666826  0.17752397
   0.91666827  0.83333170  0.29729603
   0.75000150  0.49999843  0.41902774
 
 position of ions in cartesian coordinates  (Angst):
  10.55997578  0.00001422  1.11584590
   2.63997474  1.52421935  3.55047947
   0.00002535  3.04839473  5.94592065
  -5.27997557  9.14521440  8.38055470
   9.23997574  2.28632132  1.11584590
   1.31997457  3.81052657  3.55047947
   1.32002541  0.76208763  5.94592065
  -1.31997541  2.28629287  8.38055470
   1.31997542  2.28632132  1.11584590
  -1.32002553  3.81052657  3.55047947
   3.96002563  0.76208763  5.94592065
   1.32002469  2.28629287  8.38055470
   2.63997547  0.00001422  1.11584590
  -0.00002541  1.52421935  3.55047947
   2.64002545  3.04839473  5.94592065
  -2.63997547  9.14521440  8.38055470
   5.27997557  0.00001422  1.11584590
   7.91997448  1.52421935  3.55047947
   5.28002580  3.04839473  5.94592065
   0.00002464  9.14521440  8.38055470
   3.95997540  2.28632132  1.11584590
   6.59997431  3.81052657  3.55047947
   6.60002598  0.76208763  5.94592065
   3.96002467  2.28629287  8.38055470
   6.59997527  2.28632132  1.11584590
   3.95997420  3.81052657  3.55047947
   9.24002584  0.76208763  5.94592065
   6.60002455  2.28629287  8.38055470
   7.91997543  0.00001422  1.11584590
   5.27997414  1.52421935  3.55047947
   7.92002566  3.04839473  5.94592065
   2.64002450  9.14521440  8.38055470
   7.91997567  4.57262842  1.11584590
  -0.00002559  6.09683366  3.55047947
  -2.63997474  7.62100892  5.94592065
  -2.63997547  4.57259997  8.38055470
   6.59997574  6.85893527  1.11584590
  -1.32002553  8.38314100  3.55047947
  -1.31997445  5.33470159  5.94592065
  -3.95997540  6.85890683  8.38055470
  -1.32002457  6.85893527  1.11584590
  -3.96002563  8.38314100  3.55047947
   1.32002577  5.33470159  5.94592065
  -1.31997530  6.85890683  8.38055470
  -0.00002464  4.57262842  1.11584590
  -2.64002570  6.09683366  3.55047947
   0.00002559  7.62100892  5.94592065
   0.00002463  4.57259997  8.38055470
   2.63997546  4.57262842  1.11584590
   5.27997462  6.09683366  3.55047947
   2.64002594  7.62100892  5.94592065
   2.64002474  4.57259997  8.38055470
   1.31997553  6.85893527  1.11584590
   3.95997444  8.38314100  3.55047947
   3.96002611  5.33470159  5.94592065
   1.32002481  6.85890683  8.38055470
   3.95997540  6.85893527  1.11584590
   1.31997410  8.38314100  3.55047947
   6.60002598  5.33470159  5.94592065
   3.96002468  6.85890683  8.38055470
   5.27997509  4.57262842  1.11584590
   2.63997404  6.09683366  3.55047947
   5.28002580  7.62100892  5.94592065
   5.28002437  4.57259997  8.38055470
 


--------------------------------------------------------------------------------------------------------


 k-point  1 :   0.0000 0.0000 0.0000  plane waves:   56579
 k-point  2 :   0.5000-0.0000 0.0000  plane waves:   56606
 k-point  3 :   0.5000 0.5000 0.0000  plane waves:   56606

 maximum and minimum number of plane-waves per node :     14185    14108

 maximum number of plane-waves:     56606
 maximum index in each direction: 
   IXMAX=   20   IYMAX=   20   IZMAX=   38
   IXMIN=  -20   IYMIN=  -20   IZMIN=  -38


 real space projection operators:
  total allocation   :      71046.00 KBytes
  max/ min on nodes  :      17761.50      17761.50


 parallel 3D FFT for wavefunctions:
    minimum data exchange during FFTs selected (reduces bandwidth)
 parallel 3D FFT for charge:
    minimum data exchange during FFTs selected (reduces bandwidth)


 total amount of memory used by VASP MPI-rank0   178693. kBytes
=======================================================================

   base      :      30000. kBytes
   nonlr-proj:      30718. kBytes
   fftplans  :      17093. kBytes
   grid      :      42083. kBytes
   one-center:        497. kBytes
   wavefun   :      58302. kBytes
 
     INWAV:  cpu time    0.0000: real time    0.0000
 Broyden mixing: mesh for mixing (old mesh)
   NGX = 41   NGY = 41   NGZ = 77
  (NGX  =168   NGY  =168   NGZ  =320)
  gives a total of 129437 points

 initial charge density was supplied:
 charge density of overlapping atoms calculated
 number of electron     640.0000000 magnetization      64.0000000
 keeping initial charge density in first step


--------------------------------------------------------------------------------------------------------


 Maximum index for non-local projection operator         2015
 Maximum index for augmentation-charges         2177 (set IRDMAX)


--------------------------------------------------------------------------------------------------------


 First call to EWALD:  gamma=   0.142
 Maximum number of real-space cells 4x 4x 2
 Maximum number of reciprocal cells 2x 2x 4

    FEWALD:  cpu time    0.0033: real time    0.0033


--------------------------------------- Iteration      1(   1)  ---------------------------------------


    POTLOK:  cpu time    0.3869: real time    0.4053
    SETDIJ:  cpu time    0.0334: real time    0.0339
     EDDAV:  cpu time   31.8880: real time   31.9983
       DOS:  cpu time    0.0026: real time    0.0028
    --------------------------------------------
      LOOP:  cpu time   32.3111: real time   32.4402

 eigenvalue-minimisations  :  5040
 total energy-change (2. order) : 0.4489308E+04  (-0.3116819E+05)
 number of electron     640.0000000 magnetization      64.0000000
 augmentation part      640.0000000 magnetization      64.0000000

 Free energy of the ion-electron system (eV)
  ---------------------------------------------------
  alpha Z        PSCENC =      2015.86452450
  Ewald energy   TEWEN  =    126106.27667883
  -Hartree energ DENC   =   -177165.72901554
  -exchange      EXHF   =         0.00000000
  -V(xc)+E(xc)   XCENC  =       242.13761421
  PAW double counting   =     44546.96166755   -42737.10153268
  entropy T*S    EENTRO =        -0.00136544
  eigenvalues    EBANDS =      4817.50421198
  atomic energy  EATOM  =     46663.39518770
  Solvation  Ediel_sol  =         0.00000000
  ---------------------------------------------------
  free energy    TOTEN  =      4489.30797110 eV

  energy without entropy =     4489.30933655  energy(sigma->0) =     4489.30842625


--------------------------------------------------------------------------------------------------------




--------------------------------------- Iteration      1(   2)  ---------------------------------------


     EDDAV:  cpu time   34.6801: real time   34.7730
       DOS:  cpu time    0.0013: real time    0.0013
    --------------------------------------------
      LOOP:  cpu time   34.6813: real time   34.7743

 eigenvalue-minimisations  :  5630
 total energy-change (2. order) :-0.4624665E+04  (-0.4238341E+04)
 number of electron     640.0000000 magnetization      64.0000000
 augmentation part      640.0000000 magnetization      64.0000000

 Free energy of the ion-electron system (eV)
  ---------------------------------------------------
  alpha Z        PSCENC =      2015.86452450
  Ewald energy   TEWEN  =    126106.27667883
  -Hartree energ DENC   =   -177165.72901554
  -exchange      EXHF   =         0.00000000
  -V(xc)+E(xc)   XCENC  =       242.13761421
  PAW double counting   =     44546.96166755   -42737.10153268
  entropy T*S    EENTRO =        -0.01033512
  eigenvalues    EBANDS =       192.84794460
  atomic energy  EATOM  =     46663.39518770
  Solvation  Ediel_sol  =         0.00000000
  ---------------------------------------------------
  free energy    TOTEN  =      -135.35726596 eV

  energy without entropy =     -135.34693083  energy(sigma->0) =     -135.35382092


--------------------------------------------------------------------------------------------------------




--------------------------------------- Iteration      1(   3)  ---------------------------------------


     EDDAV:  cpu time   35.0928: real time   35.1758
       DOS:  cpu time    0.0013: real time    0.0013
    --------------------------------------------
      LOOP:  cpu time   35.0941: real time   35.1772

 eigenvalue-minimisations  :  5720
 total energy-change (2. order) :-0.2447590E+03  (-0.2264702E+03)
 number of electron     640.0000000 magnetization      64.0000000
 augmentation part      640.0000000 magnetization      64.0000000

 Free energy of the ion-electron system (eV)
  ---------------------------------------------------
  alpha Z        PSCENC =      2015.86452450
  Ewald energy   TEWEN  =    126106.27667883
  -Hartree energ DENC   =   -177165.72901554
  -exchange      EXHF   =         0.00000000
  -V(xc)+E(xc)   XCENC  =       242.13761421
  PAW double counting   =     44546.96166755   -42737.10153268
  entropy T*S    EENTRO =         0.00788898
  eigenvalues    EBANDS =       -51.92924945
  atomic energy  EATOM  =     46663.39518770
  Solvation  Ediel_sol  =         0.00000000
  ---------------------------------------------------
  free energy    TOTEN  =      -380.11623591 eV

  energy without entropy =     -380.12412488  energy(sigma->0) =     -380.11886556


--------------------------------------------------------------------------------------------------------




--------------------------------------- Iteration      1(   4)  ---------------------------------------


     EDDAV:  cpu time   36.1169: real time   36.2024
       DOS:  cpu time    0.0013: real time    0.0013
    --------------------------------------------
      LOOP:  cpu time   36.1182: real time   36.2037

 eigenvalue-minimisations  :  5940
 total energy-change (2. order) :-0.6343544E+01  (-0.6284333E+01)
 number of electron     640.0000000 magnetization      64.0000000
 augmentation part      640.0000000 magnetization      64.0000000

 Free energy of the ion-electron system (eV)
  ---------------------------------------------------
  alpha Z        PSCENC =      2015.86452450
  Ewald energy   TEWEN  =    126106.27667883
  -Hartree energ DENC   =   -177165.72901554
  -exchange      EXHF   =         0.00000000
  -V(xc)+E(xc)   XCENC  =       242.13761421
  PAW double counting   =     44546.96166755   -42737.10153268
  entropy T*S    EENTRO =        -0.00035432
  eigenvalues    EBANDS =       -58.26455034
  atomic energy  EATOM  =     46663.39518770
  Solvation  Ediel_sol  =         0.00000000
  ---------------------------------------------------
  free energy    TOTEN  =      -386.45978009 eV

  energy without entropy =     -386.45942577  energy(sigma->0) =     -386.45966198


--------------------------------------------------------------------------------------------------------




--------------------------------------- Iteration      1(   5)  ---------------------------------------


     EDDAV:  cpu time   36.4267: real time   36.5255
       DOS:  cpu time    0.0013: real time    0.0013
    CHARGE:  cpu time    2.8658: real time    2.8738
    MIXING:  cpu time    0.0108: real time    0.0114
    --------------------------------------------
      LOOP:  cpu time   39.3047: real time   39.4120

 eigenvalue-minimisations  :  5970
 total energy-change (2. order) :-0.2101235E+00  (-0.2095428E+00)
 number of electron     640.0000123 magnetization      57.8388088
 augmentation part      185.7129869 magnetization      46.5013845

 Broyden mixing:
  rms(total) = 0.10526E+02    rms(broyden)= 0.10526E+02
  rms(prec ) = 0.10630E+02
  weight for this iteration     100.00

 Free energy of the ion-electron system (eV)
  ---------------------------------------------------
  alpha Z        PSCENC =      2015.86452450
  Ewald energy   TEWEN  =    126106.27667883
  -Hartree energ DENC   =   -177165.72901554
  -exchange      EXHF   =         0.00000000
  -V(xc)+E(xc)   XCENC  =       242.13761421
  PAW double counting   =     44546.96166755   -42737.10153268
  entropy T*S    EENTRO =        -0.00104281
  eigenvalues    EBANDS =       -58.47398533
  atomic energy  EATOM  =     46663.39518770
  Solvation  Ediel_sol  =         0.00000000
  ---------------------------------------------------
  free energy    TOTEN  =      -386.66990356 eV

  energy without entropy =     -386.66886076  energy(sigma->0) =     -386.66955596


--------------------------------------------------------------------------------------------------------




--------------------------------------- Iteration      1(   6)  ---------------------------------------


    POTLOK:  cpu time    0.3749: real time    0.3759
    SETDIJ:  cpu time    0.0323: real time    0.0324
    EDDIAG:  cpu time    5.6380: real time    5.6537
  RMM-DIIS:  cpu time   20.5333: real time   20.5896
    ORTHCH:  cpu time    0.5748: real time    0.5765
       DOS:  cpu time    0.0012: real time    0.0012
    CHARGE:  cpu time    2.8597: real time    2.8675
    MIXING:  cpu time    0.0114: real time    0.0117
    --------------------------------------------
      LOOP:  cpu time   30.0255: real time   30.1084

 eigenvalue-minimisations  :  5063
 total energy-change (2. order) : 0.2684348E+02  (-0.5878518E+01)
 number of electron     640.0000130 magnetization      50.1348090
 augmentation part      195.1081601 magnetization      37.3238172

 Broyden mixing:
  rms(total) = 0.67411E+01    rms(broyden)= 0.67411E+01
  rms(prec ) = 0.70026E+01
  weight for this iteration     100.00

 eigenvalues of (default mixing * dielectric matrix)
  average eigenvalue GAMMA=   1.2907
  1.2907

 Free energy of the ion-electron system (eV)
  ---------------------------------------------------
  alpha Z        PSCENC =      2015.86452450
  Ewald energy   TEWEN  =    126106.27667883
  -Hartree energ DENC   =   -176481.77342615
  -exchange      EXHF   =         0.00000000
  -V(xc)+E(xc)   XCENC  =       230.96992753
  PAW double counting   =     50864.02073795   -49161.47208974
  entropy T*S    EENTRO =        -0.02192635
  eigenvalues    EBANDS =      -597.08603476
  atomic energy  EATOM  =     46663.39518770
  Solvation  Ediel_sol  =         0.00000000
  ---------------------------------------------------
  free energy    TOTEN  =      -359.82642050 eV

  energy without entropy =     -359.80449415  energy(sigma->0) =     -359.81911172


--------------------------------------------------------------------------------------------------------




--------------------------------------- Iteration      1(   7)  ---------------------------------------


    POTLOK:  cpu time    0.3759: real time    0.3768
    SETDIJ:  cpu time    0.0325: real time    0.0326
    EDDIAG:  cpu time    5.6265: real time    5.6421
  RMM-DIIS:  cpu time   20.3220: real time   20.3780
    ORTHCH:  cpu time    0.5437: real time    0.5453
       DOS:  cpu time    0.0013: real time    0.0013
    CHARGE:  cpu time    2.8969: real time    2.9048
    MIXING:  cpu time    0.0104: real time    0.0104
    --------------------------------------------
      LOOP:  cpu time   29.8093: real time   29.8913

 eigenvalue-minimisations  :  5052
 total energy-change (2. order) :-0.1025691E+03  (-0.1146559E+02)
 number of electron     640.0000136 magnetization      44.5176285
 augmentation part      192.7996633 magnetization      32.4898540

 Broyden mixing:
  rms(total) = 0.91617E+01    rms(broyden)= 0.91617E+01
  rms(prec ) = 0.11287E+02
  weight for this iteration     100.00

 eigenvalues of (default mixing * dielectric matrix)
  average eigenvalue GAMMA=   1.0853
  1.8242  0.3464

 Free energy of the ion-electron system (eV)
  ---------------------------------------------------
  alpha Z        PSCENC =      2015.86452450
  Ewald energy   TEWEN  =    126106.27667883
  -Hartree energ DENC   =   -177030.91612768
  -exchange      EXHF   =         0.00000000
  -V(xc)+E(xc)   XCENC  =       224.88280872
  PAW double counting   =     56591.19988974   -54952.17911586
  entropy T*S    EENTRO =        -0.01012368
  eigenvalues    EBANDS =       -80.90928583
  atomic energy  EATOM  =     46663.39518770
  Solvation  Ediel_sol  =         0.00000000
  ---------------------------------------------------
  free energy    TOTEN  =      -462.39556357 eV

  energy without entropy =     -462.38543989  energy(sigma->0) =     -462.39218901


--------------------------------------------------------------------------------------------------------




--------------------------------------- Iteration      1(   8)  ---------------------------------------


    POTLOK:  cpu time    0.3762: real time    0.3795
    SETDIJ:  cpu time    0.0321: real time    0.0322
    EDDIAG:  cpu time    5.6547: real time    5.6704
  RMM-DIIS:  cpu time   20.4258: real time   20.4819
    ORTHCH:  cpu time    0.5660: real time    0.5677
       DOS:  cpu time    0.0014: real time    0.0014
    CHARGE:  cpu time    2.8325: real time    2.8402
    MIXING:  cpu time    0.0108: real time    0.0109
    --------------------------------------------
      LOOP:  cpu time   29.8995: real time   29.9841

 eigenvalue-minimisations  :  5071
 total energy-change (2. order) : 0.1145469E+03  (-0.4991981E+01)
 number of electron     640.0000132 magnetization      41.0384519
 augmentation part      198.5432754 magnetization      29.5517388

 Broyden mixing:
  rms(total) = 0.21230E+01    rms(broyden)= 0.21230E+01
  rms(prec ) = 0.23480E+01
  weight for this iteration     100.00

 eigenvalues of (default mixing * dielectric matrix)
  average eigenvalue GAMMA=   1.0355
  2.1412  0.6297  0.3356

 Free energy of the ion-electron system (eV)
  ---------------------------------------------------
  alpha Z        PSCENC =      2015.86452450
  Ewald energy   TEWEN  =    126106.27667883
  -Hartree energ DENC   =   -176469.39937235
  -exchange      EXHF   =         0.00000000
  -V(xc)+E(xc)   XCENC  =       227.35435692
  PAW double counting   =     60043.31271997   -58446.38008487
  entropy T*S    EENTRO =        -0.06998318
  eigenvalues    EBANDS =      -488.20271847
  atomic energy  EATOM  =     46663.39518770
  Solvation  Ediel_sol  =         0.00000000
  ---------------------------------------------------
  free energy    TOTEN  =      -347.84869095 eV

  energy without entropy =     -347.77870777  energy(sigma->0) =     -347.82536323


--------------------------------------------------------------------------------------------------------




--------------------------------------- Iteration      1(   9)  ---------------------------------------


    POTLOK:  cpu time    0.3762: real time    0.3773
    SETDIJ:  cpu time    0.0328: real time    0.0329
    EDDIAG:  cpu time    5.6255: real time    5.6409
  RMM-DIIS:  cpu time   20.5035: real time   20.5596
    ORTHCH:  cpu time    0.5636: real time    0.5653
       DOS:  cpu time    0.0012: real time    0.0012
    CHARGE:  cpu time    2.8921: real time    2.9000
    MIXING:  cpu time    0.0120: real time    0.0121
    --------------------------------------------
      LOOP:  cpu time   30.0070: real time   30.0892

 eigenvalue-minimisations  :  5096
 total energy-change (2. order) :-0.3343327E+01  (-0.4820031E+00)
 number of electron     640.0000131 magnetization      36.7805995
 augmentation part      197.7370549 magnetization      26.6781649

 Broyden mixing:
  rms(total) = 0.12213E+01    rms(broyden)= 0.12213E+01
  rms(prec ) = 0.12707E+01
  weight for this iteration     100.00

 eigenvalues of (default mixing * dielectric matrix)
  average eigenvalue GAMMA=   1.0342
  2.2163  1.0168  0.3372  0.5665

 Free energy of the ion-electron system (eV)
  ---------------------------------------------------
  alpha Z        PSCENC =      2015.86452450
  Ewald energy   TEWEN  =    126106.27667883
  -Hartree energ DENC   =   -176499.51262657
  -exchange      EXHF   =         0.00000000
  -V(xc)+E(xc)   XCENC  =       226.16991467
  PAW double counting   =     60361.19587541   -58762.82258781
  entropy T*S    EENTRO =         0.03092306
  eigenvalues    EBANDS =      -461.78990726
  atomic energy  EATOM  =     46663.39518770
  Solvation  Ediel_sol  =         0.00000000
  ---------------------------------------------------
  free energy    TOTEN  =      -351.19201748 eV

  energy without entropy =     -351.22294054  energy(sigma->0) =     -351.20232517


--------------------------------------------------------------------------------------------------------




--------------------------------------- Iteration      1(  10)  ---------------------------------------


    POTLOK:  cpu time    0.3761: real time    0.3772
    SETDIJ:  cpu time    0.0328: real time    0.0328
    EDDIAG:  cpu time    5.6113: real time    5.6268
  RMM-DIIS:  cpu time   20.7976: real time   20.8545
    ORTHCH:  cpu time    0.5280: real time    0.5296
       DOS:  cpu time    0.0014: real time    0.0014
    CHARGE:  cpu time    2.8720: real time    2.8798
    MIXING:  cpu time    0.0115: real time    0.0115
    --------------------------------------------
      LOOP:  cpu time   30.2307: real time   30.3137

 eigenvalue-minimisations  :  5164
 total energy-change (2. order) :-0.1363032E+01  (-0.6202100E-01)
 number of electron     640.0000130 magnetization      30.5165184
 augmentation part      197.3991979 magnetization      20.4894508

 Broyden mixing:
  rms(total) = 0.95051E+00    rms(broyden)= 0.95051E+00
  rms(prec ) = 0.10268E+01
  weight for this iteration     100.00

 eigenvalues of (default mixing * dielectric matrix)
  average eigenvalue GAMMA=   1.0894
  2.4401  1.1240  0.9749  0.3282  0.5796

 Free energy of the ion-electron system (eV)
  ---------------------------------------------------
  alpha Z        PSCENC =      2015.86452450
  Ewald energy   TEWEN  =    126106.27667883
  -Hartree energ DENC   =   -176514.72356348
  -exchange      EXHF   =         0.00000000
  -V(xc)+E(xc)   XCENC  =       225.82489186
  PAW double counting   =     60687.60210649   -59091.55881163
  entropy T*S    EENTRO =         0.04651455
  eigenvalues    EBANDS =      -445.28257872
  atomic energy  EATOM  =     46663.39518770
  Solvation  Ediel_sol  =         0.00000000
  ---------------------------------------------------
  free energy    TOTEN  =      -352.55504990 eV

  energy without entropy =     -352.60156445  energy(sigma->0) =     -352.57055475


--------------------------------------------------------------------------------------------------------




--------------------------------------- Iteration      1(  11)  ---------------------------------------


    POTLOK:  cpu time    0.3773: real time    0.3784
    SETDIJ:  cpu time    0.0326: real time    0.0326
    EDDIAG:  cpu time    5.6269: real time    5.6422
  RMM-DIIS:  cpu time   20.4735: real time   20.5367
    ORTHCH:  cpu time    0.5462: real time    0.5475
       DOS:  cpu time    0.0012: real time    0.0012
    CHARGE:  cpu time    2.8585: real time    2.8653
    MIXING:  cpu time    0.0107: real time    0.0108
    --------------------------------------------
      LOOP:  cpu time   29.9269: real time   30.0147

 eigenvalue-minimisations  :  5069
 total energy-change (2. order) :-0.4014150E+01  (-0.1072175E+00)
 number of electron     640.0000131 magnetization      26.8876946
 augmentation part      197.1930375 magnetization      15.9671571

 Broyden mixing:
  rms(total) = 0.77436E+00    rms(broyden)= 0.77436E+00
  rms(prec ) = 0.86276E+00
  weight for this iteration     100.00

 eigenvalues of (default mixing * dielectric matrix)
  average eigenvalue GAMMA=   1.1068
  2.2096  1.9975  0.3283  0.8003  0.6526  0.6526

 Free energy of the ion-electron system (eV)
  ---------------------------------------------------
  alpha Z        PSCENC =      2015.86452450
  Ewald energy   TEWEN  =    126106.27667883
  -Hartree energ DENC   =   -176559.17910861
  -exchange      EXHF   =         0.00000000
  -V(xc)+E(xc)   XCENC  =       223.18299056
  PAW double counting   =     61039.60197279   -59447.45131382
  entropy T*S    EENTRO =        -0.03414215
  eigenvalues    EBANDS =      -398.22598999
  atomic energy  EATOM  =     46663.39518770
  Solvation  Ediel_sol  =         0.00000000
  ---------------------------------------------------
  free energy    TOTEN  =      -356.56920020 eV

  energy without entropy =     -356.53505805  energy(sigma->0) =     -356.55781949


--------------------------------------------------------------------------------------------------------




--------------------------------------- Iteration      1(  12)  ---------------------------------------


    POTLOK:  cpu time    0.3791: real time    0.3803
    SETDIJ:  cpu time    0.0322: real time    0.0323
    EDDIAG:  cpu time    5.6093: real time    5.6225
  RMM-DIIS:  cpu time   20.5083: real time   20.5568
    ORTHCH:  cpu time    0.5606: real time    0.5620
       DOS:  cpu time    0.0013: real time    0.0013
    CHARGE:  cpu time    2.8367: real time    2.8434
    MIXING:  cpu time    0.0120: real time    0.0120
    --------------------------------------------
      LOOP:  cpu time   29.9395: real time   30.0106

 eigenvalue-minimisations  :  5059
 total energy-change (2. order) :-0.4905089E+01  (-0.2766583E+00)
 number of electron     640.0000130 magnetization      21.8248799
 augmentation part      196.9352697 magnetization      13.0257447

 Broyden mixing:
  rms(total) = 0.51323E+00    rms(broyden)= 0.51323E+00
  rms(prec ) = 0.53750E+00
  weight for this iteration     100.00

 eigenvalues of (default mixing * dielectric matrix)
  average eigenvalue GAMMA=   1.2271
  2.6084  2.6084  0.9488  0.9488  0.3276  0.5737  0.5737

 Free energy of the ion-electron system (eV)
  ---------------------------------------------------
  alpha Z        PSCENC =      2015.86452450
  Ewald energy   TEWEN  =    126106.27667883
  -Hartree energ DENC   =   -176561.13088968
  -exchange      EXHF   =         0.00000000
  -V(xc)+E(xc)   XCENC  =       220.52261938
  PAW double counting   =     60635.11865961   -59038.38841046
  entropy T*S    EENTRO =         0.02379388
  eigenvalues    EBANDS =      -403.15645253
  atomic energy  EATOM  =     46663.39518770
  Solvation  Ediel_sol  =         0.00000000
  ---------------------------------------------------
  free energy    TOTEN  =      -361.47428879 eV

  energy without entropy =     -361.49808266  energy(sigma->0) =     -361.48222008


--------------------------------------------------------------------------------------------------------




--------------------------------------- Iteration      1(  13)  ---------------------------------------


    POTLOK:  cpu time    0.3774: real time    0.3783
    SETDIJ:  cpu time    0.0327: real time    0.0327
    EDDIAG:  cpu time    5.6450: real time    5.6584
  RMM-DIIS:  cpu time   20.5417: real time   20.5903
    ORTHCH:  cpu time    0.5682: real time    0.5695
       DOS:  cpu time    0.0017: real time    0.0017
    CHARGE:  cpu time    2.8310: real time    2.8377
    MIXING:  cpu time    0.0123: real time    0.0123
    --------------------------------------------
      LOOP:  cpu time   30.0100: real time   30.0811

 eigenvalue-minimisations  :  5051
 total energy-change (2. order) :-0.3066160E+01  (-0.1758640E+00)
 number of electron     640.0000130 magnetization      17.6870732
 augmentation part      196.9735697 magnetization       9.1145811

 Broyden mixing:
  rms(total) = 0.27807E+00    rms(broyden)= 0.27807E+00
  rms(prec ) = 0.29578E+00
  weight for this iteration     100.00

 eigenvalues of (default mixing * dielectric matrix)
  average eigenvalue GAMMA=   1.4539
  4.8310  2.4021  1.2693  0.9212  0.3278  0.6677  0.6061  0.6061

 Free energy of the ion-electron system (eV)
  ---------------------------------------------------
  alpha Z        PSCENC =      2015.86452450
  Ewald energy   TEWEN  =    126106.27667883
  -Hartree energ DENC   =   -176555.11629553
  -exchange      EXHF   =         0.00000000
  -V(xc)+E(xc)   XCENC  =       218.08498516
  PAW double counting   =     60535.51718143   -58938.61154389
  entropy T*S    EENTRO =         0.03085493
  eigenvalues    EBANDS =      -409.98202214
  atomic energy  EATOM  =     46663.39518770
  Solvation  Ediel_sol  =         0.00000000
  ---------------------------------------------------
  free energy    TOTEN  =      -364.54044899 eV

  energy without entropy =     -364.57130393  energy(sigma->0) =     -364.55073397


--------------------------------------------------------------------------------------------------------




--------------------------------------- Iteration      1(  14)  ---------------------------------------


    POTLOK:  cpu time    0.3778: real time    0.3787
    SETDIJ:  cpu time    0.0324: real time    0.0324
    EDDIAG:  cpu time    5.6251: real time    5.6384
  RMM-DIIS:  cpu time   20.5152: real time   20.5731
    ORTHCH:  cpu time    0.5274: real time    0.5287
       DOS:  cpu time    0.0013: real time    0.0013
    CHARGE:  cpu time    2.8241: real time    2.8308
    MIXING:  cpu time    0.0120: real time    0.0121
    --------------------------------------------
      LOOP:  cpu time   29.9153: real time   29.9955

 eigenvalue-minimisations  :  5055
 total energy-change (2. order) :-0.1370622E+01  (-0.9434791E-01)
 number of electron     640.0000131 magnetization      16.3952096
 augmentation part      197.0694428 magnetization       8.2506617

 Broyden mixing:
  rms(total) = 0.14887E+00    rms(broyden)= 0.14887E+00
  rms(prec ) = 0.15625E+00
  weight for this iteration     100.00

 eigenvalues of (default mixing * dielectric matrix)
  average eigenvalue GAMMA=   1.5320
  6.0005  2.2860  1.2464  1.2464  0.3278  0.7913  0.6121  0.6121  0.6654

 Free energy of the ion-electron system (eV)
  ---------------------------------------------------
  alpha Z        PSCENC =      2015.86452450
  Ewald energy   TEWEN  =    126106.27667883
  -Hartree energ DENC   =   -176534.68831400
  -exchange      EXHF   =         0.00000000
  -V(xc)+E(xc)   XCENC  =       216.79583222
  PAW double counting   =     60525.83237082   -58929.50673494
  entropy T*S    EENTRO =         0.01775574
  eigenvalues    EBANDS =      -429.89837195
  atomic energy  EATOM  =     46663.39518770
  Solvation  Ediel_sol  =         0.00000000
  ---------------------------------------------------
  free energy    TOTEN  =      -365.91107107 eV

  energy without entropy =     -365.92882682  energy(sigma->0) =     -365.91698966


--------------------------------------------------------------------------------------------------------




--------------------------------------- Iteration      1(  15)  ---------------------------------------


    POTLOK:  cpu time    0.3786: real time    0.3797
    SETDIJ:  cpu time    0.0327: real time    0.0328
    EDDIAG:  cpu time    5.6514: real time    5.6648
  RMM-DIIS:  cpu time   20.5788: real time   20.6274
    ORTHCH:  cpu time    0.4981: real time    0.4993
       DOS:  cpu time    0.0013: real time    0.0013
    CHARGE:  cpu time    2.8392: real time    2.8459
    MIXING:  cpu time    0.0119: real time    0.0119
    --------------------------------------------
      LOOP:  cpu time   29.9918: real time   30.0630

 eigenvalue-minimisations  :  5071
 total energy-change (2. order) :-0.5655085E-01  (-0.1250956E-01)
 number of electron     640.0000131 magnetization      15.5823491
 augmentation part      197.0738409 magnetization       7.5050420

 Broyden mixing:
  rms(total) = 0.83063E-01    rms(broyden)= 0.83063E-01
  rms(prec ) = 0.90357E-01
  weight for this iteration     100.00

 eigenvalues of (default mixing * dielectric matrix)
  average eigenvalue GAMMA=   1.6026
  6.6863  2.1960  1.7696  1.5186  0.3278  0.8424  0.8424  0.6054  0.6054  0.6320

 Free energy of the ion-electron system (eV)
  ---------------------------------------------------
  alpha Z        PSCENC =      2015.86452450
  Ewald energy   TEWEN  =    126106.27667883
  -Hartree energ DENC   =   -176518.86642261
  -exchange      EXHF   =         0.00000000
  -V(xc)+E(xc)   XCENC  =       216.58859675
  PAW double counting   =     60577.66453989   -58981.78935365
  entropy T*S    EENTRO =         0.00182165
  eigenvalues    EBANDS =      -445.10319498
  atomic energy  EATOM  =     46663.39518770
  Solvation  Ediel_sol  =         0.00000000
  ---------------------------------------------------
  free energy    TOTEN  =      -365.96762193 eV

  energy without entropy =     -365.96944358  energy(sigma->0) =     -365.96822915


--------------------------------------------------------------------------------------------------------




--------------------------------------- Iteration      1(  16)  ---------------------------------------


    POTLOK:  cpu time    0.3781: real time    0.3792
    SETDIJ:  cpu time    0.0333: real time    0.0334
    EDDIAG:  cpu time    5.6333: real time    5.6466
  RMM-DIIS:  cpu time   20.7580: real time   20.8204
    ORTHCH:  cpu time    0.5260: real time    0.5273
       DOS:  cpu time    0.0013: real time    0.0013
    CHARGE:  cpu time    2.8494: real time    2.8572
    MIXING:  cpu time    0.0126: real time    0.0126
    --------------------------------------------
      LOOP:  cpu time   30.1921: real time   30.2780

 eigenvalue-minimisations  :  5068
 total energy-change (2. order) : 0.4336074E-01  (-0.3102949E-02)
 number of electron     640.0000131 magnetization      15.0765734
 augmentation part      197.1302590 magnetization       7.3047883

 Broyden mixing:
  rms(total) = 0.69242E-01    rms(broyden)= 0.69242E-01
  rms(prec ) = 0.76218E-01
  weight for this iteration     100.00

 eigenvalues of (default mixing * dielectric matrix)
  average eigenvalue GAMMA=   1.5712
  6.9070  2.2399  2.2399  1.4294  0.3278  0.8590  0.8590  0.6174  0.6174  0.5932
  0.5932

 Free energy of the ion-electron system (eV)
  ---------------------------------------------------
  alpha Z        PSCENC =      2015.86452450
  Ewald energy   TEWEN  =    126106.27667883
  -Hartree energ DENC   =   -176494.13299772
  -exchange      EXHF   =         0.00000000
  -V(xc)+E(xc)   XCENC  =       216.42717361
  PAW double counting   =     60590.72189148   -58994.88262214
  entropy T*S    EENTRO =        -0.00009621
  eigenvalues    EBANDS =      -469.59400125
  atomic energy  EATOM  =     46663.39518770
  Solvation  Ediel_sol  =         0.00000000
  ---------------------------------------------------
  free energy    TOTEN  =      -365.92426119 eV

  energy without entropy =     -365.92416498  energy(sigma->0) =     -365.92422912


--------------------------------------------------------------------------------------------------------




--------------------------------------- Iteration      1(  17)  ---------------------------------------


    POTLOK:  cpu time    0.3769: real time    0.3782
    SETDIJ:  cpu time    0.0334: real time    0.0335
    EDDIAG:  cpu time    5.6056: real time    5.6206
  RMM-DIIS:  cpu time   20.4450: real time   20.5013
    ORTHCH:  cpu time    0.5301: real time    0.5313
       DOS:  cpu time    0.0013: real time    0.0013
    CHARGE:  cpu time    2.8214: real time    2.8292
    MIXING:  cpu time    0.0127: real time    0.0127
    --------------------------------------------
      LOOP:  cpu time   29.8263: real time   29.9080

 eigenvalue-minimisations  :  5057
 total energy-change (2. order) :-0.1053177E+00  (-0.9067516E-03)
 number of electron     640.0000131 magnetization      14.6996293
 augmentation part      197.1342800 magnetization       6.9548167

 Broyden mixing:
  rms(total) = 0.20030E-01    rms(broyden)= 0.20030E-01
  rms(prec ) = 0.22400E-01
  weight for this iteration     100.00

 eigenvalues of (default mixing * dielectric matrix)
  average eigenvalue GAMMA=   1.6101
  7.2413  2.4930  2.4930  1.4461  1.0344  1.0344  0.3278  0.6251  0.6251  0.7666
  0.6169  0.6169

 Free energy of the ion-electron system (eV)
  ---------------------------------------------------
  alpha Z        PSCENC =      2015.86452450
  Ewald energy   TEWEN  =    126106.27667883
  -Hartree energ DENC   =   -176482.67777465
  -exchange      EXHF   =         0.00000000
  -V(xc)+E(xc)   XCENC  =       216.20300480
  PAW double counting   =     60617.43373174   -59021.72815253
  entropy T*S    EENTRO =        -0.00817562
  eigenvalues    EBANDS =      -480.78860361
  atomic energy  EATOM  =     46663.39518770
  Solvation  Ediel_sol  =         0.00000000
  ---------------------------------------------------
  free energy    TOTEN  =      -366.02957885 eV

  energy without entropy =     -366.02140323  energy(sigma->0) =     -366.02685365


--------------------------------------------------------------------------------------------------------




--------------------------------------- Iteration      1(  18)  ---------------------------------------


    POTLOK:  cpu time    0.3763: real time    0.3778
    SETDIJ:  cpu time    0.0330: real time    0.0330
    EDDIAG:  cpu time    5.6104: real time    5.6256
  RMM-DIIS:  cpu time   20.5749: real time   20.6444
    ORTHCH:  cpu time    0.5123: real time    0.5135
       DOS:  cpu time    0.0014: real time    0.0014
    CHARGE:  cpu time    2.8239: real time    2.8306
    MIXING:  cpu time    0.0139: real time    0.0140
    --------------------------------------------
      LOOP:  cpu time   29.9460: real time   30.0402

 eigenvalue-minimisations  :  5061
 total energy-change (2. order) :-0.1312268E+00  (-0.6419027E-03)
 number of electron     640.0000131 magnetization      14.5071215
 augmentation part      197.1454621 magnetization       6.8352426

 Broyden mixing:
  rms(total) = 0.10578E-01    rms(broyden)= 0.10578E-01
  rms(prec ) = 0.12968E-01
  weight for this iteration     100.00

 eigenvalues of (default mixing * dielectric matrix)
  average eigenvalue GAMMA=   1.6502
  7.4523  2.5067  2.5067  2.1160  1.3399  0.3278  0.9969  0.9969  0.6239  0.6239
  0.7283  0.6429  0.5908

 Free energy of the ion-electron system (eV)
  ---------------------------------------------------
  alpha Z        PSCENC =      2015.86452450
  Ewald energy   TEWEN  =    126106.27667883
  -Hartree energ DENC   =   -176471.76827158
  -exchange      EXHF   =         0.00000000
  -V(xc)+E(xc)   XCENC  =       215.99220769
  PAW double counting   =     60617.36363173   -59021.56178586
  entropy T*S    EENTRO =        -0.01292229
  eigenvalues    EBANDS =      -491.71005642
  atomic energy  EATOM  =     46663.39518770
  Solvation  Ediel_sol  =         0.00000000
  ---------------------------------------------------
  free energy    TOTEN  =      -366.16080570 eV

  energy without entropy =     -366.14788341  energy(sigma->0) =     -366.15649827


--------------------------------------------------------------------------------------------------------




--------------------------------------- Iteration      1(  19)  ---------------------------------------


    POTLOK:  cpu time    0.3769: real time    0.3779
    SETDIJ:  cpu time    0.0333: real time    0.0334
    EDDIAG:  cpu time    5.6304: real time    5.6437
  RMM-DIIS:  cpu time   20.2171: real time   20.2649
    ORTHCH:  cpu time    0.5455: real time    0.5468
       DOS:  cpu time    0.0013: real time    0.0013
    CHARGE:  cpu time    2.8541: real time    2.8608
    MIXING:  cpu time    0.0128: real time    0.0128
    --------------------------------------------
      LOOP:  cpu time   29.6714: real time   29.7416

 eigenvalue-minimisations  :  4982
 total energy-change (2. order) :-0.1303348E+00  (-0.5878424E-03)
 number of electron     640.0000131 magnetization      14.4316544
 augmentation part      197.1496916 magnetization       6.7990373

 Broyden mixing:
  rms(total) = 0.90839E-02    rms(broyden)= 0.90839E-02
  rms(prec ) = 0.10982E-01
  weight for this iteration     100.00

 eigenvalues of (default mixing * dielectric matrix)
  average eigenvalue GAMMA=   1.6938
  7.6494  3.3939  2.4063  2.4063  1.4152  0.3278  1.0095  1.0095  0.8823  0.6229
  0.6229  0.7382  0.6451  0.5840

 Free energy of the ion-electron system (eV)
  ---------------------------------------------------
  alpha Z        PSCENC =      2015.86452450
  Ewald energy   TEWEN  =    126106.27667883
  -Hartree energ DENC   =   -176463.32794763
  -exchange      EXHF   =         0.00000000
  -V(xc)+E(xc)   XCENC  =       215.83128631
  PAW double counting   =     60614.52035772   -59018.62424268
  entropy T*S    EENTRO =        -0.01524889
  eigenvalues    EBANDS =      -500.21173633
  atomic energy  EATOM  =     46663.39518770
  Solvation  Ediel_sol  =         0.00000000
  ---------------------------------------------------
  free energy    TOTEN  =      -366.29114048 eV

  energy without entropy =     -366.27589159  energy(sigma->0) =     -366.28605751


--------------------------------------------------------------------------------------------------------




--------------------------------------- Iteration      1(  20)  ---------------------------------------


    POTLOK:  cpu time    0.3753: real time    0.3762
    SETDIJ:  cpu time    0.0336: real time    0.0337
    EDDIAG:  cpu time    5.6191: real time    5.6324
  RMM-DIIS:  cpu time   18.7865: real time   18.8309
    ORTHCH:  cpu time    0.5446: real time    0.5459
       DOS:  cpu time    0.0013: real time    0.0013
    CHARGE:  cpu time    2.8436: real time    2.8503
    MIXING:  cpu time    0.0143: real time    0.0143
    --------------------------------------------
      LOOP:  cpu time   28.2184: real time   28.2851

 eigenvalue-minimisations  :  4591
 total energy-change (2. order) :-0.6987362E-01  (-0.2580105E-03)
 number of electron     640.0000131 magnetization      14.4507512
 augmentation part      197.1502316 magnetization       6.8384415

 Broyden mixing:
  rms(total) = 0.53349E-02    rms(broyden)= 0.53349E-02
  rms(prec ) = 0.61242E-02
  weight for this iteration     100.00

 eigenvalues of (default mixing * dielectric matrix)
  average eigenvalue GAMMA=   1.7030
  7.6559  3.8126  2.3332  2.3332  1.7281  1.1945  1.1945  0.3278  0.9901  0.6237
  0.6237  0.7838  0.7143  0.6390  0.5910

 Free energy of the ion-electron system (eV)
  ---------------------------------------------------
  alpha Z        PSCENC =      2015.86452450
  Ewald energy   TEWEN  =    126106.27667883
  -Hartree energ DENC   =   -176457.47943991
  -exchange      EXHF   =         0.00000000
  -V(xc)+E(xc)   XCENC  =       215.74766252
  PAW double counting   =     60615.54290752   -59019.61316567
  entropy T*S    EENTRO =        -0.01539240
  eigenvalues    EBANDS =      -506.07997718
  atomic energy  EATOM  =     46663.39518770
  Solvation  Ediel_sol  =         0.00000000
  ---------------------------------------------------
  free energy    TOTEN  =      -366.36101410 eV

  energy without entropy =     -366.34562170  energy(sigma->0) =     -366.35588330


--------------------------------------------------------------------------------------------------------




--------------------------------------- Iteration      1(  21)  ---------------------------------------


    POTLOK:  cpu time    0.3785: real time    0.3796
    SETDIJ:  cpu time    0.0334: real time    0.0335
    EDDIAG:  cpu time    5.6690: real time    5.6824
  RMM-DIIS:  cpu time   17.5746: real time   17.6161
    ORTHCH:  cpu time    0.4843: real time    0.4854
       DOS:  cpu time    0.0013: real time    0.0013
    CHARGE:  cpu time    3.1092: real time    3.1171
    MIXING:  cpu time    0.0156: real time    0.0156
    --------------------------------------------
      LOOP:  cpu time   27.2660: real time   27.3311

 eigenvalue-minimisations  :  4275
 total energy-change (2. order) :-0.1882011E-01  (-0.9945724E-04)
 number of electron     640.0000131 magnetization      14.4315576
 augmentation part      197.1491449 magnetization       6.8229970

 Broyden mixing:
  rms(total) = 0.29732E-02    rms(broyden)= 0.29732E-02
  rms(prec ) = 0.37200E-02
  weight for this iteration     100.00

 eigenvalues of (default mixing * dielectric matrix)
  average eigenvalue GAMMA=   1.7195
  7.6919  4.5657  2.4365  2.4365  1.9007  1.2905  0.3278  1.1167  0.9303  0.9303
  0.6236  0.6236  0.7497  0.5900  0.6493  0.6493

 Free energy of the ion-electron system (eV)
  ---------------------------------------------------
  alpha Z        PSCENC =      2015.86452450
  Ewald energy   TEWEN  =    126106.27667883
  -Hartree energ DENC   =   -176453.86438984
  -exchange      EXHF   =         0.00000000
  -V(xc)+E(xc)   XCENC  =       215.72404217
  PAW double counting   =     60618.20731251   -59022.29694018
  entropy T*S    EENTRO =        -0.01519136
  eigenvalues    EBANDS =      -509.67105854
  atomic energy  EATOM  =     46663.39518770
  Solvation  Ediel_sol  =         0.00000000
  ---------------------------------------------------
  free energy    TOTEN  =      -366.37983421 eV

  energy without entropy =     -366.36464285  energy(sigma->0) =     -366.37477042


--------------------------------------------------------------------------------------------------------




--------------------------------------- Iteration      1(  22)  ---------------------------------------


    POTLOK:  cpu time    0.3777: real time    0.3788
    SETDIJ:  cpu time    0.0417: real time    0.0418
    EDDIAG:  cpu time    5.6404: real time    5.6538
  RMM-DIIS:  cpu time   16.1949: real time   16.2332
    ORTHCH:  cpu time    0.4861: real time    0.4872
       DOS:  cpu time    0.0013: real time    0.0013
    CHARGE:  cpu time    2.8405: real time    2.8472
    MIXING:  cpu time    0.0148: real time    0.0148
    --------------------------------------------
      LOOP:  cpu time   25.5974: real time   25.6580

 eigenvalue-minimisations  :  3870
 total energy-change (2. order) :-0.6823727E-02  (-0.4028977E-04)
 number of electron     640.0000131 magnetization      14.4080425
 augmentation part      197.1508025 magnetization       6.8010180

 Broyden mixing:
  rms(total) = 0.16426E-02    rms(broyden)= 0.16426E-02
  rms(prec ) = 0.22579E-02
  weight for this iteration     100.00

 eigenvalues of (default mixing * dielectric matrix)
  average eigenvalue GAMMA=   1.8336
  7.8547  5.9089  2.6949  2.3676  2.3676  1.6560  1.3162  0.3278  1.0016  1.0016
  0.6233  0.6233  0.7833  0.7833  0.5937  0.6334  0.6334

 Free energy of the ion-electron system (eV)
  ---------------------------------------------------
  alpha Z        PSCENC =      2015.86452450
  Ewald energy   TEWEN  =    126106.27667883
  -Hartree energ DENC   =   -176451.39412378
  -exchange      EXHF   =         0.00000000
  -V(xc)+E(xc)   XCENC  =       215.70977714
  PAW double counting   =     60618.45845318   -59022.55333786
  entropy T*S    EENTRO =        -0.01556856
  eigenvalues    EBANDS =      -512.12824908
  atomic energy  EATOM  =     46663.39518770
  Solvation  Ediel_sol  =         0.00000000
  ---------------------------------------------------
  free energy    TOTEN  =      -366.38665793 eV

  energy without entropy =     -366.37108937  energy(sigma->0) =     -366.38146841


--------------------------------------------------------------------------------------------------------




--------------------------------------- Iteration      1(  23)  ---------------------------------------


    POTLOK:  cpu time    0.3737: real time    0.3747
    SETDIJ:  cpu time    0.0333: real time    0.0333
    EDDIAG:  cpu time    5.7398: real time    5.7534
  RMM-DIIS:  cpu time   15.4242: real time   15.4672
    ORTHCH:  cpu time    0.4857: real time    0.4868
       DOS:  cpu time    0.0014: real time    0.0014
    CHARGE:  cpu time    2.8348: real time    2.8426
    MIXING:  cpu time    0.0149: real time    0.0149
    --------------------------------------------
      LOOP:  cpu time   24.9076: real time   24.9744

 eigenvalue-minimisations  :  3716
 total energy-change (2. order) :-0.1407061E-02  (-0.2731671E-04)
 number of electron     640.0000131 magnetization      14.4032240
 augmentation part      197.1516233 magnetization       6.8011429

 Broyden mixing:
  rms(total) = 0.25164E-02    rms(broyden)= 0.25164E-02
  rms(prec ) = 0.30583E-02
  weight for this iteration     100.00

 eigenvalues of (default mixing * dielectric matrix)
  average eigenvalue GAMMA=   1.8602
  8.0330  6.5769  2.9775  2.2346  2.1739  2.1739  1.2556  1.2556  0.3278  0.9436
[...]
 -0.001  -0.000   0.000   0.007   0.000   0.000   0.000  -0.000  -0.005  -0.000   0.000  -0.000   0.000  -0.000  -0.001  -0.000
 -0.000   0.000   0.000   0.000  -0.000   0.000  -0.000  -0.000  -0.000   0.000   0.000   0.000   0.000  -0.000  -0.000  -0.000
 -0.000   0.000  -0.000  -0.000   0.000   0.000  -0.000  -0.000   0.000  -0.000   0.000  -0.000  -0.000  -0.000   0.000   0.000
 -0.000   0.000  -0.000   0.000  -0.000   0.000  -0.000   0.000  -0.000   0.000  -0.000  -0.000  -0.000   0.000   0.000   0.000


------------------------ aborting loop because EDIFF is reached ----------------------------------------


    CHARGE:  cpu time    2.8564: real time    2.8642
    FORLOC:  cpu time    0.0647: real time    0.0648
    FORNL :  cpu time    9.3071: real time    9.3326
    STRESS:  cpu time   27.7901: real time   27.8666
    FORCOR:  cpu time    0.4279: real time    0.4292
    FORHAR:  cpu time    0.1017: real time    0.1022
    MIXING:  cpu time    0.0157: real time    0.0158
    OFIELD:  cpu time    0.0001: real time    0.0001

 ---------------------------------------------------------------------------------------------

         DFTD3 V3.0 Rev 1        
 IVDW         = 11
 DF pbe       
 parameters
 VDW_S6       =    1.0000
 VDW_S8       =    0.7220
 VDW_SR       =    1.2170
 rs18     =    1.0000
 alpha6   =   14.0000
 alpha8   =   16.0000
 k1-k3    =   16.0000    1.3333   -4.0000
 VDW_RADIUS   =   50.2022 A
 VDW_CNRADIUS =   21.1671 A
 Edisp (eV)  -38.69807

 E6    (eV) :   -14.2567
 E8    (eV) :   -24.4414
 % E8        : 63.16
    FORVDW:  cpu time    0.3091: real time    0.3104

  FORCE on cell =-STRESS in cart. coord.  units (eV):
  Direction    XX          YY          ZZ          XY          YZ          ZX
  --------------------------------------------------------------------------------------
  Alpha Z  2015.86452  2015.86452  2015.86452
  Ewald  163260.30494163260.32347************     0.01605     0.00916    -0.01588
  Hartree174140.07765174140.08277************     0.00443     0.00177    -0.00306
  E(xc)   -2856.29486 -2856.29468 -2881.78652     0.00016     0.00012    -0.00020
  Local  ************************359550.25943    -0.01595    -0.00711     0.01232
  n-local   572.73720   586.63578   315.53621    -4.00979     2.92589     1.62967
  augment  3253.08011  3253.07726  3532.95159    -0.00247    -0.00149     0.00256
  Kinetic  9195.46403  9106.85962  9741.43203    25.57147     7.68860     4.44642
  Fock        0.00000     0.00000     0.00000     0.00000     0.00000     0.00000
  vdW       -53.55119   -53.55147   -28.88451    -0.00024     0.00006    -0.00010
  -------------------------------------------------------------------------------------
  Total      82.95267    82.95146     0.18766    -0.00105    -0.00052     0.00090
  in kB      68.81014    68.80914     0.15566    -0.00087    -0.00043     0.00074
  external pressure =       45.92 kB  Pullay stress =        0.00 kB


 VOLUME and BASIS-vectors are now :
 -----------------------------------------------------------------------------
  energy-cutoff  :      550.00
  volume of cell :     1931.47
      direct lattice vectors                 reciprocal lattice vectors
    10.560000420  0.000000000  0.000000000     0.094696966  0.054673319  0.000000000
    -5.280000210  9.145228627  0.000000000     0.000000000  0.109346638  0.000000000
     0.000000000  0.000000000 20.000000000     0.000000000  0.000000000  0.050000000

  length of vectors
    10.560000420 10.560000420 20.000000000     0.109346638  0.109346638  0.050000000


 FORCES acting on ions
    electron-ion (+dipol)            ewald-force                    non-local-force                 convergence-correction
 -----------------------------------------------------------------------------------------------
   0.935E-05 0.598E-04 0.231E+04   -.796E-04 -.164E-03 -.231E+04   -.353E-04 0.204E-04 -.106E+00   -.118E-06 0.690E-07 -.289E-01
   -.454E-03 0.328E-03 0.780E+03   0.256E-03 -.326E-03 -.780E+03   0.932E-05 -.538E-05 -.405E+00   0.111E-06 -.871E-07 -.279E-01
   0.527E-03 -.245E-03 -.780E+03   -.461E-03 0.170E-03 0.780E+03   -.932E-05 0.538E-05 0.405E+00   -.136E-06 0.362E-07 0.279E-01
   0.364E-04 0.370E-04 -.231E+04   -.376E-04 -.166E-03 0.231E+04   0.353E-04 -.204E-04 0.106E+00   0.106E-06 -.752E-07 0.289E-01
   0.144E-04 0.419E-04 0.231E+04   -.994E-04 -.681E-04 -.231E+04   -.353E-04 0.204E-04 -.106E+00   -.112E-06 0.687E-07 -.289E-01
   -.444E-03 0.317E-03 0.780E+03   0.291E-03 -.327E-03 -.780E+03   0.932E-05 -.538E-05 -.405E+00   0.104E-06 -.696E-07 -.279E-01
   0.513E-03 -.240E-03 -.780E+03   -.422E-03 0.124E-03 0.780E+03   -.932E-05 0.538E-05 0.405E+00   -.138E-06 0.452E-07 0.279E-01
   0.434E-04 0.235E-04 -.231E+04   -.636E-04 -.835E-04 0.231E+04   0.353E-04 -.204E-04 0.106E+00   0.118E-06 -.661E-07 0.289E-01
   0.156E-04 0.430E-04 0.231E+04   -.103E-03 -.718E-04 -.231E+04   -.353E-04 0.204E-04 -.106E+00   -.103E-06 0.818E-07 -.289E-01
   -.447E-03 0.323E-03 0.780E+03   0.301E-03 -.346E-03 -.780E+03   0.932E-05 -.538E-05 -.405E+00   0.115E-06 -.511E-07 -.279E-01
   0.492E-03 -.228E-03 -.780E+03   -.417E-03 0.845E-04 0.780E+03   -.932E-05 0.538E-05 0.405E+00   -.105E-06 0.635E-07 0.279E-01
   0.371E-04 0.237E-04 -.231E+04   -.431E-04 -.842E-04 0.231E+04   0.353E-04 -.204E-04 0.106E+00   0.107E-06 -.577E-07 0.289E-01
   0.499E-05 0.686E-04 0.231E+04   -.652E-04 -.193E-03 -.231E+04   -.353E-04 0.204E-04 -.106E+00   -.103E-06 0.767E-07 -.289E-01
   -.457E-03 0.319E-03 0.780E+03   0.296E-03 -.297E-03 -.780E+03   0.932E-05 -.538E-05 -.405E+00   0.121E-06 -.795E-07 -.279E-01
   0.511E-03 -.243E-03 -.780E+03   -.410E-03 0.163E-03 0.780E+03   -.932E-05 0.538E-05 0.405E+00   -.108E-06 0.490E-07 0.279E-01
   0.243E-04 0.417E-04 -.231E+04   0.157E-05 -.181E-03 0.231E+04   0.353E-04 -.204E-04 0.106E+00   0.107E-06 -.759E-07 0.289E-01
   -.124E-04 0.559E-04 0.231E+04   -.908E-05 -.152E-03 -.231E+04   -.353E-04 0.204E-04 -.106E+00   -.128E-06 0.618E-07 -.289E-01
   -.456E-03 0.292E-03 0.780E+03   0.522E-03 -.209E-03 -.780E+03   0.932E-05 -.538E-05 -.405E+00   0.934E-07 -.885E-07 -.279E-01
   0.482E-03 -.234E-03 -.780E+03   -.450E-03 0.134E-03 0.780E+03   -.932E-05 0.538E-05 0.405E+00   -.749E-07 0.666E-07 0.279E-01
   0.349E-04 0.410E-04 -.231E+04   -.328E-04 -.179E-03 0.231E+04   0.353E-04 -.204E-04 0.106E+00   0.142E-06 -.664E-07 0.289E-01
   0.504E-05 0.403E-04 0.231E+04   0.579E-05 -.632E-04 -.231E+04   -.353E-04 0.204E-04 -.106E+00   -.129E-06 0.659E-07 -.289E-01
   -.455E-03 0.301E-03 0.780E+03   0.586E-03 -.275E-03 -.780E+03   0.932E-05 -.538E-05 -.405E+00   0.996E-07 -.676E-07 -.279E-01
   0.470E-03 -.231E-03 -.780E+03   -.478E-03 0.946E-04 0.780E+03   -.932E-05 0.538E-05 0.405E+00   -.762E-07 0.804E-07 0.279E-01
   0.475E-04 0.354E-04 -.231E+04   -.230E-05 -.122E-03 0.231E+04   0.353E-04 -.204E-04 0.106E+00   0.131E-06 -.448E-07 0.289E-01
   -.554E-05 0.578E-05 0.231E+04   0.177E-03 0.496E-04 -.231E+04   -.353E-04 0.204E-04 -.106E+00   -.146E-06 0.510E-07 -.289E-01
   -.445E-03 0.264E-03 0.780E+03   0.554E-03 -.154E-03 -.780E+03   0.932E-05 -.538E-05 -.405E+00   0.100E-06 -.851E-07 -.279E-01
   0.493E-03 -.249E-03 -.780E+03   -.420E-03 0.152E-03 0.780E+03   -.932E-05 0.538E-05 0.405E+00   -.984E-07 0.672E-07 0.279E-01
   0.473E-04 0.559E-06 -.231E+04   0.136E-03 -.837E-05 0.231E+04   0.353E-04 -.204E-04 0.106E+00   0.139E-06 -.564E-07 0.289E-01
   -.125E-04 0.255E-04 0.231E+04   0.135E-03 -.527E-04 -.231E+04   -.353E-04 0.204E-04 -.106E+00   -.142E-06 0.519E-07 -.289E-01
   -.459E-03 0.293E-03 0.780E+03   0.659E-03 -.214E-03 -.780E+03   0.932E-05 -.538E-05 -.405E+00   0.928E-07 -.940E-07 -.279E-01
   0.497E-03 -.246E-03 -.780E+03   -.364E-03 0.172E-03 0.780E+03   -.932E-05 0.538E-05 0.405E+00   -.966E-07 0.560E-07 0.279E-01
   0.383E-04 0.139E-04 -.231E+04   0.999E-04 -.900E-04 0.231E+04   0.353E-04 -.204E-04 0.106E+00   0.139E-06 -.676E-07 0.289E-01
   0.136E-04 0.569E-04 0.231E+04   -.904E-04 -.848E-04 -.231E+04   -.353E-04 0.204E-04 -.106E+00   -.114E-06 0.922E-07 -.289E-01
   -.437E-03 0.280E-03 0.780E+03   0.329E-03 -.171E-03 -.780E+03   0.932E-05 -.538E-05 -.405E+00   0.958E-07 -.362E-07 -.279E-01
   0.491E-03 -.261E-03 -.780E+03   -.351E-03 0.292E-03 0.780E+03   -.932E-05 0.538E-05 0.405E+00   -.137E-06 0.435E-07 0.279E-01
   0.424E-04 0.227E-04 -.231E+04   -.546E-04 -.492E-04 0.231E+04   0.353E-04 -.204E-04 0.106E+00   0.120E-06 -.728E-07 0.289E-01
   -.144E-04 0.342E-04 0.231E+04   -.709E-04 0.168E-03 -.231E+04   -.353E-04 0.204E-04 -.106E+00   -.118E-06 0.759E-07 -.289E-01
   -.457E-03 0.335E-03 0.780E+03   0.328E-03 -.449E-03 -.780E+03   0.932E-05 -.538E-05 -.405E+00   0.105E-06 -.476E-07 -.279E-01
   0.475E-03 -.276E-03 -.780E+03   -.430E-03 0.435E-03 0.780E+03   -.932E-05 0.538E-05 0.405E+00   -.136E-06 0.413E-07 0.279E-01
   0.128E-04 0.643E-05 -.231E+04   -.294E-04 0.183E-03 0.231E+04   0.353E-04 -.204E-04 0.106E+00   0.107E-06 -.917E-07 0.289E-01
   -.151E-04 0.315E-04 0.231E+04   -.683E-04 0.177E-03 -.231E+04   -.353E-04 0.204E-04 -.106E+00   -.102E-06 0.807E-07 -.289E-01
   -.460E-03 0.311E-03 0.780E+03   0.339E-03 -.372E-03 -.780E+03   0.932E-05 -.538E-05 -.405E+00   0.125E-06 -.446E-07 -.279E-01
   0.465E-03 -.282E-03 -.780E+03   -.460E-03 0.454E-03 0.780E+03   -.932E-05 0.538E-05 0.405E+00   -.116E-06 0.539E-07 0.279E-01
   0.841E-05 -.401E-05 -.231E+04   -.151E-04 0.217E-03 0.231E+04   0.353E-04 -.204E-04 0.106E+00   0.116E-06 -.994E-07 0.289E-01
   0.861E-05 0.494E-04 0.231E+04   -.739E-04 -.604E-04 -.231E+04   -.353E-04 0.204E-04 -.106E+00   -.101E-06 0.967E-07 -.289E-01
   -.462E-03 0.285E-03 0.780E+03   0.411E-03 -.188E-03 -.780E+03   0.932E-05 -.538E-05 -.405E+00   0.119E-06 -.288E-07 -.279E-01
   0.480E-03 -.259E-03 -.780E+03   -.441E-03 0.284E-03 0.780E+03   -.932E-05 0.538E-05 0.405E+00   -.108E-06 0.638E-07 0.279E-01
   0.319E-04 0.134E-04 -.231E+04   -.198E-04 -.187E-04 0.231E+04   0.353E-04 -.204E-04 0.106E+00   0.117E-06 -.753E-07 0.289E-01
   0.672E-05 0.325E-04 0.231E+04   -.684E-04 -.582E-05 -.231E+04   -.353E-04 0.204E-04 -.106E+00   -.131E-06 0.775E-07 -.289E-01
   -.458E-03 0.245E-03 0.780E+03   0.396E-03 -.591E-04 -.780E+03   0.932E-05 -.538E-05 -.405E+00   0.114E-06 -.432E-07 -.279E-01
   0.455E-03 -.257E-03 -.780E+03   -.496E-03 0.279E-03 0.780E+03   -.932E-05 0.538E-05 0.405E+00   -.788E-07 0.908E-07 0.279E-01
   0.485E-04 0.130E-04 -.231E+04   -.742E-04 -.175E-04 0.231E+04   0.353E-04 -.204E-04 0.106E+00   0.130E-06 -.585E-07 0.289E-01
   -.250E-04 0.177E-04 0.231E+04   -.367E-04 0.221E-03 -.231E+04   -.353E-04 0.204E-04 -.106E+00   -.133E-06 0.679E-07 -.289E-01
   -.457E-03 0.296E-03 0.780E+03   0.462E-03 -.323E-03 -.780E+03   0.932E-05 -.538E-05 -.405E+00   0.105E-06 -.453E-07 -.279E-01
   0.442E-03 -.277E-03 -.780E+03   -.518E-03 0.437E-03 0.780E+03   -.932E-05 0.538E-05 0.405E+00   -.735E-07 0.734E-07 0.279E-01
   0.208E-04 -.338E-05 -.231E+04   -.553E-04 0.215E-03 0.231E+04   0.353E-04 -.204E-04 0.106E+00   0.138E-06 -.836E-07 0.289E-01
   -.276E-04 -.113E-04 0.231E+04   0.109E-03 0.316E-03 -.231E+04   -.353E-04 0.204E-04 -.106E+00   -.143E-06 0.609E-07 -.289E-01
   -.461E-03 0.284E-03 0.780E+03   0.602E-03 -.284E-03 -.780E+03   0.932E-05 -.538E-05 -.405E+00   0.829E-07 -.465E-07 -.279E-01
   0.448E-03 -.272E-03 -.780E+03   -.405E-03 0.423E-03 0.780E+03   -.932E-05 0.538E-05 0.405E+00   -.962E-07 0.652E-07 0.279E-01
   0.191E-04 -.296E-04 -.231E+04   0.876E-04 0.300E-03 0.231E+04   0.353E-04 -.204E-04 0.106E+00   0.130E-06 -.786E-07 0.289E-01
   0.233E-05 0.163E-04 0.231E+04   0.227E-03 0.473E-04 -.231E+04   -.353E-04 0.204E-04 -.106E+00   -.144E-06 0.713E-07 -.289E-01
   -.450E-03 0.233E-03 0.780E+03   0.631E-03 -.182E-04 -.780E+03   0.932E-05 -.538E-05 -.405E+00   0.923E-07 -.484E-07 -.279E-01
   0.479E-03 -.267E-03 -.780E+03   -.438E-03 0.311E-03 0.780E+03   -.932E-05 0.538E-05 0.405E+00   -.939E-07 0.723E-07 0.279E-01
   0.465E-04 -.167E-06 -.231E+04   0.213E-03 0.257E-04 0.231E+04   0.353E-04 -.204E-04 0.106E+00   0.131E-06 -.579E-07 0.289E-01
 -----------------------------------------------------------------------------------------------
   0.969E-03 0.144E-02 0.550E-02   0.122E-13 0.355E-12 -.318E-11   0.355E-17 -.775E-17 0.161E-14   0.161E-07 0.267E-07 -.141E-04
 
 
 POSITION                                       TOTAL-FORCE (eV/Angst)
 -----------------------------------------------------------------------------------
     10.55998      0.00001      1.11585        -0.000060      0.000035     -0.004689
      2.63997      1.52422      3.55048        -0.000023      0.000013     -0.027382
      0.00003      3.04839      5.94592         0.000023     -0.000013      0.027382
     -5.27998      9.14521      8.38055         0.000060     -0.000035      0.004689
      9.23998      2.28632      1.11585        -0.000060      0.000035     -0.004689
      1.31997      3.81053      3.55048        -0.000023      0.000013     -0.027382
      1.32003      0.76209      5.94592         0.000023     -0.000013      0.027382
     -1.31998      2.28629      8.38055         0.000060     -0.000035      0.004689
      1.31998      2.28632      1.11585        -0.000060      0.000035     -0.004689
     -1.32003      3.81053      3.55048        -0.000023      0.000013     -0.027382
      3.96003      0.76209      5.94592         0.000023     -0.000013      0.027382
      1.32002      2.28629      8.38055         0.000060     -0.000035      0.004689
      2.63998      0.00001      1.11585        -0.000060      0.000035     -0.004689
     -0.00003      1.52422      3.55048        -0.000023      0.000013     -0.027382
      2.64003      3.04839      5.94592         0.000023     -0.000013      0.027382
     -2.63998      9.14521      8.38055         0.000060     -0.000035      0.004689
      5.27998      0.00001      1.11585        -0.000060      0.000035     -0.004689
      7.91997      1.52422      3.55048        -0.000023      0.000013     -0.027382
      5.28003      3.04839      5.94592         0.000023     -0.000013      0.027382
      0.00002      9.14521      8.38055         0.000060     -0.000035      0.004689
      3.95998      2.28632      1.11585        -0.000060      0.000035     -0.004689
      6.59997      3.81053      3.55048        -0.000023      0.000013     -0.027382
      6.60003      0.76209      5.94592         0.000023     -0.000013      0.027382
      3.96002      2.28629      8.38055         0.000060     -0.000035      0.004689
      6.59998      2.28632      1.11585        -0.000060      0.000035     -0.004689
      3.95997      3.81053      3.55048        -0.000023      0.000013     -0.027382
      9.24003      0.76209      5.94592         0.000023     -0.000013      0.027382
      6.60002      2.28629      8.38055         0.000060     -0.000035      0.004689
      7.91998      0.00001      1.11585        -0.000060      0.000035     -0.004689
      5.27997      1.52422      3.55048        -0.000023      0.000013     -0.027382
      7.92003      3.04839      5.94592         0.000023     -0.000013      0.027382
      2.64002      9.14521      8.38055         0.000060     -0.000035      0.004689
      7.91998      4.57263      1.11585        -0.000060      0.000035     -0.004689
     -0.00003      6.09683      3.55048        -0.000023      0.000013     -0.027382
     -2.63997      7.62101      5.94592         0.000023     -0.000013      0.027382
     -2.63998      4.57260      8.38055         0.000060     -0.000035      0.004689
      6.59998      6.85894      1.11585        -0.000060      0.000035     -0.004689
     -1.32003      8.38314      3.55048        -0.000023      0.000013     -0.027382
     -1.31997      5.33470      5.94592         0.000023     -0.000013      0.027382
     -3.95998      6.85891      8.38055         0.000060     -0.000035      0.004689
     -1.32002      6.85894      1.11585        -0.000060      0.000035     -0.004689
     -3.96003      8.38314      3.55048        -0.000023      0.000013     -0.027382
      1.32003      5.33470      5.94592         0.000023     -0.000013      0.027382
     -1.31998      6.85891      8.38055         0.000060     -0.000035      0.004689
     -0.00002      4.57263      1.11585        -0.000060      0.000035     -0.004689
     -2.64003      6.09683      3.55048        -0.000023      0.000013     -0.027382
      0.00003      7.62101      5.94592         0.000023     -0.000013      0.027382
      0.00002      4.57260      8.38055         0.000060     -0.000035      0.004689
      2.63998      4.57263      1.11585        -0.000060      0.000035     -0.004689
      5.27997      6.09683      3.55048        -0.000023      0.000013     -0.027382
      2.64003      7.62101      5.94592         0.000023     -0.000013      0.027382
      2.64002      4.57260      8.38055         0.000060     -0.000035      0.004689
      1.31998      6.85894      1.11585        -0.000060      0.000035     -0.004689
      3.95997      8.38314      3.55048        -0.000023      0.000013     -0.027382
      3.96003      5.33470      5.94592         0.000023     -0.000013      0.027382
      1.32002      6.85891      8.38055         0.000060     -0.000035      0.004689
      3.95998      6.85894      1.11585        -0.000060      0.000035     -0.004689
      1.31997      8.38314      3.55048        -0.000023      0.000013     -0.027382
      6.60003      5.33470      5.94592         0.000023     -0.000013      0.027382
      3.96002      6.85891      8.38055         0.000060     -0.000035      0.004689
      5.27998      4.57263      1.11585        -0.000060      0.000035     -0.004689
      2.63997      6.09683      3.55048        -0.000023      0.000013     -0.027382
      5.28003      7.62101      5.94592         0.000023     -0.000013      0.027382
      5.28002      4.57260      8.38055         0.000060     -0.000035      0.004689
 -----------------------------------------------------------------------------------
    total drift:                                0.000969      0.001440      0.005491


--------------------------------------------------------------------------------------------------------



  FREE ENERGIE OF THE ION-ELECTRON SYSTEM (eV)
  ---------------------------------------------------
  free  energy   TOTEN  =      -405.08622820 eV

  energy  without entropy=     -405.07036238  energy(sigma->0) =     -405.08093959
 


--------------------------------------------------------------------------------------------------------


    POTLOK:  cpu time    0.4050: real time    0.4062


--------------------------------------------------------------------------------------------------------




--------------------------------------------------------------------------------------------------------


  
 reached required accuracy - stopping structural energy minimisation
     LOOP+:  cpu time  785.9606: real time  788.1226
    4ORBIT:  cpu time    0.0000: real time    0.0000

 total amount of memory used by VASP MPI-rank0   178693. kBytes
=======================================================================

   base      :      30000. kBytes
   nonlr-proj:      30718. kBytes
   fftplans  :      17093. kBytes
   grid      :      42083. kBytes
   one-center:        497. kBytes
   wavefun   :      58302. kBytes
 
  
  
 General timing and accounting informations for this job:
 ========================================================
  
                  Total CPU time used (sec):      798.609
                            User time (sec):      796.032
                          System time (sec):        2.577
                         Elapsed time (sec):      803.071
  
                   Maximum memory used (kb):      501428.
                   Average memory used (kb):           0.
  
                          Minor page faults:       525567
                          Major page faults:            0
                 Voluntary context switches:         6820
