 vasp.5.4.4.18Apr17-6-g9f103f2a35 (build Nov 30 2020 22:55:02) complex          
  
 executed on             LinuxIFC date 2023.07.29  23:16:57
 running on   40 total cores
 distrk:  each k-point on   40 cores,    1 groups
 distr:  one band on NCORES_PER_BAND=   4 cores,   10 groups


--------------------------------------------------------------------------------------------------------


 INCAR:
 POTCAR:    PAW_PBE Pt 04Feb2005                  
 POTCAR:    PAW_PBE Cu 22Jun2005                  
 POTCAR:    PAW_PBE Ni 02Aug2007                  
 POTCAR:    PAW_PBE Fe 06Sep2000                  
 POTCAR:    PAW_PBE Co 02Aug2007                  
 POTCAR:    PAW_PBE H 15Jun2001                   
 POTCAR:    PAW_PBE Pt 04Feb2005                  
   VRHFIN =Pt: s1d9                                                             
   LEXCH  = PE                                                                  
   EATOM  =   729.1176 eV,   53.5886 Ry                                         
                                                                                
   TITEL  = PAW_PBE Pt 04Feb2005                                                
   LULTRA =        F    use ultrasoft PP ?                                      
   IUNSCR =        1    unscreen: 0-lin 1-nonlin 2-no                           
   RPACOR =    2.330    partial core radius                                     
   POMASS =  195.080; ZVAL   =   10.000    mass and valenz                      
   RCORE  =    2.600    outmost cutoff radius                                   
   RWIGS  =    2.750; RWIGS  =    1.455    wigner-seitz radius (au A)           
   ENMAX  =  230.283; ENMIN  =  172.712 eV                                      
   ICORE  =        3    local potential                                         
   LCOR   =        T    correct aug charges                                     
   LPAW   =        T    paw PP                                                  
   EAUG   =  358.966                                                            
   DEXC   =    0.000                                                            
   RMAX   =    2.658    core radius for proj-oper                               
   RAUG   =    1.300    factor for augmentation sphere                          
   RDEP   =    2.761    radius for radial grids                                 
   RDEPT  =    2.203    core radius for aug-charge                              
                                                                                
   Atomic configuration                                                         
   16 entries                                                                   
     n  l   j            E        occ.                                          
     1  0  0.50    -78401.1885   2.0000                                         
     2  0  0.50    -13770.7750   2.0000                                         
     2  1  1.50    -11931.0468   6.0000                                         
     3  0  0.50     -3234.7234   2.0000                                         
     3  1  1.50     -2699.2216   6.0000                                         
     3  2  2.50     -2119.5714  10.0000                                         
     4  0  0.50      -695.1528   2.0000                                         
     4  1  1.50      -519.6034   6.0000                                         
     4  2  2.50      -306.6786  10.0000                                         
     4  3  3.50       -70.1041  14.0000                                         
     5  0  0.50      -101.7747   2.0000                                         
     5  1  1.50       -55.9873   6.0000                                         
     5  2  2.50        -6.1423   9.0000                                         
     6  0  0.50        -5.6573   1.0000                                         
     6  1  1.50        -6.8029   0.0000                                         
     5  3  2.50        -1.3606   0.0000                                         
   Description                                                                  
     l       E           TYP  RCUT    TYP  RCUT                                 
     2     -6.1423404     23  2.500                                             
     2     -7.5029230     23  2.500                                             
     0     -5.6573207     23  2.500                                             
     0      0.7416693     23  2.500                                             
     1     -2.7211652     23  2.600                                             
     1     20.4087390     23  2.600                                             
     3     -1.3605826     23  2.500                                             
  local pseudopotential read in
  partial core-charges read in
  partial kinetic energy density read in
  atomic valenz-charges read in
  non local Contribution for L=           2  read in
    real space projection operators read in
  non local Contribution for L=           2  read in
    real space projection operators read in
  non local Contribution for L=           0  read in
    real space projection operators read in
  non local Contribution for L=           0  read in
    real space projection operators read in
  non local Contribution for L=           1  read in
    real space projection operators read in
  non local Contribution for L=           1  read in
    real space projection operators read in
    PAW grid and wavefunctions read in
 
   number of l-projection  operators is LMAX  =           6
   number of lm-projection operators is LMMAX =          18
 
 POTCAR:    PAW_PBE Cu 22Jun2005                  
   VRHFIN =Cu: d10 p1                                                           
   LEXCH  = PE                                                                  
   EATOM  =  1390.9808 eV,  102.2342 Ry                                         
                                                                                
   TITEL  = PAW_PBE Cu 22Jun2005                                                
   LULTRA =        F    use ultrasoft PP ?                                      
   IUNSCR =        1    unscreen: 0-lin 1-nonlin 2-no                           
   RPACOR =    2.000    partial core radius                                     
   POMASS =   63.546; ZVAL   =   11.000    mass and valenz                      
   RCORE  =    2.300    outmost cutoff radius                                   
   RWIGS  =    2.200; RWIGS  =    1.164    wigner-seitz radius (au A)           
   ENMAX  =  295.446; ENMIN  =  221.585 eV                                      
   ICORE  =        3    local potential                                         
   LCOR   =        T    correct aug charges                                     
   LPAW   =        T    paw PP                                                  
   EAUG   =  586.980                                                            
   DEXC   =    0.000                                                            
   RMAX   =    2.344    core radius for proj-oper                               
   RAUG   =    1.300    factor for augmentation sphere                          
   RDEP   =    2.302    radius for radial grids                                 
   RDEPT  =    1.771    core radius for aug-charge                              
                                                                                
   Atomic configuration                                                         
    9 entries                                                                   
     n  l   j            E        occ.                                          
     1  0  0.50     -8850.2468   2.0000                                         
     2  0  0.50     -1062.3498   2.0000                                         
     2  1  1.50      -916.8226   6.0000                                         
     3  0  0.50      -114.6929   2.0000                                         
     3  1  1.50       -72.1325   6.0000                                         
     3  2  2.50        -5.0394  10.0000                                         
     4  0  0.50        -4.6097   1.0000                                         
     4  1  0.50        -4.0817   0.0000                                         
     4  3  2.50        -1.3606   0.0000                                         
   Description                                                                  
     l       E           TYP  RCUT    TYP  RCUT                                 
     2     -5.0393973     23  2.200                                             
     2     10.8846608     23  2.200                                             
     0     -4.6097109     23  2.200                                             
     0      8.2520465     23  2.200                                             
     1     -2.7211652     23  2.200                                             
     1     21.7055443     23  2.200                                             
     3      2.7211652     23  2.300                                             
  local pseudopotential read in
  partial core-charges read in
  partial kinetic energy density read in
  atomic valenz-charges read in
  non local Contribution for L=           2  read in
    real space projection operators read in
  non local Contribution for L=           2  read in
    real space projection operators read in
  non local Contribution for L=           0  read in
    real space projection operators read in
  non local Contribution for L=           0  read in
    real space projection operators read in
  non local Contribution for L=           1  read in
    real space projection operators read in
  non local Contribution for L=           1  read in
    real space projection operators read in
    PAW grid and wavefunctions read in
 
   number of l-projection  operators is LMAX  =           6
   number of lm-projection operators is LMMAX =          18
 
 POTCAR:    PAW_PBE Ni 02Aug2007                  
   VRHFIN =Ni:                                                                  
   LEXCH  = PE                                                                  
   EATOM  =  1077.6739 eV,   79.2068 Ry                                         
                                                                                
   TITEL  = PAW_PBE Ni 02Aug2007                                                
   LULTRA =        F    use ultrasoft PP ?                                      
   IUNSCR =        1    unscreen: 0-lin 1-nonlin 2-no                           
   RPACOR =    2.000    partial core radius                                     
   POMASS =   58.690; ZVAL   =   10.000    mass and valenz                      
   RCORE  =    2.300    outmost cutoff radius                                   
   RWIGS  =    2.430; RWIGS  =    1.286    wigner-seitz radius (au A)           
   ENMAX  =  269.532; ENMIN  =  202.149 eV                                      
   RCLOC  =    1.201    cutoff for local pot                                    
   LCOR   =        T    correct aug charges                                     
   LPAW   =        T    paw PP                                                  
   EAUG   =  544.565                                                            
   DEXC   =    0.000                                                            
   RMAX   =    2.357    core radius for proj-oper                               
   RAUG   =    1.300    factor for augmentation sphere                          
   RDEP   =    2.390    radius for radial grids                                 
   RDEPT  =    1.838    core radius for aug-charge                              
                                                                                
   Atomic configuration                                                         
    9 entries                                                                   
     n  l   j            E        occ.                                          
     1  0  0.50     -8206.4253   2.0000                                         
     2  0  0.50      -976.1748   2.0000                                         
     2  1  1.50      -839.0571   6.0000                                         
     3  0  0.50      -105.9991   2.0000                                         
     3  1  1.50       -66.4603   6.0000                                         
     3  2  2.50        -4.6458   9.0000                                         
     4  0  0.50        -4.4926   1.0000                                         
     4  1  1.50        -4.0817   0.0000                                         
     4  3  2.50        -1.3606   0.0000                                         
   Description                                                                  
     l       E           TYP  RCUT    TYP  RCUT                                 
     2     -4.6457903     23  2.300                                             
     2     -6.0063729     23  2.300                                             
     0     -4.4925590     23  2.300                                             
     0      5.0102601     23  2.300                                             
     1     -2.7211652     23  2.300                                             
     1     16.5183231     23  2.300                                             
  local pseudopotential read in
  partial core-charges read in
  partial kinetic energy density read in
  atomic valenz-charges read in
  non local Contribution for L=           2  read in
    real space projection operators read in
  non local Contribution for L=           2  read in
    real space projection operators read in
  non local Contribution for L=           0  read in
    real space projection operators read in
  non local Contribution for L=           0  read in
    real space projection operators read in
  non local Contribution for L=           1  read in
    real space projection operators read in
  non local Contribution for L=           1  read in
    real space projection operators read in
    PAW grid and wavefunctions read in
 
   number of l-projection  operators is LMAX  =           6
   number of lm-projection operators is LMMAX =          18
 
 POTCAR:    PAW_PBE Fe 06Sep2000                  
   VRHFIN =Fe:  d7 s1                                                           
   LEXCH  = PE                                                                  
   EATOM  =   594.3153 eV,   43.6809 Ry                                         
                                                                                
   TITEL  = PAW_PBE Fe 06Sep2000                                                
   LULTRA =        F    use ultrasoft PP ?                                      
   IUNSCR =        1    unscreen: 0-lin 1-nonlin 2-no                           
   RPACOR =    2.000    partial core radius                                     
   POMASS =   55.847; ZVAL   =    8.000    mass and valenz                      
   RCORE  =    2.300    outmost cutoff radius                                   
   RWIGS  =    2.460; RWIGS  =    1.302    wigner-seitz radius (au A)           
   ENMAX  =  267.882; ENMIN  =  200.911 eV                                      
   RCLOC  =    1.701    cutoff for local pot                                    
   LCOR   =        T    correct aug charges                                     
   LPAW   =        T    paw PP                                                  
   EAUG   =  511.368                                                            
   DEXC   =    0.000                                                            
   RMAX   =    2.356    core radius for proj-oper                               
   RAUG   =    1.300    factor for augmentation sphere                          
   RDEP   =    2.442    radius for radial grids                                 
   RDEPT  =    1.890    core radius for aug-charge                              
                                                                                
   Atomic configuration                                                         
    9 entries                                                                   
     n  l   j            E        occ.                                          
     1  0  0.50     -6993.8440   2.0000                                         
     2  0  0.50      -814.6047   2.0000                                         
     2  1  1.50      -693.3689   6.0000                                         
     3  0  0.50       -89.4732   2.0000                                         
     3  1  1.50       -55.6373   6.0000                                         
     3  2  2.50        -3.8151   7.0000                                         
     4  0  0.50        -4.2551   1.0000                                         
     4  1  1.50        -3.4015   0.0000                                         
     4  3  2.50        -1.3606   0.0000                                         
   Description                                                                  
     l       E           TYP  RCUT    TYP  RCUT                                 
     2     -3.8151135     23  2.300                                             
     2     -5.1756961     23  2.300                                             
     0     -4.2550963     23  2.300                                             
     0      7.2035603     23  2.300                                             
     1     -2.7211652     23  2.300                                             
     1     18.4316424     23  2.300                                             
  local pseudopotential read in
  partial core-charges read in
  partial kinetic energy density read in
  atomic valenz-charges read in
  non local Contribution for L=           2  read in
    real space projection operators read in
  non local Contribution for L=           2  read in
    real space projection operators read in
  non local Contribution for L=           0  read in
    real space projection operators read in
  non local Contribution for L=           0  read in
    real space projection operators read in
  non local Contribution for L=           1  read in
    real space projection operators read in
  non local Contribution for L=           1  read in
    real space projection operators read in
    PAW grid and wavefunctions read in
 
   number of l-projection  operators is LMAX  =           6
   number of lm-projection operators is LMMAX =          18
 
 POTCAR:    PAW_PBE Co 02Aug2007                  
   VRHFIN =Co: d8 s1                                                            
   LEXCH  = PE                                                                  
   EATOM  =   813.3670 eV,   59.7808 Ry                                         
                                                                                
   TITEL  = PAW_PBE Co 02Aug2007                                                
   LULTRA =        F    use ultrasoft PP ?                                      
   IUNSCR =        1    unscreen: 0-lin 1-nonlin 2-no                           
   RPACOR =    2.000    partial core radius                                     
   POMASS =   58.933; ZVAL   =    9.000    mass and valenz                      
   RCORE  =    2.300    outmost cutoff radius                                   
   RWIGS  =    2.460; RWIGS  =    1.302    wigner-seitz radius (au A)           
   ENMAX  =  267.968; ENMIN  =  200.976 eV                                      
   RCLOC  =    1.203    cutoff for local pot                                    
   LCOR   =        T    correct aug charges                                     
   LPAW   =        T    paw PP                                                  
   EAUG   =  477.818                                                            
   DEXC   =    0.000                                                            
   RMAX   =    2.360    core radius for proj-oper                               
   RAUG   =    1.300    factor for augmentation sphere                          
   RDEP   =    2.393    radius for radial grids                                 
   RDEPT  =    1.864    core radius for aug-charge                              
                                                                                
   Atomic configuration                                                         
    9 entries                                                                   
     n  l   j            E        occ.                                          
     1  0  0.50     -7587.6674   2.0000                                         
     2  0  0.50      -893.6084   2.0000                                         
     2  1  1.50      -764.5805   6.0000                                         
     3  0  0.50       -97.5973   2.0000                                         
     3  1  1.50       -60.9648   6.0000                                         
     3  2  2.50        -4.2382   8.0000                                         
     4  0  0.50        -4.3746   1.0000                                         
     4  1  1.50        -4.0817   0.0000                                         
     4  3  2.50        -1.3606   0.0000                                         
   Description                                                                  
     l       E           TYP  RCUT    TYP  RCUT                                 
     2     -4.2382362     23  2.300                                             
     2     -5.5988188     23  2.300                                             
     0     -4.3745797     23  2.300                                             
     0      5.7660125     23  2.300                                             
     1     -2.7211652     23  2.300                                             
     1     16.9860234     23  2.300                                             
  local pseudopotential read in
  partial core-charges read in
  partial kinetic energy density read in
  atomic valenz-charges read in
  non local Contribution for L=           2  read in
    real space projection operators read in
  non local Contribution for L=           2  read in
    real space projection operators read in
  non local Contribution for L=           0  read in
    real space projection operators read in
  non local Contribution for L=           0  read in
    real space projection operators read in
  non local Contribution for L=           1  read in
    real space projection operators read in
  non local Contribution for L=           1  read in
    real space projection operators read in
    PAW grid and wavefunctions read in
 
   number of l-projection  operators is LMAX  =           6
   number of lm-projection operators is LMMAX =          18
 
 POTCAR:    PAW_PBE H 15Jun2001                   
   VRHFIN =H: ultrasoft test                                                    
   LEXCH  = PE                                                                  
   EATOM  =    12.4884 eV,    0.9179 Ry                                         
                                                                                
   TITEL  = PAW_PBE H 15Jun2001                                                 
   LULTRA =        F    use ultrasoft PP ?                                      
   IUNSCR =        0    unscreen: 0-lin 1-nonlin 2-no                           
   RPACOR =    0.000    partial core radius                                     
   POMASS =    1.000; ZVAL   =    1.000    mass and valenz                      
   RCORE  =    1.100    outmost cutoff radius                                   
   RWIGS  =    0.700; RWIGS  =    0.370    wigner-seitz radius (au A)           
   ENMAX  =  250.000; ENMIN  =  200.000 eV                                      
   RCLOC  =    0.701    cutoff for local pot                                    
   LCOR   =        T    correct aug charges                                     
   LPAW   =        T    paw PP                                                  
   EAUG   =  400.000                                                            
   RMAX   =    1.123    core radius for proj-oper                               
   RAUG   =    1.200    factor for augmentation sphere                          
   RDEP   =    1.112    radius for radial grids                                 
   RDEPT  =    0.926    core radius for aug-charge                              
                                                                                
   Atomic configuration                                                         
    2 entries                                                                   
     n  l   j            E        occ.                                          
     1  0  0.50        -6.4927   1.0000                                         
     2  1  0.50        -3.4015   0.0000                                         
   Description                                                                  
     l       E           TYP  RCUT    TYP  RCUT                                 
     0     -6.4927494     23  1.100                                             
     0      6.8029130     23  1.100                                             
     1     -4.0817478     23  1.100                                             
  local pseudopotential read in
  atomic valenz-charges read in
  non local Contribution for L=           0  read in
    real space projection operators read in
  non local Contribution for L=           0  read in
    real space projection operators read in
  non local Contribution for L=           1  read in
    real space projection operators read in
    PAW grid and wavefunctions read in
 
   number of l-projection  operators is LMAX  =           3
   number of lm-projection operators is LMMAX =           5
 
 Optimization of the real space projectors (new method)

 maximal supplied QI-value         = 14.36
 optimisation between [QCUT,QGAM] = [ 11.92, 23.98] = [ 39.79,161.09] Ry 
 Optimized for a Real-space Cutoff    1.49 Angstroem

   l    n(q)    QCUT    max X(q) W(low)/X(q) W(high)/X(q)  e(spline) 
   2     10    11.920    66.195    0.79E-04    0.18E-03    0.24E-06
   2     10    11.920    64.643    0.81E-04    0.19E-03    0.24E-06
   0     11    11.920    95.520    0.28E-04    0.54E-04    0.18E-06
   0     11    11.920    63.403    0.27E-04    0.52E-04    0.17E-06
   1     10    11.920    19.961    0.18E-04    0.11E-03    0.23E-06
   1     10    11.920    13.289    0.25E-04    0.87E-04    0.19E-06
 Optimization of the real space projectors (new method)

 maximal supplied QI-value         = 16.25
 optimisation between [QCUT,QGAM] = [ 11.86, 23.89] = [ 39.41,159.82] Ry 
 Optimized for a Real-space Cutoff    1.49 Angstroem

   l    n(q)    QCUT    max X(q) W(low)/X(q) W(high)/X(q)  e(spline) 
   2     10    11.864     4.610    0.10E-03    0.20E-03    0.29E-06
   2     10    11.864     8.522    0.17E-03    0.33E-03    0.50E-06
   0     11    11.864    51.609    0.52E-04    0.55E-04    0.33E-06
   0     11    11.864    27.747    0.46E-04    0.52E-04    0.31E-06
   1     10    11.864    20.408    0.54E-04    0.25E-04    0.21E-06
   1     10    11.864    13.425    0.48E-04    0.22E-04    0.18E-06
 Optimization of the real space projectors (new method)

 maximal supplied QI-value         = 16.25
 optimisation between [QCUT,QGAM] = [ 11.86, 23.89] = [ 39.41,159.82] Ry 
 Optimized for a Real-space Cutoff    1.33 Angstroem

   l    n(q)    QCUT    max X(q) W(low)/X(q) W(high)/X(q)  e(spline) 
   2      9    11.864    60.317    0.21E-03    0.51E-03    0.25E-06
   2      9    11.864    55.921    0.21E-03    0.51E-03    0.26E-06
   0      9    11.864    51.690    0.22E-03    0.30E-04    0.17E-06
   0      9    11.864    30.015    0.20E-03    0.28E-04    0.15E-06
   1      9    11.864    18.849    0.76E-04    0.33E-03    0.17E-06
   1      9    11.864    14.624    0.60E-04    0.28E-03    0.15E-06
 Optimization of the real space projectors (new method)

 maximal supplied QI-value         = 16.25
 optimisation between [QCUT,QGAM] = [ 11.86, 23.89] = [ 39.41,159.82] Ry 
 Optimized for a Real-space Cutoff    1.49 Angstroem

   l    n(q)    QCUT    max X(q) W(low)/X(q) W(high)/X(q)  e(spline) 
   2     10    11.864    80.901    0.13E-03    0.23E-03    0.37E-06
   2     10    11.864    75.754    0.13E-03    0.23E-03    0.38E-06
   0     11    11.864    58.752    0.44E-04    0.11E-04    0.20E-06
   0     11    11.864    30.679    0.36E-04    0.10E-04    0.18E-06
   1     10    11.864    17.977    0.31E-04    0.45E-04    0.10E-06
   1     10    11.864    13.559    0.25E-04    0.37E-04    0.89E-07
 Optimization of the real space projectors (new method)

 maximal supplied QI-value         = 16.25
 optimisation between [QCUT,QGAM] = [ 11.86, 23.89] = [ 39.41,159.82] Ry 
 Optimized for a Real-space Cutoff    1.33 Angstroem

   l    n(q)    QCUT    max X(q) W(low)/X(q) W(high)/X(q)  e(spline) 
   2      9    11.864    65.824    0.22E-03    0.53E-03    0.26E-06
   2      9    11.864    61.429    0.22E-03    0.53E-03    0.26E-06
   0      9    11.864    56.174    0.21E-03    0.32E-04    0.15E-06
   0      9    11.864    31.263    0.19E-03    0.30E-04    0.14E-06
   1      9    11.864    19.828    0.63E-04    0.30E-03    0.16E-06
   1      9    11.864    15.139    0.49E-04    0.25E-03    0.13E-06
 Optimization of the real space projectors (new method)

 maximal supplied QI-value         = 34.20
 optimisation between [QCUT,QGAM] = [ 11.97, 23.94] = [ 40.13,160.53] Ry 
 Optimized for a Real-space Cutoff    1.18 Angstroem

   l    n(q)    QCUT    max X(q) W(low)/X(q) W(high)/X(q)  e(spline) 
   0      8    11.971    19.460    0.15E-03    0.31E-03    0.25E-06
   0      8    11.971    12.209    0.13E-03    0.29E-03    0.25E-06
   1      8    11.971     4.655    0.22E-03    0.24E-03    0.21E-06
  PAW_PBE Pt 04Feb2005                  :
 energy of atom  1       EATOM= -729.1176
 kinetic energy error for atom=    0.0021 (will be added to EATOM!!)
  PAW_PBE Cu 22Jun2005                  :
 energy of atom  2       EATOM=-1390.9808
 kinetic energy error for atom=    0.0036 (will be added to EATOM!!)
  PAW_PBE Ni 02Aug2007                  :
 energy of atom  3       EATOM=-1077.6739
 kinetic energy error for atom=    0.0027 (will be added to EATOM!!)
  PAW_PBE Fe 06Sep2000                  :
 energy of atom  4       EATOM= -594.3153
 kinetic energy error for atom=    0.0024 (will be added to EATOM!!)
  PAW_PBE Co 02Aug2007                  :
 energy of atom  5       EATOM= -813.3670
 kinetic energy error for atom=    0.0026 (will be added to EATOM!!)
  PAW_PBE H 15Jun2001                   :
 energy of atom  6       EATOM=  -12.4884
 kinetic energy error for atom=    0.0008 (will be added to EATOM!!)
 
 
 POSCAR: 10.56                                   
  positions in direct lattice
  velocities in cartesian coordinates
 exchange correlation table for  LEXCH =        8
   RHO(1)=    0.500       N(1)  =     2000
   RHO(2)=  100.500       N(2)  =     4000
 


--------------------------------------------------------------------------------------------------------


 ion  position               nearest neighbor table
   1  0.790  0.877  0.316-  49 2.55  59 2.56  19 2.63  33 2.66  61 2.67  60 2.67  29 2.68  28 2.69
                             2 2.71   4 2.81  11 2.84  12 2.86
   2  0.044  0.882  0.316-  79 2.55  77 2.56  60 2.62  30 2.64  22 2.65  28 2.66  52 2.68   1 2.71
                            33 2.74   6 2.78   4 2.86  16 2.90
   3  0.287  0.379  0.320-  64 2.57  39 2.60  33 2.60  68 2.64  31 2.65  19 2.68  43 2.69  30 2.71
                            18 2.78   5 2.79  25 2.82  13 2.82
   4  0.869  0.962  0.424-  17 2.61  11 2.62  12 2.66  60 2.68   9 2.68  16 2.72   6 2.76   1 2.81
                             2 2.86
   5  0.124  0.459  0.427-  10 2.60  16 2.61   7 2.62  12 2.63  13 2.63  25 2.67  39 2.78  33 2.79
                             3 2.79
   6  0.129  0.964  0.421-   8 2.59  10 2.60  14 2.66   9 2.68  16 2.75   4 2.76   2 2.78  52 2.80
                            22 2.85
   7  0.875  0.460  0.423-   9 2.61  12 2.61   5 2.62  10 2.63  15 2.63  27 2.67  39 2.70  29 2.74
                            75 2.77
   8  0.377  0.960  0.419-   6 2.59  11 2.60  27 2.61  14 2.64  43 2.64  13 2.64  10 2.66  61 2.67
                            52 2.70
   9  0.873  0.214  0.422-   7 2.61  15 2.61  17 2.64  60 2.65  10 2.65   6 2.68  75 2.68   4 2.68
                            22 2.83
  10  0.125  0.212  0.423-   6 2.60   5 2.60  13 2.62   7 2.63   9 2.65   8 2.66  39 2.73  43 2.74
                            22 2.84
  11  0.622  0.961  0.424-  81 1.73   8 2.60   4 2.62  27 2.62  13 2.63  17 2.66  12 2.66  61 2.81
                            19 2.83   1 2.84
  12  0.874  0.708  0.425-   7 2.61   5 2.63  27 2.63  16 2.66   4 2.66  11 2.66  33 2.75  29 2.81
                             1 2.86
  13  0.374  0.210  0.428-  81 1.67  10 2.62  11 2.63   5 2.63   8 2.64  17 2.65  25 2.65   3 2.82
                            43 2.84  19 2.90
  14  0.378  0.710  0.426-  27 2.60  15 2.62   8 2.64  25 2.64   6 2.66  16 2.67  44 2.74  30 2.79
                            52 2.86
  15  0.625  0.461  0.424-   9 2.61  14 2.62   7 2.63  27 2.64  25 2.64  17 2.65  44 2.74  18 2.77
                            75 2.80
  16  0.127  0.705  0.425-  25 2.60   5 2.61  12 2.66  14 2.67   4 2.72   6 2.75  33 2.75  30 2.79
                             2 2.90
  17  0.624  0.211  0.425-  81 1.82   4 2.61  25 2.63   9 2.64  15 2.65  13 2.65  11 2.66  60 2.73
                            18 2.77  19 2.90
  18  0.554  0.371  0.318-  67 2.54  75 2.55  60 2.56  68 2.60  26 2.67  44 2.68  19 2.72  30 2.75
                            15 2.77  17 2.77   3 2.78  25 2.90
  19  0.537  0.122  0.315-  59 2.54  68 2.54  80 2.54  43 2.60  61 2.61   1 2.63   3 2.68  18 2.72
                            60 2.75  11 2.83  13 2.90  17 2.90
  20  0.547  0.122  0.038-  57 2.54  37 2.59  48 2.60  62 2.60  47 2.60  34 2.65  45 2.68  63 2.71
                            56 2.75
  21  0.124  0.462  0.127-  36 2.55  47 2.57  40 2.58  58 2.61  42 2.61  64 2.63  31 2.66  69 2.66
                            50 2.67  74 2.69  70 2.69  57 2.69
  22  0.040  0.135  0.313-  65 2.46  75 2.54  55 2.54  77 2.58  39 2.59  43 2.59  60 2.65   2 2.65
                            52 2.74   9 2.83  10 2.84   6 2.85
  23  0.032  0.135  0.034-  70 2.57  62 2.59  40 2.59  41 2.60  76 2.63  45 2.70  24 2.70  35 2.71
                            53 2.86
  24  0.127  0.955  0.132-  79 2.52  55 2.55  53 2.61  35 2.62  77 2.62  58 2.62  73 2.64  70 2.65
                            38 2.67  66 2.68  23 2.70  41 2.74
  25  0.376  0.461  0.427-  16 2.60  17 2.63  15 2.64  14 2.64  13 2.65   5 2.67   3 2.82  30 2.84
                            18 2.90
  26  0.458  0.546  0.220-  73 2.50  74 2.51  51 2.53  79 2.60  64 2.61  30 2.65  68 2.66  18 2.67
                            32 2.69  44 2.71  78 2.71  67 2.74
  27  0.623  0.712  0.424-  14 2.60   8 2.61  11 2.62  12 2.63  15 2.64   7 2.67  44 2.71  61 2.76
                            29 2.77
  28  0.964  0.793  0.218-  66 2.54  50 2.56  58 2.58  77 2.63  42 2.64  64 2.65   2 2.66  79 2.68
                             1 2.69  59 2.70  33 2.74  49 2.75
  29  0.789  0.624  0.319-  44 2.59  42 2.59  32 2.61  39 2.61  75 2.64  61 2.65  49 2.65  33 2.66
                             1 2.68   7 2.74  27 2.77  12 2.81
  30  0.293  0.632  0.319-  79 2.56  44 2.60  64 2.61  52 2.62   2 2.64  26 2.65  33 2.71   3 2.71
                            18 2.75  14 2.79  16 2.79  25 2.84
  31  0.211  0.284  0.223-  57 2.55  70 2.55  65 2.59  55 2.61  43 2.61  80 2.64   3 2.65  21 2.66
                            68 2.67  39 2.67  42 2.71  64 2.72
  32  0.717  0.537  0.221-  69 2.51  54 2.56  51 2.57  65 2.60  29 2.61  42 2.61  75 2.64  67 2.64
                            49 2.68  26 2.69  44 2.75  78 2.78
  33  0.040  0.625  0.321-  42 2.58  39 2.59   3 2.60  64 2.65   1 2.66  29 2.66  30 2.71   2 2.74
                            28 2.74  12 2.75  16 2.75   5 2.79
  34  0.797  0.870  0.037-  50 2.48  66 2.50  36 2.54  48 2.61  35 2.62  63 2.64  71 2.65  20 2.65
                            62 2.72
  35  0.044  0.872  0.035-  58 2.56  36 2.57  66 2.61  24 2.62  34 2.62  72 2.70  23 2.71  62 2.72
                            53 2.74
  36  0.039  0.631  0.035-  58 2.54  34 2.54  21 2.55  35 2.57  50 2.59  40 2.68  71 2.72  72 2.76
                            47 2.78
  37  0.626  0.214  0.133-  68 2.52  59 2.52  67 2.52  41 2.56  51 2.57  56 2.58  66 2.59  20 2.59
                            74 2.60  62 2.60  57 2.64  48 2.76
  38  0.376  0.961  0.131-  80 2.47  53 2.51  55 2.53  78 2.53  63 2.53  45 2.55  54 2.58  48 2.61
                            57 2.62  24 2.67  70 2.69  73 2.69
  39  0.040  0.380  0.321-  22 2.59  33 2.59   3 2.60  42 2.60  29 2.61  75 2.63  65 2.67  31 2.67
                            43 2.70   7 2.70  10 2.73   5 2.78
  40  0.040  0.377  0.033-  69 2.55  21 2.58  23 2.59  76 2.61  70 2.61  45 2.66  71 2.67  36 2.68
                            47 2.81
  41  0.868  0.215  0.131-  67 2.47  65 2.53  76 2.53  77 2.53  37 2.56  51 2.56  62 2.57  69 2.59
                            23 2.60  70 2.61  66 2.63  24 2.74
  42  0.960  0.545  0.225-  33 2.58  29 2.59  39 2.60  50 2.61  32 2.61  21 2.61  28 2.64  64 2.65
                            69 2.68  65 2.69  49 2.70  31 2.71
  43  0.292  0.121  0.320-  52 2.54  55 2.58  22 2.59  19 2.60  61 2.60  31 2.61   8 2.64  80 2.66
                             3 2.69  39 2.70  10 2.74  13 2.84
  44  0.540  0.632  0.321-  61 2.56  52 2.56  29 2.59  30 2.60  78 2.63  18 2.68  26 2.71  27 2.71
                            75 2.73  14 2.74  15 2.74  32 2.75
  45  0.292  0.126  0.037-  38 2.55  57 2.57  70 2.59  40 2.66  53 2.66  20 2.68  23 2.70  47 2.70
                            63 2.74
  46  0.545  0.626  0.042-  73 2.43  51 2.44  54 2.47  71 2.53  53 2.54  76 2.54  63 2.55  72 2.56
                            56 2.56
  47  0.307  0.374  0.039-  74 2.45  57 2.52  56 2.54  21 2.57  20 2.60  72 2.62  45 2.70  36 2.78
                            40 2.81
  48  0.628  0.952  0.133-  49 2.43  80 2.48  59 2.50  63 2.52  50 2.54  54 2.54  20 2.60  34 2.61
                            66 2.61  38 2.61  57 2.66  37 2.76
  49  0.701  0.798  0.223-  48 2.43  54 2.51  80 2.51   1 2.55  78 2.56  50 2.57  61 2.58  59 2.60
                            29 2.65  32 2.68  42 2.70  28 2.75
  50  0.866  0.710  0.128-  71 2.42  34 2.48  48 2.54  28 2.56  49 2.57  54 2.58  36 2.59  42 2.61
                            69 2.64  21 2.67  66 2.71  58 2.84
  51  0.625  0.458  0.128-  56 2.42  76 2.43  46 2.44  26 2.53  41 2.56  37 2.57  32 2.57  74 2.58
                            73 2.62  69 2.63  67 2.64  54 2.70
  52  0.301  0.876  0.316-  78 2.46  55 2.49  61 2.50  79 2.52  43 2.54  44 2.56  30 2.62   2 2.68
                             8 2.70  22 2.74   6 2.80  14 2.86
  53  0.306  0.867  0.039-  73 2.44  38 2.51  46 2.54  63 2.56  72 2.59  24 2.61  45 2.66  35 2.74
                            23 2.86
  54  0.619  0.716  0.132-  63 2.41  71 2.47  46 2.47  49 2.51  78 2.53  48 2.54  32 2.56  38 2.58
                            50 2.58  73 2.61  51 2.70  69 2.72
  55  0.216  0.035  0.224-  52 2.49  78 2.50  79 2.52  38 2.53  22 2.54  24 2.55  43 2.58  80 2.59
                            31 2.61  70 2.62  65 2.68  77 2.79
  56  0.541  0.385  0.039-  51 2.42  74 2.47  72 2.50  47 2.54  46 2.56  37 2.58  76 2.61  62 2.65
                            20 2.75
  57  0.379  0.208  0.130-  47 2.52  20 2.54  31 2.55  68 2.55  80 2.56  45 2.57  38 2.62  37 2.64
                            74 2.66  48 2.66  21 2.69  70 2.75
  58  0.140  0.700  0.126-  72 2.40  74 2.53  36 2.54  73 2.54  35 2.56  28 2.58  21 2.61  64 2.62
                            24 2.62  79 2.68  50 2.84  66 2.84
  59  0.703  0.043  0.222-  48 2.50  37 2.52  19 2.54   1 2.56  66 2.57  77 2.58  49 2.60  80 2.61
                            68 2.61  67 2.65  28 2.70  60 2.73
  60  0.794  0.127  0.323-  18 2.56  75 2.58  77 2.58  67 2.61   2 2.62  22 2.65   9 2.65   1 2.67
                             4 2.68  17 2.73  59 2.73  19 2.75
  61  0.538  0.874  0.318-  78 2.48  52 2.50  44 2.56  49 2.58  80 2.58  43 2.60  19 2.61  29 2.65
                             1 2.67   8 2.67  27 2.76  11 2.81
  62  0.789  0.132  0.036-  66 2.52  41 2.57  23 2.59  20 2.60  37 2.60  56 2.65  76 2.70  35 2.72
                            34 2.72
  63  0.550  0.865  0.041-  54 2.41  71 2.50  48 2.52  38 2.53  46 2.55  53 2.56  34 2.64  20 2.71
                            45 2.74
  64  0.213  0.540  0.225-   3 2.57  74 2.59  68 2.60  30 2.61  26 2.61  58 2.62  21 2.63  33 2.65
                            42 2.65  28 2.65  79 2.71  31 2.72
  65  0.963  0.290  0.222-  70 2.46  22 2.46  41 2.53  69 2.59  31 2.59  32 2.60  67 2.61  75 2.62
                            77 2.63  39 2.67  55 2.68  42 2.69
  66  0.867  0.966  0.127-  34 2.50  62 2.52  28 2.54  59 2.57  77 2.58  37 2.59  35 2.61  48 2.61
                            41 2.63  24 2.68  50 2.71  58 2.84
  67  0.718  0.287  0.225-  77 2.44  41 2.47  37 2.52  18 2.54  75 2.54  65 2.61  60 2.61  51 2.64
                            32 2.64  59 2.65  68 2.70  26 2.74
  68  0.459  0.293  0.224-  37 2.52  19 2.54  57 2.55  74 2.58  18 2.60  64 2.60  59 2.61   3 2.64
                            26 2.66  31 2.67  67 2.70  80 2.73
  69  0.874  0.457  0.127-  76 2.36  71 2.40  32 2.51  40 2.55  65 2.59  70 2.59  41 2.59  51 2.63
                            50 2.64  21 2.66  42 2.68  54 2.72
  70  0.117  0.210  0.130-  65 2.46  31 2.55  23 2.57  69 2.59  45 2.59  41 2.61  40 2.61  55 2.62
                            24 2.65  38 2.69  21 2.69  57 2.75
  71  0.785  0.626  0.043-  69 2.40  50 2.42  54 2.47  76 2.50  63 2.50  46 2.53  34 2.65  40 2.67
                            36 2.72
  72  0.304  0.623  0.041-  73 2.38  58 2.40  74 2.44  56 2.50  46 2.56  53 2.59  47 2.62  35 2.70
                            36 2.76
  73  0.377  0.706  0.128-  72 2.38  46 2.43  53 2.44  26 2.50  58 2.54  74 2.59  79 2.60  54 2.61
                            51 2.62  24 2.64  78 2.68  38 2.69
  74  0.379  0.460  0.129-  72 2.44  47 2.45  56 2.47  26 2.51  58 2.53  51 2.58  68 2.58  73 2.59
                            64 2.59  37 2.60  57 2.66  21 2.69
  75  0.796  0.370  0.318-  22 2.54  67 2.54  18 2.55  60 2.58  65 2.62  39 2.63  32 2.64  29 2.64
                             9 2.68  44 2.73   7 2.77  15 2.80
  76  0.788  0.388  0.041-  69 2.36  51 2.43  71 2.50  41 2.53  46 2.54  40 2.61  56 2.61  23 2.63
                            62 2.70
  77  0.944  0.051  0.223-  67 2.44  41 2.53   2 2.56  22 2.58  66 2.58  60 2.58  59 2.58  24 2.62
                            65 2.63  28 2.63  55 2.79  79 2.79
  78  0.457  0.803  0.225-  52 2.46  80 2.47  61 2.48  55 2.50  38 2.53  54 2.53  49 2.56  79 2.58
                            44 2.63  73 2.68  26 2.71  32 2.78
  79  0.216  0.795  0.225-  52 2.52  24 2.52  55 2.52   2 2.55  30 2.56  78 2.58  73 2.60  26 2.60
                            58 2.68  28 2.68  64 2.71  77 2.79
  80  0.461  0.034  0.222-  78 2.47  38 2.47  48 2.48  49 2.51  19 2.54  57 2.56  61 2.58  55 2.59
                            59 2.61  31 2.64  43 2.66  68 2.73
  81  0.535  0.125  0.463-  13 1.67  11 1.73  17 1.82
 
  LATTYP: Found a hexagonal cell.
 ALAT       =    10.5600004196
 C/A-ratio  =     2.0833332505
  
  Lattice vectors:
  
 A1 = (   5.2800002098,  -9.1452286274,   0.0000000000)
 A2 = ( -10.5600004196,   0.0000000000,   0.0000000000)
 A3 = (   0.0000000000,   0.0000000000, -22.0000000000)


Analysis of symmetry for initial positions (statically):
=====================================================================
 Subroutine PRICEL returns:
 Original cell was already a primitive cell.
 

 Routine SETGRP: Setting up the symmetry group for a 
 hexagonal supercell.


 Subroutine GETGRP returns: Found  1 space group operations
 (whereof  1 operations were pure point group operations)
 out of a pool of 24 trial point group operations.


The static configuration has the point symmetry C_1 .


Analysis of symmetry for dynamics (positions and initial velocities):
=====================================================================
 Subroutine PRICEL returns:
 Original cell was already a primitive cell.
 

 Routine SETGRP: Setting up the symmetry group for a 
 hexagonal supercell.


 Subroutine GETGRP returns: Found  1 space group operations
 (whereof  1 operations were pure point group operations)
 out of a pool of 24 trial point group operations.


The dynamic configuration has the point symmetry C_1 .


Analysis of constrained symmetry for selective dynamics:
=====================================================================
 Subroutine PRICEL returns:
 Original cell was already a primitive cell.
 

 Routine SETGRP: Setting up the symmetry group for a 
 hexagonal supercell.


 Subroutine GETGRP returns: Found  1 space group operations
 (whereof  1 operations were pure point group operations)
 out of a pool of 24 trial point group operations.


The constrained configuration has the point symmetry C_1 .


Analysis of structural, dynamic, and magnetic symmetry:
=====================================================================
 Subroutine PRICEL returns:
 Original cell was already a primitive cell.
 

 Routine SETGRP: Setting up the symmetry group for a 
 hexagonal supercell.


 Subroutine GETGRP returns: Found  1 space group operations
 (whereof  1 operations were pure point group operations)
 out of a pool of 24 trial point group operations.


The magnetic configuration has the point symmetry C_1 .


 Subroutine INISYM returns: Found  1 space group operations
 (whereof  1 operations are pure point group operations),
 and found     1 'primitive' translations

 
 
 KPOINTS: mesh auto                               

Automatic generation of k-mesh.
Space group operators:
 irot       det(A)        alpha          n_x          n_y          n_z        tau_x        tau_y        tau_z
    1     1.000000     0.000001     1.000000     0.000000     0.000000     0.000000     0.000000     0.000000
 
 Subroutine IBZKPT returns following result:
 ===========================================
 
 Found      4 irreducible k-points:
 
 Following reciprocal coordinates:
            Coordinates               Weight
  0.000000  0.000000  0.000000      1.000000
  0.500000  0.000000  0.000000      1.000000
  0.000000  0.500000  0.000000      1.000000
  0.500000  0.500000  0.000000      1.000000
 
 Following cartesian coordinates:
            Coordinates               Weight
  0.000000  0.000000  0.000000      1.000000
  0.047348 -0.027337  0.000000      1.000000
  0.000000  0.054673  0.000000      1.000000
  0.047348  0.027337  0.000000      1.000000
 


--------------------------------------------------------------------------------------------------------




 Dimension of arrays:
   k-points           NKPTS =      4   k-points in BZ     NKDIM =      4   number of bands    NBANDS=    590
   number of dos      NEDOS =    301   number of ions     NIONS =     81
   non local maximal  LDIM  =      6   non local SUM 2l+1 LMDIM =     18
   total plane-waves  NPLWV = ******
   max r-space proj   IRMAX =   7802   max aug-charges    IRDMAX=  33988
   dimension x,y,z NGX =    84 NGY =   84 NGZ =  168
   dimension x,y,z NGXF=   168 NGYF=  168 NGZF=  336
   support grid    NGXF=   168 NGYF=  168 NGZF=  336
   ions per type =              32  13  10  13  12   1
   NGX,Y,Z   is equivalent  to a cutoff of  13.22, 13.22, 12.70 a.u.
   NGXF,Y,Z  is equivalent  to a cutoff of  26.45, 26.45, 25.39 a.u.

 SYSTEM =  Pt111                                   
 POSCAR =  10.56                                   

 Startparameter for this run:
   NWRITE =      2    write-flag & timer
   PREC   = accura    normal or accurate (medium, high low for compatibility)
   ISTART =      0    job   : 0-new  1-cont  2-samecut
   ICHARG =      2    charge: 1-file 2-atom 10-const
   ISPIN  =      2    spin polarized calculation?
   LNONCOLLINEAR =      F non collinear calculations
   LSORBIT =      F    spin-orbit coupling
   INIWAV =      1    electr: 0-lowe 1-rand  2-diag
   LASPH  =      F    aspherical Exc in radial PAW
   METAGGA=      F    non-selfconsistent MetaGGA calc.

 Electronic Relaxation 1
   ENCUT  =  550.0 eV  40.42 Ry    6.36 a.u.  20.19 20.19 42.07*2*pi/ulx,y,z
   ENINI  =  550.0     initial cutoff
   ENAUG  =  587.0 eV  augmentation charge cutoff
   NELM   =    200;   NELMIN=  2; NELMDL= -5     # of ELM steps 
   EDIFF  = 0.1E-04   stopping-criterion for ELM
   LREAL  =      T    real-space projection
   NLSPLINE    = F    spline interpolate recip. space projectors
   LCOMPAT=      F    compatible to vasp.4.4
   GGA_COMPAT  = T    GGA compatible to vasp.4.4-vasp.4.6
   LMAXPAW     = -100 max onsite density
   LMAXMIX     =    2 max onsite mixed and CHGCAR
   VOSKOWN=      0    Vosko Wilk Nusair interpolation
   ROPT   =   -0.00025  -0.00025  -0.00025  -0.00025
   ROPT   =   -0.00025  -0.00025
 Ionic relaxation
   EDIFFG = -.5E-01   stopping-criterion for IOM
   NSW    =    300    number of steps for IOM
   NBLOCK =      1;   KBLOCK =    300    inner block; outer block 
   IBRION =      2    ionic relax: 0-MD 1-quasi-New 2-CG
   NFREE  =      1    steps in history (QN), initial steepest desc. (CG)
   ISIF   =      2    stress and relaxation
   IWAVPR =     11    prediction:  0-non 1-charg 2-wave 3-comb
   ISYM   =      2    0-nonsym 1-usesym 2-fastsym
   LCORR  =      T    Harris-Foulkes like correction to forces

   POTIM  = 0.5000    time-step for ionic-motion
   TEIN   =    0.0    initial temperature
   TEBEG  =    0.0;   TEEND  =   0.0 temperature during run
   SMASS  =  -3.00    Nose mass-parameter (am)
   estimated Nose-frequenzy (Omega)   =  0.10E-29 period in steps =****** mass=  -0.255E-26a.u.
   SCALEE = 1.0000    scale energy and forces
   NPACO  =    256;   APACO  = 16.0  distance and # of slots for P.C.
   PSTRESS=    0.0 pullay stress

  Mass of Ions in am
   POMASS = 195.08 63.55 58.69 55.85 58.93  1.00
  Ionic Valenz
   ZVAL   =  10.00 11.00 10.00  8.00  9.00  1.00
  Atomic Wigner-Seitz radii
   RWIGS  =  -1.00 -1.00 -1.00 -1.00 -1.00 -1.00
  virtual crystal weights 
   VCA    =   1.00  1.00  1.00  1.00  1.00  1.00
   NELECT =     776.0000    total number of electrons
   NUPDOWN=      -1.0000    fix difference up-down

 DOS related values:
   EMIN   =  10.00;   EMAX   =-10.00  energy-range for DOS
   EFERMI =   0.00
   ISMEAR =     1;   SIGMA  =   0.10  broadening in eV -4-tet -1-fermi 0-gaus

 Electronic relaxation 2 (details)
   IALGO  =     68    algorithm
   LDIAG  =      T    sub-space diagonalisation (order eigenvalues)
   LSUBROT=      F    optimize rotation matrix (better conditioning)
   TURBO    =      0    0=normal 1=particle mesh
   IRESTART =      0    0=no restart 2=restart with 2 vectors
   NREBOOT  =      0    no. of reboots
   NMIN     =      0    reboot dimension
   EREF     =   0.00    reference energy to select bands
   IMIX   =      4    mixing-type and parameters
     AMIX     =   0.40;   BMIX     =  1.00
     AMIX_MAG =   1.60;   BMIX_MAG =  1.00
     AMIN     =   0.10
     WC   =   100.;   INIMIX=   1;  MIXPRE=   1;  MAXMIX= -45

 Intra band minimization:
   WEIMIN = 0.0010     energy-eigenvalue tresh-hold
   EBREAK =  0.42E-08  absolut break condition
   DEPER  =   0.30     relativ break condition  

   TIME   =   0.40     timestep for ELM

  volume/ion in A,a.u.               =      26.23       177.01
  Fermi-wavevector in a.u.,A,eV,Ry     =   1.170222  2.211399 18.632091  1.369420
  Thomas-Fermi vector in A             =   2.306684
 
 Write flags
   LWAVE        =      F    write WAVECAR
   LDOWNSAMPLE  =      F    k-point downsampling of WAVECAR
   LCHARG       =      F    write CHGCAR
   LVTOT        =      F    write LOCPOT, total local potential
   LVHAR        =      F    write LOCPOT, Hartree potential only
   LELF         =      F    write electronic localiz. function (ELF)
   LORBIT       =      0    0 simple, 1 ext, 2 COOP (PROOUT), +10 PAW based schemes


 Dipole corrections
   LMONO  =      F    monopole corrections only (constant potential shift)
   LDIPOL =      F    correct potential (dipole corrections)
   IDIPOL =      0    1-x, 2-y, 3-z, 4-all directions 
   EPSILON=  1.0000000 bulk dielectric constant

 Exchange correlation treatment:
   GGA     =    --    GGA type
   LEXCH   =     8    internal setting for exchange type
   VOSKOWN=      0    Vosko Wilk Nusair interpolation
   LHFCALC =     F    Hartree Fock is set to
   LHFONE  =     F    Hartree Fock one center treatment
   AEXX    =    0.0000 exact exchange contribution

 Linear response parameters
   LEPSILON=     F    determine dielectric tensor
   LRPA    =     F    only Hartree local field effects (RPA)
   LNABLA  =     F    use nabla operator in PAW spheres
   LVEL    =     F    velocity operator in full k-point grid
   LINTERFAST=   F  fast interpolation
   KINTER  =     0    interpolate to denser k-point grid
   CSHIFT  =0.1000    complex shift for real part using Kramers Kronig
   OMEGAMAX=  -1.0    maximum frequency
   DEG_THRESHOLD= 0.2000000E-02 threshold for treating states as degnerate
   RTIME   =   -0.100 relaxation time in fs
  (WPLASMAI=    0.000 imaginary part of plasma frequency in eV, 0.658/RTIME)
   DFIELD  = 0.0000000 0.0000000 0.0000000 field for delta impulse in time
 
 Orbital magnetization related:
   ORBITALMAG=     F  switch on orbital magnetization
   LCHIMAG   =     F  perturbation theory with respect to B field
   DQ        =  0.001000  dq finite difference perturbation B field
   LLRAUG    =     F  two centre corrections for induced B field



--------------------------------------------------------------------------------------------------------


 conjugate gradient relaxation of ions
   using selective dynamics as specified on POSCAR
 charge density and potential will be updated during run
 spin polarized calculation
 RMM-DIIS sequential band-by-band and
  variant of blocked Davidson during initial phase
 perform sub-space diagonalisation
    before iterative eigenvector-optimisation
 modified Broyden-mixing scheme, WC =      100.0
 initial mixing is a Kerker type mixing with AMIX =  0.4000 and BMIX =      1.0000
 Hartree-type preconditioning will be used
 using additional bands          202
 real space projection scheme for non local part
 use partial core corrections
 calculate Harris-corrections to forces 
   (improved forces if not selfconsistent)
 use gradient corrections 
 use of overlap-Matrix (Vanderbilt PP)
 Methfessel and Paxton  Order N= 1 SIGMA  =   0.10


--------------------------------------------------------------------------------------------------------


  energy-cutoff  :      550.00
  volume of cell :     2124.62
      direct lattice vectors                 reciprocal lattice vectors
    10.560000420  0.000000000  0.000000000     0.094696966 -0.054673319  0.000000000
     5.280000210  9.145228627  0.000000000     0.000000000  0.109346638  0.000000000
     0.000000000  0.000000000 22.000000000     0.000000000  0.000000000  0.045454545

  length of vectors
    10.560000420 10.560000420 22.000000000     0.109346638  0.109346638  0.045454545


 
 k-points in units of 2pi/SCALE and weight: mesh auto                               
   0.00000000  0.00000000  0.00000000       0.250
   0.04734848 -0.02733666  0.00000000       0.250
   0.00000000  0.05467332  0.00000000       0.250
   0.04734848  0.02733666  0.00000000       0.250
 
 k-points in reciprocal lattice and weights: mesh auto                               
   0.00000000  0.00000000  0.00000000       0.250
   0.50000000  0.00000000  0.00000000       0.250
   0.00000000  0.50000000  0.00000000       0.250
   0.50000000  0.50000000  0.00000000       0.250
 
 position of ions in fractional coordinates (direct lattice) 
   0.78966075  0.87699132  0.31582816
   0.04393882  0.88214341  0.31605232
   0.28653974  0.37856517  0.32012636
   0.86906542  0.96217151  0.42361237
   0.12373211  0.45939747  0.42724070
   0.12936993  0.96419994  0.42147888
   0.87527689  0.45998313  0.42285094
   0.37659405  0.95980243  0.41936449
   0.87274996  0.21436955  0.42155033
   0.12505156  0.21220861  0.42344352
   0.62198977  0.96051358  0.42437942
   0.87403166  0.70807509  0.42521544
   0.37360580  0.21045533  0.42766717
   0.37760335  0.71005808  0.42622146
   0.62529841  0.46139891  0.42402079
   0.12691430  0.70523647  0.42527692
   0.62393134  0.21127627  0.42457877
   0.55381975  0.37118585  0.31757095
   0.53698848  0.12225337  0.31494777
   0.54745577  0.12241455  0.03835403
   0.12360644  0.46198687  0.12740666
   0.03999045  0.13512898  0.31338525
   0.03235129  0.13482511  0.03441534
   0.12671306  0.95484959  0.13162708
   0.37558044  0.46078793  0.42666899
   0.45779299  0.54562474  0.22008560
   0.62259046  0.71227498  0.42425852
   0.96413863  0.79272622  0.21761397
   0.78890433  0.62385503  0.31886247
   0.29315792  0.63210494  0.31907285
   0.21123592  0.28374023  0.22269626
   0.71709822  0.53685317  0.22058810
   0.04024294  0.62513796  0.32101864
   0.79720004  0.86975892  0.03740235
   0.04406258  0.87221915  0.03450723
   0.03926108  0.63118460  0.03512204
   0.62574752  0.21423502  0.13267817
   0.37608349  0.96104394  0.13055742
   0.03988096  0.37987827  0.32078985
   0.03961706  0.37680314  0.03348892
   0.86761936  0.21521963  0.13097207
   0.95962679  0.54542694  0.22473188
   0.29180541  0.12086216  0.31997602
   0.53973416  0.63166777  0.32130311
   0.29178315  0.12606023  0.03725420
   0.54545151  0.62597825  0.04206242
   0.30678791  0.37356804  0.03912988
   0.62788283  0.95185769  0.13263039
   0.70142059  0.79820208  0.22280830
   0.86633517  0.71047377  0.12834734
   0.62467538  0.45773867  0.12814478
   0.30056912  0.87625620  0.31618976
   0.30615091  0.86696452  0.03949459
   0.61892989  0.71603521  0.13157826
   0.21580132  0.03462027  0.22396955
   0.54130035  0.38549347  0.03924212
   0.37935969  0.20774149  0.13048593
   0.13970060  0.70042731  0.12601187
   0.70329280  0.04306983  0.22237866
   0.79417487  0.12723489  0.32288839
   0.53830947  0.87424721  0.31820141
   0.78866377  0.13163117  0.03568706
   0.55002307  0.86477454  0.04096764
   0.21334288  0.54014670  0.22460931
   0.96280137  0.28964998  0.22158834
   0.86740749  0.96641026  0.12740667
   0.71753219  0.28687300  0.22453182
   0.45915719  0.29304584  0.22376919
   0.87387308  0.45689803  0.12677291
   0.11726506  0.21049175  0.13008946
   0.78478084  0.62565658  0.04309165
   0.30446760  0.62284293  0.04138738
   0.37746416  0.70582480  0.12774454
   0.37902910  0.46003850  0.12899471
   0.79579489  0.37045697  0.31848945
   0.78782398  0.38752064  0.04111567
   0.94385566  0.05104212  0.22344851
   0.45702340  0.80263442  0.22502694
   0.21629647  0.79533135  0.22474012
   0.46108857  0.03393525  0.22161390
   0.53484198  0.12489867  0.46313028
 
 position of ions in cartesian coordinates  (Angst):
  12.96933215  8.02028612  6.94821946
   5.12171136  8.06740315  6.95315098
   5.02468400  3.46206507  7.04277984
  14.25759700  8.79927844  9.31947204
   3.73222993  4.20129493  9.39929530
   6.45712244  8.81782888  9.27253537
  11.67163531  4.20665087  9.30272061
   9.04459036  8.77761264  9.22601888
  10.34811119  1.96045855  9.27410718
   2.44100603  1.94069627  9.31575735
  11.63972415  8.78411628  9.33634725
  12.96841135  6.47550855  9.35473958
   5.05648162  1.92466212  9.40867767
   7.73659834  6.49364348  9.37687203
   9.03933781  4.21959848  9.32845738
   5.06386376  6.44954880  9.35609234
   7.70425395  1.93216976  9.34073294
   7.80819821  3.39457950  6.98656090
   6.31609637  1.11803506  6.92885099
   6.42748199  1.11950902  0.84378857
   3.74457485  4.22497551  2.80294662
   1.13578014  1.23578538  6.89447560
   1.05350625  1.23300646  0.75713746
   6.37969601  8.73231780  2.89579587
   6.39908994  4.21401098  9.38671783
   7.71519296  4.98986301  4.84188323
  10.33536759  6.51391754  9.33368744
  14.36689896  7.24966250  4.78750741
  11.62478471  5.70529691  7.01497445
   6.43326201  5.78074421  7.01960268
   3.72879985  2.59486929  4.89931774
  10.40714241  4.90964500  4.85293829
   3.72569409  5.71702961  7.06241001
  13.01076010  7.95414421  0.82285169
   5.07061818  7.97664351  0.75915899
   3.74725186  5.77232751  0.77268479
   7.73905501  1.95922823  2.91891969
   9.04575401  8.78896659  2.87226322
   2.42690033  3.47407364  7.05737670
   2.40787681  3.44595088  0.73675630
  10.29842047  1.96823277  2.88138548
  13.01351367  4.98805409  4.94410139
   3.71961751  1.10531211  7.03947253
   9.03479888  5.77674615  7.06866837
   3.74682824  1.15284966  0.81959249
   9.06513349  5.72471418  0.92537331
   5.21211980  3.41636512  0.86085731
  11.65625177  8.70495616  2.91786869
  11.62150883  7.29974048  4.90178269
  12.89980144  6.49744505  2.82364142
   9.01343253  4.18612478  2.81918506
   7.80064292  8.01356328  6.95617471
   7.81052654  7.92858872  0.86888091
  10.31656596  6.54830568  2.89472164
   2.46165709  0.31661030  4.92733016
   7.75153750  3.52542591  0.86332671
   5.10291361  1.89984346  2.87069041
   5.17349471  6.40556785  2.77226120
   7.65418102  0.39388344  4.89233061
   9.05828726  1.16359219  7.10354451
  10.30057364  7.99519058  7.00043101
   9.02330237  1.20379713  0.78511532
  10.37425363  7.90856090  0.90128811
   5.10487562  4.93976509  4.94140483
  11.69653478  2.64891530  4.87494337
  14.26246981  8.83804282  2.80294666
   9.09182970  2.62351917  4.93970002
   6.39598222  2.67997121  4.92292219
  11.64052176  4.17843690  2.78900405
   2.34971562  1.92499520  2.86196808
  11.59075286  5.72177244  0.94801637
   6.50378879  5.69604102  0.91052233
   7.71277679  6.45492912  2.81037998
   6.43155077  4.20715724  2.83788366
  10.35960732  3.38791373  7.00676796
  10.36553066  3.54396488  0.90454481
  10.23661853  0.46679185  4.91586728
   9.06407717  7.34027527  4.95059278
   6.48344052  7.27348698  4.94428261
   5.04827358  0.31034563  4.87550584
   6.30739655  1.14222692 10.18886614
 


--------------------------------------------------------------------------------------------------------


 k-point  1 :   0.0000 0.0000 0.0000  plane waves:   62167
 k-point  2 :   0.5000 0.0000 0.0000  plane waves:   62242
 k-point  3 :   0.0000 0.5000 0.0000  plane waves:   62242
 k-point  4 :   0.5000 0.5000 0.0000  plane waves:   62242

 maximum and minimum number of plane-waves per node :     15586    15521

 maximum number of plane-waves:     62242
 maximum index in each direction: 
   IXMAX=   20   IYMAX=   20   IZMAX=   42
   IXMIN=  -20   IYMIN=  -20   IZMIN=  -42


 real space projection operators:
  total allocation   :      77826.14 KBytes
  max/ min on nodes  :      19476.35      19427.41


 parallel 3D FFT for wavefunctions:
    minimum data exchange during FFTs selected (reduces bandwidth)
 parallel 3D FFT for charge:
    minimum data exchange during FFTs selected (reduces bandwidth)


 total amount of memory used by VASP MPI-rank0   259158. kBytes
=======================================================================

   base      :      30000. kBytes
   nonlr-proj:      34704. kBytes
   fftplans  :      17962. kBytes
   grid      :      55536. kBytes
   one-center:        653. kBytes
   wavefun   :     120303. kBytes
 
     INWAV:  cpu time    0.0000: real time    0.0000
 Broyden mixing: mesh for mixing (old mesh)
   NGX = 41   NGY = 41   NGZ = 85
  (NGX  =168   NGY  =168   NGZ  =336)
  gives a total of 142885 points

 initial charge density was supplied:
 charge density of overlapping atoms calculated
 number of electron     776.0000000 magnetization     233.0000000
 keeping initial charge density in first step


--------------------------------------------------------------------------------------------------------


 Maximum index for non-local projection operator         1905
 Maximum index for augmentation-charges         2130 (set IRDMAX)


--------------------------------------------------------------------------------------------------------


 First call to EWALD:  gamma=   0.138
 Maximum number of real-space cells 4x 4x 2
 Maximum number of reciprocal cells 2x 2x 4

    FEWALD:  cpu time    0.0041: real time    0.0041


--------------------------------------- Iteration      1(   1)  ---------------------------------------


    POTLOK:  cpu time    0.4272: real time    0.4303
    SETDIJ:  cpu time    0.0320: real time    0.0326
     EDDAV:  cpu time   68.0010: real time   68.2037
       DOS:  cpu time    0.0018: real time    0.0018
    --------------------------------------------
      LOOP:  cpu time   68.4620: real time   68.6684

 eigenvalue-minimisations  :  9440
 total energy-change (2. order) : 0.7893004E+04  (-0.3281757E+05)
 number of electron     776.0000000 magnetization     233.0000000
 augmentation part      776.0000000 magnetization     233.0000000

 Free energy of the ion-electron system (eV)
  ---------------------------------------------------
  alpha Z        PSCENC =      2230.33460859
  Ewald energy   TEWEN  =    217726.56325549
  -Hartree energ DENC   =   -289445.65029761
  -exchange      EXHF   =         0.00000000
  -V(xc)+E(xc)   XCENC  =      1360.26968493
  PAW double counting   =     63651.30740739   -65525.53323748
  entropy T*S    EENTRO =         0.00431627
  eigenvalues    EBANDS =      8205.66679696
  atomic energy  EATOM  =     69690.04112127
  Solvation  Ediel_sol  =         0.00000000
  ---------------------------------------------------
  free energy    TOTEN  =      7893.00365582 eV

  energy without entropy =     7892.99933954  energy(sigma->0) =     7893.00221706


--------------------------------------------------------------------------------------------------------




--------------------------------------- Iteration      1(   2)  ---------------------------------------


     EDDAV:  cpu time   68.1923: real time   68.3903
       DOS:  cpu time    0.0018: real time    0.0018
    --------------------------------------------
      LOOP:  cpu time   68.1941: real time   68.3920

 eigenvalue-minimisations  :  9440
 total energy-change (2. order) :-0.7046929E+04  (-0.6294797E+04)
 number of electron     776.0000000 magnetization     233.0000000
 augmentation part      776.0000000 magnetization     233.0000000

 Free energy of the ion-electron system (eV)
  ---------------------------------------------------
  alpha Z        PSCENC =      2230.33460859
  Ewald energy   TEWEN  =    217726.56325549
  -Hartree energ DENC   =   -289445.65029761
  -exchange      EXHF   =         0.00000000
  -V(xc)+E(xc)   XCENC  =      1360.26968493
  PAW double counting   =     63651.30740739   -65525.53323748
  entropy T*S    EENTRO =        -0.00007099
  eigenvalues    EBANDS =      1158.74169069
  atomic energy  EATOM  =     69690.04112127
  Solvation  Ediel_sol  =         0.00000000
  ---------------------------------------------------
  free energy    TOTEN  =       846.07416228 eV

  energy without entropy =      846.07423328  energy(sigma->0) =      846.07418595


--------------------------------------------------------------------------------------------------------




--------------------------------------- Iteration      1(   3)  ---------------------------------------


     EDDAV:  cpu time   67.8103: real time   68.0154
       DOS:  cpu time    0.0022: real time    0.0022
    --------------------------------------------
      LOOP:  cpu time   67.8125: real time   68.0176

 eigenvalue-minimisations  :  9440
 total energy-change (2. order) :-0.1223555E+04  (-0.9902890E+03)
 number of electron     776.0000000 magnetization     233.0000000
 augmentation part      776.0000000 magnetization     233.0000000

 Free energy of the ion-electron system (eV)
  ---------------------------------------------------
  alpha Z        PSCENC =      2230.33460859
  Ewald energy   TEWEN  =    217726.56325549
  -Hartree energ DENC   =   -289445.65029761
  -exchange      EXHF   =         0.00000000
  -V(xc)+E(xc)   XCENC  =      1360.26968493
  PAW double counting   =     63651.30740739   -65525.53323748
  entropy T*S    EENTRO =         0.00456356
  eigenvalues    EBANDS =       -64.81750977
  atomic energy  EATOM  =     69690.04112127
  Solvation  Ediel_sol  =         0.00000000
  ---------------------------------------------------
  free energy    TOTEN  =      -377.48040362 eV

  energy without entropy =     -377.48496718  energy(sigma->0) =     -377.48192481


--------------------------------------------------------------------------------------------------------




--------------------------------------- Iteration      1(   4)  ---------------------------------------


     EDDAV:  cpu time   80.5177: real time   80.8633
       DOS:  cpu time    0.0022: real time    0.0022
    --------------------------------------------
      LOOP:  cpu time   80.5199: real time   80.8655

 eigenvalue-minimisations  : 11720
 total energy-change (2. order) :-0.1171829E+03  (-0.1079045E+03)
 number of electron     776.0000000 magnetization     233.0000000
 augmentation part      776.0000000 magnetization     233.0000000

 Free energy of the ion-electron system (eV)
  ---------------------------------------------------
  alpha Z        PSCENC =      2230.33460859
  Ewald energy   TEWEN  =    217726.56325549
  -Hartree energ DENC   =   -289445.65029761
  -exchange      EXHF   =         0.00000000
  -V(xc)+E(xc)   XCENC  =      1360.26968493
  PAW double counting   =     63651.30740739   -65525.53323748
  entropy T*S    EENTRO =        -0.00174692
  eigenvalues    EBANDS =      -181.99412044
  atomic energy  EATOM  =     69690.04112127
  Solvation  Ediel_sol  =         0.00000000
  ---------------------------------------------------
  free energy    TOTEN  =      -494.66332477 eV

  energy without entropy =     -494.66157785  energy(sigma->0) =     -494.66274247


--------------------------------------------------------------------------------------------------------




--------------------------------------- Iteration      1(   5)  ---------------------------------------


     EDDAV:  cpu time   76.8304: real time   77.0483
       DOS:  cpu time    0.0022: real time    0.0022
    CHARGE:  cpu time    4.3363: real time    4.3486
    MIXING:  cpu time    0.0103: real time    0.0111
    --------------------------------------------
      LOOP:  cpu time   81.1794: real time   81.4102

 eigenvalue-minimisations  : 11030
 total energy-change (2. order) :-0.4417819E+01  (-0.4384327E+01)
 number of electron     776.0000022 magnetization     218.1116542
 augmentation part      333.0688658 magnetization     187.1540464

 Broyden mixing:
  rms(total) = 0.11903E+02    rms(broyden)= 0.11903E+02
  rms(prec ) = 0.12202E+02
  weight for this iteration     100.00

 Free energy of the ion-electron system (eV)
  ---------------------------------------------------
  alpha Z        PSCENC =      2230.33460859
  Ewald energy   TEWEN  =    217726.56325549
  -Hartree energ DENC   =   -289445.65029761
  -exchange      EXHF   =         0.00000000
  -V(xc)+E(xc)   XCENC  =      1360.26968493
  PAW double counting   =     63651.30740739   -65525.53323748
  entropy T*S    EENTRO =        -0.00156219
  eigenvalues    EBANDS =      -186.41212398
  atomic energy  EATOM  =     69690.04112127
  Solvation  Ediel_sol  =         0.00000000
  ---------------------------------------------------
  free energy    TOTEN  =      -499.08114359 eV

  energy without entropy =     -499.07958140  energy(sigma->0) =     -499.08062286


--------------------------------------------------------------------------------------------------------




--------------------------------------- Iteration      1(   6)  ---------------------------------------


    POTLOK:  cpu time    0.4080: real time    0.4093
    SETDIJ:  cpu time    0.0331: real time    0.0332
    EDDIAG:  cpu time   11.9633: real time   12.0552
  RMM-DIIS:  cpu time   41.2825: real time   41.4653
    ORTHCH:  cpu time    1.3061: real time    1.3100
       DOS:  cpu time    0.0020: real time    0.0020
    CHARGE:  cpu time    4.1985: real time    4.2102
    MIXING:  cpu time    0.0094: real time    0.0110
    --------------------------------------------
      LOOP:  cpu time   59.2029: real time   59.4963

 eigenvalue-minimisations  :  9531
 total energy-change (2. order) :-0.1306053E+03  (-0.8680335E+02)
 number of electron     776.0000033 magnetization     213.7997866
 augmentation part      401.4761814 magnetization     180.0691049

 Broyden mixing:
  rms(total) = 0.18144E+02    rms(broyden)= 0.18144E+02
  rms(prec ) = 0.24008E+02
  weight for this iteration     100.00

 eigenvalues of (default mixing * dielectric matrix)
  average eigenvalue GAMMA=   0.2581
  0.2581

 Free energy of the ion-electron system (eV)
  ---------------------------------------------------
  alpha Z        PSCENC =      2230.33460859
  Ewald energy   TEWEN  =    217726.56325549
  -Hartree energ DENC   =   -287880.44103146
  -exchange      EXHF   =         0.00000000
  -V(xc)+E(xc)   XCENC  =      1313.75271685
  PAW double counting   =     68882.15143433   -70547.84442329
  entropy T*S    EENTRO =        -0.00939835
  eigenvalues    EBANDS =     -2044.23469457
  atomic energy  EATOM  =     69690.04112127
  Solvation  Ediel_sol  =         0.00000000
  ---------------------------------------------------
  free energy    TOTEN  =      -629.68641114 eV

  energy without entropy =     -629.67701279  energy(sigma->0) =     -629.68327836


--------------------------------------------------------------------------------------------------------




--------------------------------------- Iteration      1(   7)  ---------------------------------------


    POTLOK:  cpu time    0.4092: real time    0.4103
    SETDIJ:  cpu time    0.0330: real time    0.0331
    EDDIAG:  cpu time   11.7886: real time   11.8221
  RMM-DIIS:  cpu time   40.6984: real time   40.8146
    ORTHCH:  cpu time    1.3075: real time    1.3111
       DOS:  cpu time    0.0020: real time    0.0020
    CHARGE:  cpu time    4.4327: real time    4.4453
    MIXING:  cpu time    0.0152: real time    0.0152
    --------------------------------------------
      LOOP:  cpu time   58.6867: real time   58.8537

 eigenvalue-minimisations  :  9448
 total energy-change (2. order) : 0.7823092E+02  (-0.1664321E+02)
 number of electron     776.0000023 magnetization     208.1032103
 augmentation part      360.3486434 magnetization     164.7787431

 Broyden mixing:
  rms(total) = 0.15400E+02    rms(broyden)= 0.15400E+02
  rms(prec ) = 0.20434E+02
  weight for this iteration     100.00

 eigenvalues of (default mixing * dielectric matrix)
  average eigenvalue GAMMA=   0.3164
  0.4807  0.1521

 Free energy of the ion-electron system (eV)
  ---------------------------------------------------
  alpha Z        PSCENC =      2230.33460859
  Ewald energy   TEWEN  =    217726.56325549
  -Hartree energ DENC   =   -288630.78891830
  -exchange      EXHF   =         0.00000000
  -V(xc)+E(xc)   XCENC  =      1333.05727361
  PAW double counting   =     70008.84167531   -71844.60078371
  entropy T*S    EENTRO =         0.00247853
  eigenvalues    EBANDS =     -1064.90620484
  atomic energy  EATOM  =     69690.04112127
  Solvation  Ediel_sol  =         0.00000000
  ---------------------------------------------------
  free energy    TOTEN  =      -551.45549404 eV

  energy without entropy =     -551.45797257  energy(sigma->0) =     -551.45632022


--------------------------------------------------------------------------------------------------------




--------------------------------------- Iteration      1(   8)  ---------------------------------------


    POTLOK:  cpu time    0.5267: real time    0.5295
    SETDIJ:  cpu time    0.0334: real time    0.0335
    EDDIAG:  cpu time   11.7425: real time   11.7760
  RMM-DIIS:  cpu time   40.7361: real time   40.8522
    ORTHCH:  cpu time    1.3127: real time    1.3163
       DOS:  cpu time    0.0020: real time    0.0021
    CHARGE:  cpu time    4.1760: real time    4.1876
    MIXING:  cpu time    0.0098: real time    0.0098
    --------------------------------------------
      LOOP:  cpu time   58.5393: real time   58.7070

 eigenvalue-minimisations  :  9454
 total energy-change (2. order) : 0.4784172E+02  (-0.1195909E+02)
 number of electron     776.0000027 magnetization     202.0943569
 augmentation part      365.2376410 magnetization     160.0761226

 Broyden mixing:
  rms(total) = 0.16679E+02    rms(broyden)= 0.16678E+02
  rms(prec ) = 0.19537E+02
  weight for this iteration     100.00

 eigenvalues of (default mixing * dielectric matrix)
  average eigenvalue GAMMA=   0.3200
  0.6314  0.2391  0.0896

 Free energy of the ion-electron system (eV)
  ---------------------------------------------------
  alpha Z        PSCENC =      2230.33460859
  Ewald energy   TEWEN  =    217726.56325549
  -Hartree energ DENC   =   -288912.74755929
  -exchange      EXHF   =         0.00000000
  -V(xc)+E(xc)   XCENC  =      1340.49717881
  PAW double counting   =     71549.62847168   -73472.81870321
  entropy T*S    EENTRO =        -0.00573224
  eigenvalues    EBANDS =      -655.10641621
  atomic energy  EATOM  =     69690.04112127
  Solvation  Ediel_sol  =         0.00000000
  ---------------------------------------------------
  free energy    TOTEN  =      -503.61377511 eV

  energy without entropy =     -503.60804287  energy(sigma->0) =     -503.61186437


--------------------------------------------------------------------------------------------------------




--------------------------------------- Iteration      1(   9)  ---------------------------------------


    POTLOK:  cpu time    0.4085: real time    0.4099
    SETDIJ:  cpu time    0.0332: real time    0.0332
    EDDIAG:  cpu time   11.7727: real time   11.8065
  RMM-DIIS:  cpu time   40.9837: real time   41.1081
    ORTHCH:  cpu time    1.3057: real time    1.3092
       DOS:  cpu time    0.0020: real time    0.0020
    CHARGE:  cpu time    4.1867: real time    4.1986
    MIXING:  cpu time    0.0099: real time    0.0099
    --------------------------------------------
      LOOP:  cpu time   58.7023: real time   58.8774

 eigenvalue-minimisations  :  9472
 total energy-change (2. order) : 0.1161491E+03  (-0.1268653E+02)
 number of electron     776.0000020 magnetization     194.6431787
 augmentation part      367.9512264 magnetization     152.2741946

 Broyden mixing:
  rms(total) = 0.13044E+02    rms(broyden)= 0.13044E+02
  rms(prec ) = 0.15289E+02
  weight for this iteration     100.00

 eigenvalues of (default mixing * dielectric matrix)
  average eigenvalue GAMMA=   0.3815
  0.9693  0.3202  0.0998  0.1365

 Free energy of the ion-electron system (eV)
  ---------------------------------------------------
  alpha Z        PSCENC =      2230.33460859
  Ewald energy   TEWEN  =    217726.56325549
  -Hartree energ DENC   =   -288562.11386391
  -exchange      EXHF   =         0.00000000
  -V(xc)+E(xc)   XCENC  =      1355.81899953
  PAW double counting   =     72842.73834178   -74802.61104322
  entropy T*S    EENTRO =        -0.01039304
  eigenvalues    EBANDS =      -868.22570084
  atomic energy  EATOM  =     69690.04112127
  Solvation  Ediel_sol  =         0.00000000
  ---------------------------------------------------
  free energy    TOTEN  =      -387.46467435 eV

[...]
   0.615E+01 -.178E+02 -.286E+04   -.590E+01 0.178E+02 0.286E+04   -.208E+00 -.610E-01 0.117E+01   -.169E-01 0.108E-01 -.300E-01
   -.216E+02 -.573E+01 -.295E+04   0.216E+02 0.565E+01 0.295E+04   -.505E-02 0.132E+00 0.983E+00   -.657E-02 -.115E-01 -.189E-01
   0.347E+02 -.606E+01 -.289E+04   -.346E+02 0.587E+01 0.289E+04   -.850E-01 0.154E+00 0.868E+00   0.588E-02 -.111E-01 -.412E-02
   0.292E+02 0.158E+01 -.292E+04   -.292E+02 -.173E+01 0.292E+04   0.258E-01 0.982E-01 0.116E+01   0.125E-01 0.669E-02 0.260E-01
   -.192E+02 0.348E+01 -.288E+04   0.190E+02 -.388E+01 0.288E+04   0.246E+00 0.467E+00 0.180E+01   -.106E-02 -.132E-01 -.378E-01
   0.192E+02 0.239E+02 -.287E+04   -.196E+02 -.237E+02 0.287E+04   0.341E+00 -.225E+00 0.162E+01   -.243E-01 -.751E-02 -.679E-02
   0.281E+02 0.161E+02 -.293E+04   -.280E+02 -.161E+02 0.293E+04   -.325E-01 0.595E-01 0.755E+00   0.179E-01 0.161E-03 -.120E-01
   -.242E+02 0.252E+01 -.287E+04   0.241E+02 -.329E+01 0.287E+04   0.172E+00 0.764E+00 0.424E+00   -.731E-02 0.169E-02 -.753E-01
   0.609E+01 -.396E+02 -.291E+04   -.596E+01 0.394E+02 0.291E+04   -.939E-01 0.221E+00 0.866E+00   -.109E-01 0.223E-01 -.131E-01
   -.274E+02 -.277E+01 -.292E+04   0.269E+02 0.319E+01 0.292E+04   0.497E+00 -.425E+00 -.432E-01   0.129E-02 -.187E-01 -.883E-01
   0.228E+02 0.140E+01 -.295E+04   -.227E+02 -.146E+01 0.295E+04   -.328E-01 0.418E-01 0.904E+00   -.132E-01 0.216E-01 -.139E-01
   0.105E+02 0.312E+02 -.290E+04   -.104E+02 -.312E+02 0.290E+04   -.474E-01 -.227E-01 0.102E+01   -.181E-01 -.155E-01 0.919E-02
   -.608E+01 -.249E+02 -.291E+04   0.618E+01 0.248E+02 0.291E+04   -.109E+00 0.960E-01 0.782E+00   0.577E-02 0.622E-02 0.826E-03
   -.742E+01 0.895E+01 -.286E+04   0.869E+01 -.847E+01 0.286E+04   -.129E+01 -.522E+00 0.104E+01   -.127E-01 -.109E-01 -.403E-01
   0.494E+02 0.517E+02 -.142E+04   -.476E+02 -.529E+02 0.142E+04   -.174E+01 0.123E+01 0.268E+01   -.272E-01 -.604E-02 0.161E-01
   -.897E+02 -.383E+02 -.143E+04   0.894E+02 0.374E+02 0.143E+04   0.251E+00 0.944E+00 0.379E+01   -.115E-01 -.149E-01 0.539E-03
   -.228E+02 -.238E+02 0.300E+04   0.228E+02 0.241E+02 -.300E+04   -.209E-01 -.284E+00 -.196E+01   0.780E-02 -.120E-01 0.117E-01
   -.731E+02 0.228E+02 0.148E+04   0.737E+02 -.224E+02 -.148E+04   -.571E+00 -.325E+00 -.104E+00   0.159E-01 0.166E-01 0.277E-01
   0.100E+03 0.266E+02 -.140E+04   -.101E+03 -.254E+02 0.140E+04   0.580E+00 -.115E+01 0.320E+01   0.101E-01 -.532E-01 -.967E-02
   0.349E+02 0.500E+02 0.303E+04   -.355E+02 -.488E+02 -.303E+04   0.665E+00 -.119E+01 -.216E+01   -.103E-01 -.275E-01 -.950E-03
   0.907E+02 0.277E+01 0.147E+04   -.908E+02 -.400E+01 -.147E+04   0.799E-01 0.126E+01 -.116E+01   -.166E-01 -.208E-01 0.675E-01
   -.155E+02 0.211E+02 -.288E+04   0.153E+02 -.207E+02 0.288E+04   0.185E+00 -.404E+00 0.781E+00   -.720E-02 -.104E-02 -.292E-01
   0.534E+02 0.644E+02 0.229E+02   -.544E+02 -.644E+02 -.247E+02   0.109E+01 -.775E-01 0.172E+01   -.179E-01 0.417E-01 0.232E-01
   -.250E+02 -.113E+02 -.292E+04   0.246E+02 0.115E+02 0.292E+04   0.370E+00 -.250E+00 0.120E+01   0.109E-01 0.434E-01 -.793E-02
   -.651E+02 -.414E+02 0.116E+03   0.655E+02 0.414E+02 -.118E+03   -.389E+00 -.578E-01 0.176E+01   0.340E-01 0.267E-01 0.198E-01
   0.177E+02 -.408E+02 -.149E+04   -.181E+02 0.408E+02 0.149E+04   0.391E+00 -.299E-02 0.243E+01   0.489E-02 0.405E-01 0.213E-01
   0.367E+02 0.560E+02 -.145E+04   -.368E+02 -.552E+02 0.145E+04   0.251E-01 -.724E+00 0.276E+01   -.404E-02 0.428E-01 -.310E-02
   -.817E+02 -.482E+02 0.788E+02   0.818E+02 0.474E+02 -.798E+02   -.154E+00 0.723E+00 0.106E+01   0.144E-01 -.273E-01 0.383E-01
   0.487E+02 0.533E+02 0.134E+02   -.479E+02 -.544E+02 -.142E+02   -.797E+00 0.106E+01 0.836E+00   -.821E-02 0.330E-01 0.828E-02
   -.732E+02 -.710E+02 -.162E+04   0.732E+02 0.706E+02 0.162E+04   0.553E-01 0.465E+00 0.104E+01   0.130E-01 0.170E-01 0.563E-03
   0.102E+02 -.908E+02 0.332E+04   -.106E+02 0.909E+02 -.332E+04   0.330E+00 0.440E-02 -.235E+01   0.791E-02 0.159E-01 0.149E-01
   -.329E+02 -.508E+02 0.329E+04   0.323E+02 0.505E+02 -.328E+04   0.685E+00 0.412E+00 -.292E+01   -.796E-02 0.614E-02 0.231E-01
   -.547E+02 0.439E+02 0.331E+04   0.549E+02 -.436E+02 -.331E+04   -.168E+00 -.319E+00 -.358E+01   0.669E-02 0.188E-01 0.870E-02
   0.519E+02 0.287E+02 0.158E+04   -.519E+02 -.287E+02 -.158E+04   -.756E-01 -.187E-02 -.135E+01   -.245E-02 -.224E-01 0.877E-02
   0.215E+02 -.667E+02 0.167E+04   -.209E+02 0.664E+02 -.167E+04   -.629E+00 0.154E+00 -.893E+00   0.220E-02 -.895E-02 0.648E-01
   0.120E+02 0.195E+02 -.162E+04   -.123E+02 -.198E+02 0.162E+04   0.392E+00 0.327E+00 0.120E+01   0.335E-01 -.140E-01 0.186E-01
   -.319E+02 0.382E+01 0.335E+04   0.304E+02 -.418E+01 -.335E+04   0.152E+01 0.379E+00 -.330E+01   0.121E-01 0.586E-02 -.939E-02
   0.401E+01 0.817E+02 0.162E+04   -.429E+01 -.813E+02 -.162E+04   0.346E+00 -.395E+00 -.115E+01   -.173E-01 -.498E-01 0.379E-01
   -.585E+02 0.185E+02 0.406E+02   0.583E+02 -.182E+02 -.408E+02   0.172E+00 -.359E+00 -.633E-02   0.185E-01 0.163E-01 0.222E-01
   -.771E+02 -.401E+02 -.164E+04   0.771E+02 0.395E+02 0.164E+04   0.437E-01 0.716E+00 0.169E+01   0.457E-02 -.360E-01 -.607E-02
   0.124E+02 0.734E+02 -.163E+04   -.123E+02 -.726E+02 0.163E+04   -.692E-01 -.968E+00 0.936E+00   -.225E-01 0.617E-01 -.912E-02
   -.375E+02 -.248E+01 0.331E+04   0.379E+02 0.201E+01 -.330E+04   -.435E+00 0.474E+00 -.278E+01   0.139E-01 -.197E-01 0.729E-03
   0.206E+02 0.217E+02 0.304E+04   -.205E+02 -.215E+02 -.304E+04   -.126E+00 -.124E+00 -.588E+00   -.100E-01 0.147E-01 0.246E-02
   -.199E+02 0.590E+01 0.297E+04   0.215E+02 -.600E+01 -.297E+04   -.164E+01 0.103E+00 -.217E+01   0.976E-02 -.262E-02 0.946E-02
   -.667E+02 -.116E+03 0.148E+04   0.668E+02 0.115E+03 -.148E+04   -.834E-01 0.528E+00 -.958E+00   -.315E-02 0.715E-02 0.272E-01
   -.670E+02 -.189E+02 -.528E+02   0.663E+02 0.195E+02 0.521E+02   0.767E+00 -.692E+00 0.630E+00   -.172E-01 0.291E-01 0.300E-01
   -.110E+03 -.679E+00 0.148E+04   0.110E+03 0.105E+01 -.148E+04   0.454E-01 -.423E+00 -.450E+00   0.149E-01 0.229E-01 0.245E-01
   0.426E+02 0.335E+02 0.148E+04   -.425E+02 -.330E+02 -.148E+04   -.573E-01 -.371E+00 0.303E-01   -.173E-01 0.107E-06 0.279E-01
   0.735E+02 0.210E+02 -.147E+04   -.731E+02 -.212E+02 0.147E+04   -.433E+00 0.222E+00 0.162E+01   -.126E-03 0.756E-02 -.317E-01
   0.457E+02 -.350E+02 0.303E+04   -.450E+02 0.338E+02 -.303E+04   -.847E+00 0.128E+01 -.196E+01   -.471E-02 0.873E-02 0.114E-01
   0.175E+02 0.358E+02 0.146E+04   -.171E+02 -.356E+02 -.146E+04   -.439E+00 -.166E+00 -.371E+00   -.496E-02 0.295E-01 0.411E-01
   0.798E+02 -.501E+02 0.416E+02   -.796E+02 0.498E+02 -.415E+02   -.191E+00 0.330E+00 -.166E+00   -.398E-02 -.541E-01 0.437E-01
   0.876E+01 0.565E+02 0.244E+04   -.843E+01 -.560E+02 -.244E+04   -.337E+00 -.539E+00 -.281E+01   -.874E-02 -.107E-01 0.443E-02
   -.201E+02 -.500E+02 0.116E+04   0.202E+02 0.504E+02 -.116E+04   -.867E-01 -.337E+00 -.758E+00   0.859E-02 -.168E-01 0.259E-01
   0.215E+02 -.151E+02 0.117E+04   -.212E+02 0.147E+02 -.117E+04   -.401E+00 0.347E+00 -.760E+00   0.385E-02 0.205E-01 0.346E-01
   -.513E+02 -.463E+02 -.242E+02   0.514E+02 0.467E+02 0.238E+02   -.215E+00 -.461E+00 0.326E+00   0.616E-02 -.157E-01 0.228E-01
   0.467E+02 0.135E+02 -.119E+04   -.465E+02 -.132E+02 0.119E+04   -.200E+00 -.268E+00 0.118E+01   -.385E-02 -.348E-01 0.341E-02
   -.788E+02 -.169E+02 -.120E+04   0.787E+02 0.172E+02 0.120E+04   0.205E+00 -.224E+00 0.147E+01   -.157E-01 0.167E-01 -.136E-02
   0.160E+02 -.146E+02 0.243E+04   -.163E+02 0.150E+02 -.243E+04   0.222E+00 -.388E+00 -.325E+01   -.813E-02 -.174E-01 0.103E-01
   -.136E+02 -.510E+02 0.245E+04   0.135E+02 0.499E+02 -.245E+04   0.126E+00 0.115E+01 -.280E+01   0.438E-02 0.138E-01 0.666E-02
   -.341E+02 0.708E+01 0.292E+02   0.347E+02 -.716E+01 -.295E+02   -.565E+00 0.124E-01 0.126E+00   0.827E-02 0.206E-01 0.181E-01
   0.270E+02 0.597E+01 0.333E+02   -.275E+02 -.652E+01 -.333E+02   0.481E+00 0.575E+00 -.309E-01   0.573E-02 -.333E-01 0.173E-01
   -.381E+02 0.536E+01 0.120E+04   0.379E+02 -.509E+01 -.120E+04   0.210E+00 -.281E+00 -.106E+01   0.137E-01 -.300E-02 0.260E-01
   0.516E+02 0.194E+02 -.692E+02   -.515E+02 -.201E+02 0.699E+02   -.122E+00 0.820E+00 -.773E+00   -.351E-02 -.295E-01 0.955E-02
   -.481E+01 -.120E+02 -.983E+01   0.498E+01 0.115E+02 0.947E+01   -.146E+00 0.432E+00 0.403E+00   -.135E-01 -.937E-02 0.222E-01
   -.406E+02 0.291E+02 0.135E+04   0.405E+02 -.290E+02 -.135E+04   0.232E-01 -.246E-01 -.986E-01   0.370E-02 0.115E-01 0.265E-01
   -.238E+02 -.734E+01 0.134E+04   0.240E+02 0.790E+01 -.133E+04   -.239E+00 -.551E+00 -.966E+00   0.345E-02 -.255E-01 0.351E-01
   -.671E+01 -.938E+00 0.272E+04   0.553E+01 0.142E+01 -.272E+04   0.112E+01 -.477E+00 -.241E+01   0.117E-01 0.194E-01 0.258E-02
   0.348E+02 0.199E+02 0.270E+04   -.339E+02 -.202E+02 -.269E+04   -.834E+00 0.332E+00 -.277E+01   -.889E-02 0.733E-02 0.104E-01
   0.715E+02 0.289E+01 0.132E+04   -.717E+02 -.309E+01 -.132E+04   0.259E+00 0.231E+00 0.148E-01   -.178E-01 0.227E-01 0.517E-01
   0.638E+02 0.296E+02 0.130E+04   -.640E+02 -.295E+02 -.130E+04   0.215E+00 -.113E+00 -.104E+00   -.331E-02 0.682E-02 0.245E-01
   0.557E+02 0.296E+02 -.129E+04   -.559E+02 -.301E+02 0.129E+04   0.305E+00 0.538E+00 0.116E+01   -.219E-02 -.180E-01 0.145E-01
   0.500E+02 0.558E+02 0.274E+04   -.506E+02 -.552E+02 -.274E+04   0.660E+00 -.559E+00 -.182E+01   -.710E-02 -.985E-02 0.401E-02
   0.491E+02 0.295E+02 -.205E+01   -.497E+02 -.289E+02 0.202E+01   0.595E+00 -.579E+00 -.356E-01   0.176E-01 -.409E-01 0.201E-01
   0.218E+02 0.748E+02 -.144E+02   -.217E+02 -.739E+02 0.146E+02   -.575E-01 -.105E+01 -.413E+00   -.254E-01 0.358E-01 0.370E-01
   0.102E+03 0.454E+02 0.325E+02   -.101E+03 -.452E+02 -.327E+02   -.570E+00 -.243E+00 0.840E-01   0.749E-02 0.315E-01 0.273E-01
   -.788E+02 -.108E+03 0.981E+01   0.792E+02 0.108E+03 -.100E+02   -.387E+00 0.385E+00 0.186E+00   -.214E-01 -.190E-01 0.333E-01
   -.491E+01 0.979E+00 -.345E+03   0.520E+01 -.100E+01 0.346E+03   -.326E+00 0.219E-03 -.168E+01   0.102E-02 -.751E-03 -.386E-02
 -----------------------------------------------------------------------------------------------
   0.834E+00 -.425E+00 -.345E+01   0.107E-13 0.304E-12 -.352E-11   -.741E+00 0.319E+00 0.275E+01   -.684E-01 0.730E-01 0.717E+00
 
 
 POSITION                                       TOTAL-FORCE (eV/Angst)
 -----------------------------------------------------------------------------------
     12.96624      8.01859      6.95773        -0.002636      0.015991      0.004403
      5.12204      8.06337      6.95586         0.022753     -0.005867     -0.035821
      5.03328      3.45438      7.04673        -0.014119     -0.010366      0.022773
     14.32562      8.76635      9.31503         0.021287     -0.014201      0.016464
      3.74187      4.20740      9.38284         0.008623     -0.000560      0.013808
      6.41107      8.78251      9.29152         0.007306     -0.005389     -0.018281
     11.67468      4.19939      9.29785        -0.007875      0.003328     -0.028888
      9.02207      8.76551      9.19360         0.001523      0.000970      0.015146
     10.35319      1.92827      9.27803         0.024446      0.011491      0.013747
      2.43547      1.91493      9.29486         0.017518     -0.003007      0.002705
     11.66490      8.75285      9.39942         0.014637     -0.000191      0.007168
     12.99479      6.47814      9.34909        -0.002266      0.001770      0.006274
      5.03783      1.93585      9.47669        -0.008362      0.003427      0.016341
      7.72191      6.50100      9.38696         0.015430      0.004950     -0.007696
      9.04578      4.22087      9.32980         0.026176     -0.016638      0.002597
      5.07177      6.49432      9.36645         0.018558     -0.002331     -0.017164
      7.74141      1.93741      9.40133         0.001974     -0.018835     -0.017162
      7.81058      3.38574      6.99479        -0.003613     -0.002593     -0.004176
      6.32320      1.11295      6.94538         0.002189     -0.007878      0.020468
      6.42748      1.11951      0.84379        -0.004059      0.033349      0.008804
      3.74457      4.22498      2.80295         0.003588      0.017945     -0.031735
      1.13855      1.23303      6.89270        -0.009806     -0.018317     -0.001185
      1.05351      1.23301      0.75714        -0.003573      0.012739      0.002640
      6.37970      8.73232      2.89580        -0.001411      0.015238      0.014601
      6.39500      4.23338      9.37817        -0.005155      0.028775      0.017062
      7.71519      4.98986      4.84188        -0.000988     -0.042894     -0.042024
     10.33496      6.50072      9.31245         0.024655     -0.004796     -0.004759
     14.36690      7.24966      4.78751        -0.006331      0.015457     -0.070011
     11.63520      5.69868      7.00846        -0.014528     -0.013603      0.042535
      6.43396      5.77447      7.02296        -0.012862      0.026080      0.002359
      3.72880      2.59487      4.89932         0.032704     -0.000652      0.004235
     10.40714      4.90964      4.85294        -0.003270     -0.004363     -0.002653
      3.73641      5.71764      7.05476         0.001050     -0.019109      0.002697
     13.01076      7.95414      0.82285        -0.016866      0.028786     -0.010617
      5.07062      7.97664      0.75916        -0.001446      0.017027     -0.004760
      3.74725      5.77233      0.77268         0.002194      0.004965     -0.010331
      7.73906      1.95923      2.91892         0.006948      0.002118     -0.005631
      9.04575      8.78897      2.87226        -0.005068     -0.011525      0.008689
      2.43373      3.47081      7.05018         0.002323      0.001603      0.003896
      2.40788      3.44595      0.73676        -0.006423      0.020774     -0.002085
     10.29842      1.96823      2.88139         0.024182     -0.008567     -0.009271
     13.01351      4.98805      4.94410         0.025196     -0.020946     -0.046555
      3.72662      1.10043      7.02810        -0.001562     -0.002233      0.013839
      9.03721      5.77024      7.06113         0.016002     -0.001918      0.001900
      3.74683      1.15285      0.81959        -0.000224      0.002565      0.003939
      9.06513      5.72471      0.92537        -0.014165      0.019248     -0.000469
      5.21212      3.41637      0.86086        -0.008764      0.005719     -0.014099
     11.65625      8.70496      2.91787        -0.015382     -0.007245      0.006973
     11.62151      7.29974      4.90178         0.034597     -0.000459     -0.007640
     12.89980      6.49745      2.82364         0.019019     -0.015609     -0.006665
      9.01343      4.18612      2.81919         0.000672      0.021209     -0.010321
      7.79848      8.00988      6.95058        -0.002851     -0.002350      0.010739
      7.81053      7.92859      0.86888        -0.016746     -0.003308      0.015237
     10.31657      6.54831      2.89472         0.010694      0.001039     -0.011022
      2.46166      0.31661      4.92733        -0.002497     -0.018501     -0.031699
      7.75154      3.52543      0.86333         0.002648      0.005075      0.004795
      5.10291      1.89984      2.87069        -0.000747      0.021384     -0.005138
      5.17349      6.40557      2.77226        -0.020264      0.023830      0.022779
      7.65418      0.39388      4.89233        -0.029958     -0.002980      0.054510
      9.05561      1.15677      7.11020         0.000996     -0.015500      0.010447
     10.30609      7.98991      6.98480        -0.005712     -0.004181      0.017867
      9.02330      1.20380      0.78512        -0.017716     -0.008891      0.008600
     10.37425      7.90856      0.90129        -0.044243      0.014398      0.002601
      5.10488      4.93977      4.94140         0.040075     -0.006746     -0.031277
     11.69653      2.64892      4.87494        -0.022322      0.003275     -0.023663
     14.26247      8.83804      2.80295        -0.033049      0.012043     -0.025517
      9.09183      2.62352      4.93970        -0.015610      0.001749      0.025053
      6.39598      2.67997      4.92292         0.016233     -0.052716      0.054661
     11.64052      4.17844      2.78900        -0.016191      0.007142      0.004631
      2.34972      1.92500      2.86197         0.000926      0.005008     -0.015796
     11.59075      5.72177      0.94802        -0.020192      0.006042     -0.008846
      6.50379      5.69604      0.91052         0.004276      0.009632      0.000935
      7.71278      6.45493      2.81038        -0.012141      0.012940      0.049955
      6.43155      4.20716      2.83788         0.010275     -0.013626      0.001363
     10.36047      3.38558      7.01033         0.006264      0.004889     -0.000222
     10.36553      3.54396      0.90454        -0.017011     -0.000690     -0.017934
     10.23662      0.46679      4.91587        -0.031834     -0.012774      0.024080
      9.06408      7.34028      4.95059         0.000181     -0.018508     -0.027426
      6.48344      7.27349      4.94428         0.005682     -0.026127     -0.031053
      5.04827      0.31035      4.87551         0.042073      0.028156      0.044500
      6.31416      1.12609     10.44056        -0.036035     -0.025136      0.010777
 -----------------------------------------------------------------------------------
    total drift:                                0.025214     -0.033682      0.013215


--------------------------------------------------------------------------------------------------------



  FREE ENERGIE OF THE ION-ELECTRON SYSTEM (eV)
  ---------------------------------------------------
  free  energy   TOTEN  =      -514.79407892 eV

  energy  without entropy=     -514.79503121  energy(sigma->0) =     -514.79439635
 
 d Force = 0.2345769E-02[ 0.107E-02, 0.362E-02]  d Energy = 0.2295031E-02 0.507E-04
 d Force = 0.9322135E+02[ 0.932E+02, 0.932E+02]  d Ewald  = 0.9322137E+02-0.228E-04


--------------------------------------------------------------------------------------------------------


    POTLOK:  cpu time    0.4452: real time    0.4467


--------------------------------------------------------------------------------------------------------


 Conjugate gradient step on ions:
 trial-energy change:   -0.002295  1 .order   -0.002346   -0.003621   -0.001071
  (g-gl).g = 0.278E-02      g.g   = 0.272E-02  gl.gl    = 0.369E-02
 g(Force)  = 0.272E-02   g(Stress)= 0.000E+00 ortho     =-0.391E-04
 gamma     =   0.75287
 trial     =   1.34347
 opt step  =   2.03201  (harmonic =   1.90767) maximal distance =0.01797592
 next E    =  -514.794346   (d E  =  -0.00256)


--------------------------------------------------------------------------------------------------------


  
 reached required accuracy - stopping structural energy minimisation
     LOOP+:  cpu time  841.7532: real time  844.6251
    4ORBIT:  cpu time    0.0000: real time    0.0000

 total amount of memory used by VASP MPI-rank0   259158. kBytes
=======================================================================

   base      :      30000. kBytes
   nonlr-proj:      34704. kBytes
   fftplans  :      17962. kBytes
   grid      :      55536. kBytes
   one-center:        653. kBytes
   wavefun   :     120303. kBytes
 
  
  
 General timing and accounting informations for this job:
 ========================================================
  
                  Total CPU time used (sec):    19214.785
                            User time (sec):    18958.820
                          System time (sec):      255.966
                         Elapsed time (sec):    19340.730
  
                   Maximum memory used (kb):     1045936.
                   Average memory used (kb):           0.
  
                          Minor page faults:      3787111
                          Major page faults:            0
                 Voluntary context switches:         3073
