 vasp.5.4.4.18Apr17-6-g9f103f2a35 (build Nov 30 2020 22:55:02) complex          
  
 executed on             LinuxIFC date 2023.09.10  22:57:41
 running on   40 total cores
 distrk:  each k-point on   40 cores,    1 groups
 distr:  one band on NCORES_PER_BAND=   4 cores,   10 groups


--------------------------------------------------------------------------------------------------------


 INCAR:
 POTCAR:    PAW_PBE Pt 04Feb2005                  
 POTCAR:    PAW_PBE H 15Jun2001                   
 POTCAR:    PAW_PBE Pt 04Feb2005                  
   VRHFIN =Pt: s1d9                                                             
   LEXCH  = PE                                                                  
   EATOM  =   729.1176 eV,   53.5886 Ry                                         
                                                                                
   TITEL  = PAW_PBE Pt 04Feb2005                                                
   LULTRA =        F    use ultrasoft PP ?                                      
   IUNSCR =        1    unscreen: 0-lin 1-nonlin 2-no                           
   RPACOR =    2.330    partial core radius                                     
   POMASS =  195.080; ZVAL   =   10.000    mass and valenz                      
   RCORE  =    2.600    outmost cutoff radius                                   
   RWIGS  =    2.750; RWIGS  =    1.455    wigner-seitz radius (au A)           
   ENMAX  =  230.283; ENMIN  =  172.712 eV                                      
   ICORE  =        3    local potential                                         
   LCOR   =        T    correct aug charges                                     
   LPAW   =        T    paw PP                                                  
   EAUG   =  358.966                                                            
   DEXC   =    0.000                                                            
   RMAX   =    2.658    core radius for proj-oper                               
   RAUG   =    1.300    factor for augmentation sphere                          
   RDEP   =    2.761    radius for radial grids                                 
   RDEPT  =    2.203    core radius for aug-charge                              
                                                                                
   Atomic configuration                                                         
   16 entries                                                                   
     n  l   j            E        occ.                                          
     1  0  0.50    -78401.1885   2.0000                                         
     2  0  0.50    -13770.7750   2.0000                                         
     2  1  1.50    -11931.0468   6.0000                                         
     3  0  0.50     -3234.7234   2.0000                                         
     3  1  1.50     -2699.2216   6.0000                                         
     3  2  2.50     -2119.5714  10.0000                                         
     4  0  0.50      -695.1528   2.0000                                         
     4  1  1.50      -519.6034   6.0000                                         
     4  2  2.50      -306.6786  10.0000                                         
     4  3  3.50       -70.1041  14.0000                                         
     5  0  0.50      -101.7747   2.0000                                         
     5  1  1.50       -55.9873   6.0000                                         
     5  2  2.50        -6.1423   9.0000                                         
     6  0  0.50        -5.6573   1.0000                                         
     6  1  1.50        -6.8029   0.0000                                         
     5  3  2.50        -1.3606   0.0000                                         
   Description                                                                  
     l       E           TYP  RCUT    TYP  RCUT                                 
     2     -6.1423404     23  2.500                                             
     2     -7.5029230     23  2.500                                             
     0     -5.6573207     23  2.500                                             
     0      0.7416693     23  2.500                                             
     1     -2.7211652     23  2.600                                             
     1     20.4087390     23  2.600                                             
     3     -1.3605826     23  2.500                                             
  local pseudopotential read in
  partial core-charges read in
  partial kinetic energy density read in
  atomic valenz-charges read in
  non local Contribution for L=           2  read in
    real space projection operators read in
  non local Contribution for L=           2  read in
    real space projection operators read in
  non local Contribution for L=           0  read in
    real space projection operators read in
  non local Contribution for L=           0  read in
    real space projection operators read in
  non local Contribution for L=           1  read in
    real space projection operators read in
  non local Contribution for L=           1  read in
    real space projection operators read in
    PAW grid and wavefunctions read in
 
   number of l-projection  operators is LMAX  =           6
   number of lm-projection operators is LMMAX =          18
 
 POTCAR:    PAW_PBE H 15Jun2001                   
   VRHFIN =H: ultrasoft test                                                    
   LEXCH  = PE                                                                  
   EATOM  =    12.4884 eV,    0.9179 Ry                                         
                                                                                
   TITEL  = PAW_PBE H 15Jun2001                                                 
   LULTRA =        F    use ultrasoft PP ?                                      
   IUNSCR =        0    unscreen: 0-lin 1-nonlin 2-no                           
   RPACOR =    0.000    partial core radius                                     
   POMASS =    1.000; ZVAL   =    1.000    mass and valenz                      
   RCORE  =    1.100    outmost cutoff radius                                   
   RWIGS  =    0.700; RWIGS  =    0.370    wigner-seitz radius (au A)           
   ENMAX  =  250.000; ENMIN  =  200.000 eV                                      
   RCLOC  =    0.701    cutoff for local pot                                    
   LCOR   =        T    correct aug charges                                     
   LPAW   =        T    paw PP                                                  
   EAUG   =  400.000                                                            
   RMAX   =    1.123    core radius for proj-oper                               
   RAUG   =    1.200    factor for augmentation sphere                          
   RDEP   =    1.112    radius for radial grids                                 
   RDEPT  =    0.926    core radius for aug-charge                              
                                                                                
   Atomic configuration                                                         
    2 entries                                                                   
     n  l   j            E        occ.                                          
     1  0  0.50        -6.4927   1.0000                                         
     2  1  0.50        -3.4015   0.0000                                         
   Description                                                                  
     l       E           TYP  RCUT    TYP  RCUT                                 
     0     -6.4927494     23  1.100                                             
     0      6.8029130     23  1.100                                             
     1     -4.0817478     23  1.100                                             
  local pseudopotential read in
  atomic valenz-charges read in
  non local Contribution for L=           0  read in
    real space projection operators read in
  non local Contribution for L=           0  read in
    real space projection operators read in
  non local Contribution for L=           1  read in
    real space projection operators read in
    PAW grid and wavefunctions read in
 
   number of l-projection  operators is LMAX  =           3
   number of lm-projection operators is LMMAX =           5
 
 Optimization of the real space projectors (new method)

 maximal supplied QI-value         = 14.36
 optimisation between [QCUT,QGAM] = [ 11.92, 23.98] = [ 39.79,161.09] Ry 
 Optimized for a Real-space Cutoff    1.49 Angstroem

   l    n(q)    QCUT    max X(q) W(low)/X(q) W(high)/X(q)  e(spline) 
   2     10    11.920    66.195    0.79E-04    0.18E-03    0.24E-06
   2     10    11.920    64.643    0.81E-04    0.19E-03    0.24E-06
   0     11    11.920    95.520    0.28E-04    0.54E-04    0.18E-06
   0     11    11.920    63.403    0.27E-04    0.52E-04    0.17E-06
   1     10    11.920    19.961    0.18E-04    0.11E-03    0.23E-06
   1     10    11.920    13.289    0.25E-04    0.87E-04    0.19E-06
 Optimization of the real space projectors (new method)

 maximal supplied QI-value         = 34.20
 optimisation between [QCUT,QGAM] = [ 11.97, 23.94] = [ 40.13,160.53] Ry 
 Optimized for a Real-space Cutoff    1.18 Angstroem

   l    n(q)    QCUT    max X(q) W(low)/X(q) W(high)/X(q)  e(spline) 
   0      8    11.971    19.460    0.15E-03    0.31E-03    0.25E-06
   0      8    11.971    12.209    0.13E-03    0.29E-03    0.25E-06
   1      8    11.971     4.655    0.22E-03    0.24E-03    0.21E-06
  PAW_PBE Pt 04Feb2005                  :
 energy of atom  1       EATOM= -729.1176
 kinetic energy error for atom=    0.0021 (will be added to EATOM!!)
  PAW_PBE H 15Jun2001                   :
 energy of atom  2       EATOM=  -12.4884
 kinetic energy error for atom=    0.0008 (will be added to EATOM!!)
 
 
 POSCAR: Pt111\(1\1\1)\(2)                       
  positions in cartesian coordinates
  No initial velocities read in
 exchange correlation table for  LEXCH =        8
   RHO(1)=    0.500       N(1)  =     2000
   RHO(2)=  100.500       N(2)  =     4000
 


--------------------------------------------------------------------------------------------------------


 ion  position               nearest neighbor table
   1  1.000  0.000  0.056-   5 2.64   9 2.64  13 2.64  29 2.64  57 2.64  37 2.64  42 2.87  14 2.87
                            54 2.87
   2  0.333  0.167  0.178-  30 2.64  26 2.64  38 2.64  42 2.64  14 2.64   6 2.64  15 2.84   7 2.84
                            11 2.84   9 2.87  21 2.87  13 2.87
   3  0.167  0.333  0.297-  39 2.64  27 2.64  43 2.64   7 2.64  15 2.64  31 2.64  14 2.84   6 2.84
                            10 2.84  12 2.87   8 2.87  48 2.87
   4  0.000  1.000  0.419-   8 2.64  12 2.64  16 2.64  32 2.64  40 2.64  60 2.64  27 2.87   7 2.87
                            63 2.87
   5  1.000  0.250  0.056-   1 2.64  45 2.64  33 2.64   9 2.64  29 2.64  25 2.64  14 2.87  10 2.87
                            18 2.87
   6  0.333  0.417  0.178-  26 2.64  62 2.64  10 2.64  34 2.64  14 2.64   2 2.64  43 2.84   3 2.84
                            15 2.84  45 2.87  49 2.87   9 2.87
   7  0.167  0.083  0.297-  27 2.64  15 2.64   3 2.64  63 2.64  11 2.64  35 2.64  42 2.84   2 2.84
                            14 2.84  16 2.87   4 2.87  12 2.87
   8  0.000  0.250  0.419-   4 2.64  48 2.64  36 2.64  12 2.64  32 2.64  28 2.64  31 2.87   3 2.87
                            27 2.87
   9  0.250  0.250  0.056-  21 2.64  13 2.64   1 2.64  49 2.64  45 2.64   5 2.64   2 2.87  14 2.87
                             6 2.87
  10  0.083  0.417  0.178-  34 2.64   6 2.64  46 2.64  14 2.64  18 2.64  22 2.64  39 2.84  31 2.84
                             3 2.84  33 2.87  45 2.87   5 2.87
  11  0.417  0.083  0.297-  19 2.64  15 2.64   7 2.64  47 2.64  35 2.64  23 2.64  30 2.84  38 2.84
                             2 2.84  20 2.87  16 2.87  24 2.87
  12  0.250  0.250  0.419-  65 2.07  24 2.64  16 2.64   4 2.64  52 2.64  48 2.64   8 2.64   3 2.87
                            15 2.87   7 2.87
  13  0.250  0.000  0.056-  21 2.64   9 2.64  17 2.64   1 2.64  37 2.64  41 2.64  38 2.87   2 2.87
                            42 2.87
  14  0.083  0.167  0.178-  42 2.64  54 2.64   6 2.64   2 2.64  10 2.64  18 2.64  27 2.84   3 2.84
                             7 2.84   5 2.87   1 2.87   9 2.87
  15  0.417  0.333  0.297-  43 2.64   7 2.64   3 2.64  11 2.64  55 2.64  19 2.64  26 2.84   2 2.84
                             6 2.84  24 2.87  12 2.87  52 2.87
  16  0.250  1.000  0.419-  24 2.64  12 2.64  20 2.64   4 2.64  40 2.64  44 2.64   7 2.87  11 2.87
                            35 2.87
  17  0.500  0.000  0.056-  29 2.64  25 2.64  13 2.64  21 2.64  41 2.64  53 2.64  58 2.87  30 2.87
                            38 2.87
  18  0.833  0.167  0.178-  54 2.64  58 2.64  22 2.64  10 2.64  30 2.64  14 2.64  23 2.84  31 2.84
                            27 2.84  25 2.87  29 2.87   5 2.87
  19  0.667  0.333  0.297-  55 2.64  31 2.64  59 2.64  11 2.64  23 2.64  15 2.64  22 2.84  30 2.84
                            26 2.84  28 2.87  64 2.87  24 2.87
  20  0.500  1.000  0.419-  32 2.64  28 2.64  16 2.64  24 2.64  44 2.64  56 2.64  11 2.87  23 2.87
                            47 2.87
  21  0.500  0.250  0.056-  25 2.64  61 2.64   9 2.64  13 2.64  49 2.64  17 2.64  30 2.87   2 2.87
                            26 2.87
  22  0.833  0.417  0.178-  50 2.64  26 2.64  30 2.64  18 2.64  46 2.64  10 2.64  19 2.84  59 2.84
                            31 2.84  61 2.87  25 2.87  33 2.87
  23  0.667  0.083  0.297-  27 2.64  31 2.64  19 2.64  51 2.64  47 2.64  11 2.64  18 2.84  58 2.84
                            30 2.84  32 2.87  28 2.87  20 2.87
  24  0.500  0.250  0.419-  28 2.64  64 2.64  12 2.64  16 2.64  52 2.64  20 2.64  15 2.87  11 2.87
                            19 2.87
  25  0.750  0.250  0.056-  17 2.64  21 2.64  29 2.64  61 2.64  33 2.64   5 2.64  18 2.87  22 2.87
                            30 2.87
  26  0.583  0.417  0.178-   6 2.64   2 2.64  22 2.64  30 2.64  62 2.64  50 2.64  55 2.84  15 2.84
                            19 2.84  49 2.87  61 2.87  21 2.87
  27  0.917  0.083  0.297-  23 2.64   7 2.64   3 2.64  51 2.64  31 2.64  63 2.64  54 2.84  14 2.84
                            18 2.84   4 2.87   8 2.87  32 2.87
  28  0.750  0.250  0.419-  20 2.64  24 2.64  32 2.64  64 2.64  36 2.64   8 2.64  19 2.87  23 2.87
                            31 2.87
  29  0.750  0.000  0.056-  17 2.64  25 2.64   5 2.64  53 2.64   1 2.64  57 2.64  54 2.87  18 2.87
                            58 2.87
  30  0.583  0.167  0.178-   2 2.64  38 2.64  58 2.64  26 2.64  22 2.64  18 2.64  11 2.84  19 2.84
                            23 2.84  21 2.87  17 2.87  25 2.87
  31  0.917  0.333  0.297-  59 2.64  19 2.64  23 2.64  39 2.64   3 2.64  27 2.64  18 2.84  10 2.84
                            22 2.84   8 2.87  36 2.87  28 2.87
  32  0.750  1.000  0.419-  20 2.64  28 2.64   8 2.64  56 2.64   4 2.64  60 2.64  23 2.87  27 2.87
                            51 2.87
  33  1.000  0.500  0.056-  37 2.64  41 2.64   5 2.64  45 2.64  25 2.64  61 2.64  10 2.87  46 2.87
                            22 2.87
  34  0.333  0.667  0.178-  62 2.64  10 2.64  58 2.64  46 2.64   6 2.64  38 2.64  47 2.84  39 2.84
                            43 2.84  41 2.87  45 2.87  53 2.87
  35  0.167  0.833  0.297-  63 2.64  59 2.64   7 2.64  11 2.64  47 2.64  39 2.64  46 2.84  38 2.84
                            42 2.84  44 2.87  40 2.87  16 2.87
  36  0.000  0.500  0.419-  40 2.64  44 2.64   8 2.64  48 2.64  28 2.64  64 2.64  59 2.87  39 2.87
                            31 2.87
  37  1.000  0.750  0.056-  33 2.64  41 2.64  61 2.64  57 2.64  13 2.64   1 2.64  46 2.87  50 2.87
                            42 2.87
  38  0.333  0.917  0.178-  58 2.64  30 2.64   2 2.64  42 2.64  34 2.64  46 2.64  11 2.84  35 2.84
                            47 2.84  13 2.87  17 2.87  41 2.87
  39  0.167  0.583  0.297-   3 2.64  31 2.64  59 2.64  43 2.64  47 2.64  35 2.64  10 2.84  34 2.84
                            46 2.84  48 2.87  36 2.87  44 2.87
  40  0.000  0.750  0.419-  36 2.64  44 2.64  64 2.64  60 2.64  16 2.64   4 2.64  63 2.87  35 2.87
                            59 2.87
  41  0.250  0.750  0.056-  45 2.64  33 2.64  37 2.64  53 2.64  17 2.64  13 2.64  34 2.87  46 2.87
                            38 2.87
  42  0.083  0.917  0.178-  14 2.64   2 2.64  38 2.64  46 2.64  50 2.64  54 2.64   7 2.84  63 2.84
                            35 2.84   1 2.87  13 2.87  37 2.87
  43  0.417  0.583  0.297-  15 2.64   3 2.64  39 2.64  51 2.64  47 2.64  55 2.64  62 2.84   6 2.84
                            34 2.84  52 2.87  56 2.87  48 2.87
  44  0.250  0.750  0.419-  48 2.64  36 2.64  40 2.64  56 2.64  20 2.64  16 2.64  35 2.87  39 2.87
                            47 2.87
  45  0.250  0.500  0.056-  41 2.64  53 2.64   5 2.64   9 2.64  49 2.64  33 2.64   6 2.87  10 2.87
                            34 2.87
  46  0.083  0.667  0.178-  34 2.64  50 2.64  10 2.64  42 2.64  22 2.64  38 2.64  59 2.84  35 2.84
                            39 2.84  37 2.87  33 2.87  41 2.87
  47  0.417  0.833  0.297-  39 2.64  43 2.64  11 2.64  23 2.64  35 2.64  51 2.64  58 2.84  34 2.84
                            38 2.84  56 2.87  44 2.87  20 2.87
  48  0.250  0.500  0.419-  65 2.07  44 2.64  56 2.64   8 2.64  12 2.64  36 2.64  52 2.64  39 2.87
                             3 2.87  43 2.87
  49  0.500  0.500  0.056-  61 2.64  53 2.64  57 2.64  21 2.64   9 2.64  45 2.64  26 2.87   6 2.87
                            62 2.87
  50  0.833  0.667  0.178-  22 2.64  46 2.64  26 2.64  42 2.64  54 2.64  62 2.64  55 2.84  63 2.84
                            59 2.84  57 2.87  61 2.87  37 2.87
  51  0.667  0.833  0.297-  63 2.64  27 2.64  43 2.64  55 2.64  23 2.64  47 2.64  54 2.84  62 2.84
                            58 2.84  60 2.87  32 2.87  56 2.87
  52  0.500  0.500  0.419-  65 2.07  64 2.64  56 2.64  60 2.64  24 2.64  12 2.64  48 2.64  43 2.87
                            15 2.87  55 2.87
  53  0.500  0.750  0.056-  49 2.64  57 2.64  45 2.64  41 2.64  29 2.64  17 2.64  62 2.87  34 2.87
                            58 2.87
  54  0.833  0.917  0.178-  18 2.64  14 2.64  50 2.64  58 2.64  42 2.64  62 2.64  51 2.84  27 2.84
                            63 2.84  29 2.87   1 2.87  57 2.87
  55  0.667  0.583  0.297-  19 2.64  59 2.64  63 2.64  15 2.64  51 2.64  43 2.64  50 2.84  26 2.84
                            62 2.84  64 2.87  60 2.87  52 2.87
  56  0.500  0.750  0.419-  52 2.64  60 2.64  48 2.64  44 2.64  32 2.64  20 2.64  47 2.87  43 2.87
                            51 2.87
  57  0.750  0.750  0.056-  61 2.64  49 2.64  53 2.64  37 2.64   1 2.64  29 2.64  50 2.87  62 2.87
                            54 2.87
  58  0.583  0.917  0.178-  38 2.64  30 2.64  18 2.64  34 2.64  62 2.64  54 2.64  47 2.84  23 2.84
                            51 2.84  17 2.87  29 2.87  53 2.87
  59  0.917  0.583  0.297-  31 2.64  55 2.64  19 2.64  39 2.64  35 2.64  63 2.64  22 2.84  46 2.84
                            50 2.84  36 2.87  40 2.87  64 2.87
  60  0.750  0.750  0.419-  64 2.64  52 2.64  56 2.64  40 2.64   4 2.64  32 2.64  51 2.87  55 2.87
                            63 2.87
  61  0.750  0.500  0.056-  49 2.64  57 2.64  21 2.64  25 2.64  37 2.64  33 2.64  22 2.87  26 2.87
                            50 2.87
  62  0.583  0.667  0.178-  34 2.64   6 2.64  26 2.64  58 2.64  54 2.64  50 2.64  43 2.84  51 2.84
                            55 2.84  53 2.87  49 2.87  57 2.87
  63  0.917  0.833  0.297-  51 2.64  35 2.64  55 2.64   7 2.64  59 2.64  27 2.64  50 2.84  42 2.84
                            54 2.84  40 2.87   4 2.87  60 2.87
  64  0.750  0.500  0.419-  52 2.64  60 2.64  24 2.64  28 2.64  40 2.64  36 2.64  55 2.87  19 2.87
                            59 2.87
  65  0.333  0.417  0.489-  48 2.07  12 2.07  52 2.07
 
  LATTYP: Found a hexagonal cell.
 ALAT       =    10.5600004196
 C/A-ratio  =     1.8939393187
  
  Lattice vectors:
  
 A1 = (  10.5600004196,   0.0000000000,   0.0000000000)
 A2 = (  -5.2800002098,   9.1452286274,   0.0000000000)
 A3 = (   0.0000000000,   0.0000000000,  20.0000000000)


Analysis of symmetry for initial positions (statically):
=====================================================================
 Subroutine PRICEL returns:
 Original cell was already a primitive cell.
 

 Routine SETGRP: Setting up the symmetry group for a 
 hexagonal supercell.


 Subroutine GETGRP returns: Found  1 space group operations
 (whereof  1 operations were pure point group operations)
 out of a pool of 24 trial point group operations.


The static configuration has the point symmetry C_1 .


Analysis of symmetry for dynamics (positions and initial velocities):
=====================================================================
 Subroutine PRICEL returns:
 Original cell was already a primitive cell.
 

 Routine SETGRP: Setting up the symmetry group for a 
 hexagonal supercell.


 Subroutine GETGRP returns: Found  1 space group operations
 (whereof  1 operations were pure point group operations)
 out of a pool of 24 trial point group operations.


The dynamic configuration has the point symmetry C_1 .


Analysis of constrained symmetry for selective dynamics:
=====================================================================
 Subroutine PRICEL returns:
 Original cell was already a primitive cell.
 

 Routine SETGRP: Setting up the symmetry group for a 
 hexagonal supercell.


 Subroutine GETGRP returns: Found  1 space group operations
 (whereof  1 operations were pure point group operations)
 out of a pool of 24 trial point group operations.


The constrained configuration has the point symmetry C_1 .


Analysis of structural, dynamic, and magnetic symmetry:
=====================================================================
 Subroutine PRICEL returns:
 Original cell was already a primitive cell.
 

 Routine SETGRP: Setting up the symmetry group for a 
 hexagonal supercell.


 Subroutine GETGRP returns: Found  1 space group operations
 (whereof  1 operations were pure point group operations)
 out of a pool of 24 trial point group operations.


The magnetic configuration has the point symmetry C_1 .


 Subroutine INISYM returns: Found  1 space group operations
 (whereof  1 operations are pure point group operations),
 and found     1 'primitive' translations

 
 
 KPOINTS: mesh auto                               

Automatic generation of k-mesh.
Space group operators:
 irot       det(A)        alpha          n_x          n_y          n_z        tau_x        tau_y        tau_z
    1     1.000000     0.000000     1.000000     0.000000     0.000000     0.000000     0.000000     0.000000
 
 Subroutine IBZKPT returns following result:
 ===========================================
 
 Found      4 irreducible k-points:
 
 Following reciprocal coordinates:
            Coordinates               Weight
  0.000000  0.000000  0.000000      1.000000
  0.500000 -0.000000  0.000000      1.000000
  0.000000  0.500000  0.000000      1.000000
  0.500000  0.500000  0.000000      1.000000
 
 Following cartesian coordinates:
            Coordinates               Weight
  0.000000  0.000000  0.000000      1.000000
  0.047348  0.027337  0.000000      1.000000
  0.000000  0.054673  0.000000      1.000000
  0.047348  0.082010  0.000000      1.000000
 


--------------------------------------------------------------------------------------------------------




 Dimension of arrays:
   k-points           NKPTS =      4   k-points in BZ     NKDIM =      4   number of bands    NBANDS=    420
   number of dos      NEDOS =    301   number of ions     NIONS =     65
   non local maximal  LDIM  =      6   non local SUM 2l+1 LMDIM =     18
   total plane-waves  NPLWV = ******
   max r-space proj   IRMAX =   8171   max aug-charges    IRDMAX=  35597
   dimension x,y,z NGX =    84 NGY =   84 NGZ =  160
   dimension x,y,z NGXF=   168 NGYF=  168 NGZF=  320
   support grid    NGXF=   168 NGYF=  168 NGZF=  320
   ions per type =              64   1
   NGX,Y,Z   is equivalent  to a cutoff of  13.22, 13.22, 13.30 a.u.
   NGXF,Y,Z  is equivalent  to a cutoff of  26.45, 26.45, 26.60 a.u.

 SYSTEM =  Pt111                                   
 POSCAR =  Pt111\(1\1\1)\(2)                       

 Startparameter for this run:
   NWRITE =      2    write-flag & timer
   PREC   = accura    normal or accurate (medium, high low for compatibility)
   ISTART =      0    job   : 0-new  1-cont  2-samecut
   ICHARG =      2    charge: 1-file 2-atom 10-const
   ISPIN  =      2    spin polarized calculation?
   LNONCOLLINEAR =      F non collinear calculations
   LSORBIT =      F    spin-orbit coupling
   INIWAV =      1    electr: 0-lowe 1-rand  2-diag
   LASPH  =      F    aspherical Exc in radial PAW
   METAGGA=      F    non-selfconsistent MetaGGA calc.

 Electronic Relaxation 1
   ENCUT  =  550.0 eV  40.42 Ry    6.36 a.u.  20.19 20.19 38.24*2*pi/ulx,y,z
   ENINI  =  550.0     initial cutoff
   ENAUG  =  400.0 eV  augmentation charge cutoff
   NELM   =    200;   NELMIN=  2; NELMDL= -5     # of ELM steps 
   EDIFF  = 0.1E-04   stopping-criterion for ELM
   LREAL  =      T    real-space projection
   NLSPLINE    = F    spline interpolate recip. space projectors
   LCOMPAT=      F    compatible to vasp.4.4
   GGA_COMPAT  = T    GGA compatible to vasp.4.4-vasp.4.6
   LMAXPAW     = -100 max onsite density
   LMAXMIX     =    2 max onsite mixed and CHGCAR
   VOSKOWN=      0    Vosko Wilk Nusair interpolation
   ROPT   =   -0.00025  -0.00025
 Ionic relaxation
   EDIFFG = -.5E-01   stopping-criterion for IOM
   NSW    =    300    number of steps for IOM
   NBLOCK =      1;   KBLOCK =    300    inner block; outer block 
   IBRION =      2    ionic relax: 0-MD 1-quasi-New 2-CG
   NFREE  =      1    steps in history (QN), initial steepest desc. (CG)
   ISIF   =      2    stress and relaxation
   IWAVPR =     11    prediction:  0-non 1-charg 2-wave 3-comb
   ISYM   =      2    0-nonsym 1-usesym 2-fastsym
   LCORR  =      T    Harris-Foulkes like correction to forces

   POTIM  = 0.5000    time-step for ionic-motion
   TEIN   =    0.0    initial temperature
   TEBEG  =    0.0;   TEEND  =   0.0 temperature during run
   SMASS  =  -3.00    Nose mass-parameter (am)
   estimated Nose-frequenzy (Omega)   =  0.10E-29 period in steps =****** mass=  -0.255E-26a.u.
   SCALEE = 1.0000    scale energy and forces
   NPACO  =    256;   APACO  = 16.0  distance and # of slots for P.C.
   PSTRESS=    0.0 pullay stress

  Mass of Ions in am
   POMASS = 195.08  1.00
  Ionic Valenz
   ZVAL   =  10.00  1.00
  Atomic Wigner-Seitz radii
   RWIGS  =  -1.00 -1.00
  virtual crystal weights 
   VCA    =   1.00  1.00
   NELECT =     641.0000    total number of electrons
   NUPDOWN=      -1.0000    fix difference up-down

 DOS related values:
   EMIN   =  10.00;   EMAX   =-10.00  energy-range for DOS
   EFERMI =   0.00
   ISMEAR =     1;   SIGMA  =   0.10  broadening in eV -4-tet -1-fermi 0-gaus

 Electronic relaxation 2 (details)
   IALGO  =     68    algorithm
   LDIAG  =      T    sub-space diagonalisation (order eigenvalues)
   LSUBROT=      F    optimize rotation matrix (better conditioning)
   TURBO    =      0    0=normal 1=particle mesh
   IRESTART =      0    0=no restart 2=restart with 2 vectors
   NREBOOT  =      0    no. of reboots
   NMIN     =      0    reboot dimension
   EREF     =   0.00    reference energy to select bands
   IMIX   =      4    mixing-type and parameters
     AMIX     =   0.40;   BMIX     =  1.00
     AMIX_MAG =   1.60;   BMIX_MAG =  1.00
     AMIN     =   0.10
     WC   =   100.;   INIMIX=   1;  MIXPRE=   1;  MAXMIX= -45

 Intra band minimization:
   WEIMIN = 0.0010     energy-eigenvalue tresh-hold
   EBREAK =  0.60E-08  absolut break condition
   DEPER  =   0.30     relativ break condition  

   TIME   =   0.40     timestep for ELM

  volume/ion in A,a.u.               =      29.71       200.53
  Fermi-wavevector in a.u.,A,eV,Ry     =   1.133439  2.141888 17.479175  1.284683
  Thomas-Fermi vector in A             =   2.270141
 
 Write flags
   LWAVE        =      F    write WAVECAR
   LDOWNSAMPLE  =      F    k-point downsampling of WAVECAR
   LCHARG       =      F    write CHGCAR
   LVTOT        =      F    write LOCPOT, total local potential
   LVHAR        =      F    write LOCPOT, Hartree potential only
   LELF         =      F    write electronic localiz. function (ELF)
   LORBIT       =      0    0 simple, 1 ext, 2 COOP (PROOUT), +10 PAW based schemes


 Dipole corrections
   LMONO  =      F    monopole corrections only (constant potential shift)
   LDIPOL =      F    correct potential (dipole corrections)
   IDIPOL =      0    1-x, 2-y, 3-z, 4-all directions 
   EPSILON=  1.0000000 bulk dielectric constant

 Exchange correlation treatment:
   GGA     =    --    GGA type
   LEXCH   =     8    internal setting for exchange type
   VOSKOWN=      0    Vosko Wilk Nusair interpolation
   LHFCALC =     F    Hartree Fock is set to
   LHFONE  =     F    Hartree Fock one center treatment
   AEXX    =    0.0000 exact exchange contribution

 Linear response parameters
   LEPSILON=     F    determine dielectric tensor
   LRPA    =     F    only Hartree local field effects (RPA)
   LNABLA  =     F    use nabla operator in PAW spheres
   LVEL    =     F    velocity operator in full k-point grid
   LINTERFAST=   F  fast interpolation
   KINTER  =     0    interpolate to denser k-point grid
   CSHIFT  =0.1000    complex shift for real part using Kramers Kronig
   OMEGAMAX=  -1.0    maximum frequency
   DEG_THRESHOLD= 0.2000000E-02 threshold for treating states as degnerate
   RTIME   =   -0.100 relaxation time in fs
  (WPLASMAI=    0.000 imaginary part of plasma frequency in eV, 0.658/RTIME)
   DFIELD  = 0.0000000 0.0000000 0.0000000 field for delta impulse in time
 
 Orbital magnetization related:
   ORBITALMAG=     F  switch on orbital magnetization
   LCHIMAG   =     F  perturbation theory with respect to B field
   DQ        =  0.001000  dq finite difference perturbation B field
   LLRAUG    =     F  two centre corrections for induced B field



--------------------------------------------------------------------------------------------------------


 conjugate gradient relaxation of ions
   using selective dynamics as specified on POSCAR
   WARNING: If single coordinates had been selected the selection of coordinates
            is made according to the corresponding   d i r e c t   coordinates!
            Don't support selection of single cartesian coordinates -- sorry ...
  !
 charge density and potential will be updated during run
 spin polarized calculation
 RMM-DIIS sequential band-by-band and
  variant of blocked Davidson during initial phase
 perform sub-space diagonalisation
    before iterative eigenvector-optimisation
 modified Broyden-mixing scheme, WC =      100.0
 initial mixing is a Kerker type mixing with AMIX =  0.4000 and BMIX =      1.0000
 Hartree-type preconditioning will be used
 using additional bands           99
 real space projection scheme for non local part
 use partial core corrections
 calculate Harris-corrections to forces 
   (improved forces if not selfconsistent)
 use gradient corrections 
 use of overlap-Matrix (Vanderbilt PP)
 Methfessel and Paxton  Order N= 1 SIGMA  =   0.10


--------------------------------------------------------------------------------------------------------


  energy-cutoff  :      550.00
  volume of cell :     1931.47
      direct lattice vectors                 reciprocal lattice vectors
    10.560000420  0.000000000  0.000000000     0.094696966  0.054673319  0.000000000
    -5.280000210  9.145228627  0.000000000     0.000000000  0.109346638  0.000000000
     0.000000000  0.000000000 20.000000000     0.000000000  0.000000000  0.050000000

  length of vectors
    10.560000420 10.560000420 20.000000000     0.109346638  0.109346638  0.050000000


 
 k-points in units of 2pi/SCALE and weight: mesh auto                               
   0.00000000  0.00000000  0.00000000       0.250
   0.04734848  0.02733666  0.00000000       0.250
   0.00000000  0.05467332  0.00000000       0.250
   0.04734848  0.08200998  0.00000000       0.250
 
 k-points in reciprocal lattice and weights: mesh auto                               
   0.00000000  0.00000000  0.00000000       0.250
   0.50000000 -0.00000000  0.00000000       0.250
   0.00000000  0.50000000  0.00000000       0.250
   0.50000000  0.50000000  0.00000000       0.250
 
 position of ions in fractional coordinates (direct lattice) 
   0.99999844  0.00000156  0.05579229
   0.33333173  0.16666826  0.17752397
   0.16666826  0.33333171  0.29729603
   0.00000156  0.99999844  0.41902774
   0.99999844  0.25000155  0.05579229
   0.33333172  0.41666827  0.17752397
   0.16666826  0.08333172  0.29729603
   0.00000155  0.24999844  0.41902774
   0.24999844  0.25000155  0.05579229
   0.08333172  0.41666827  0.17752397
   0.41666827  0.08333172  0.29729603
   0.25000155  0.24999844  0.41902774
   0.24999844  0.00000156  0.05579229
   0.08333172  0.16666826  0.17752397
   0.41666826  0.33333171  0.29729603
   0.25000156  0.99999844  0.41902774
   0.49999844  0.00000156  0.05579229
   0.83333168  0.16666826  0.17752397
   0.66666828  0.33333171  0.29729603
   0.50000156  0.99999844  0.41902774
   0.49999843  0.25000155  0.05579229
   0.83333168  0.41666827  0.17752397
   0.66666830  0.08333172  0.29729603
   0.50000154  0.24999844  0.41902774
   0.74999841  0.25000155  0.05579229
   0.58333168  0.41666827  0.17752397
   0.91666827  0.08333172  0.29729603
   0.75000152  0.24999844  0.41902774
   0.74999842  0.00000156  0.05579229
   0.58333166  0.16666826  0.17752397
   0.91666826  0.33333171  0.29729603
   0.75000153  0.99999844  0.41902774
   0.99999844  0.50000154  0.05579229
   0.33333171  0.66666826  0.17752397
   0.16666825  0.83333170  0.29729603
   0.00000155  0.49999843  0.41902774
   0.99999843  0.75000151  0.05579229
   0.33333173  0.91666828  0.17752397
   0.16666826  0.58333168  0.29729603
   0.00000154  0.74999840  0.41902774
   0.24999843  0.75000151  0.05579229
   0.08333173  0.91666828  0.17752397
   0.41666828  0.58333168  0.29729603
   0.25000154  0.74999840  0.41902774
   0.24999844  0.50000154  0.05579229
   0.08333171  0.66666826  0.17752397
   0.41666827  0.83333170  0.29729603
   0.25000155  0.49999843  0.41902774
   0.49999844  0.50000154  0.05579229
   0.83333171  0.66666826  0.17752397
   0.66666830  0.83333170  0.29729603
   0.50000155  0.49999843  0.41902774
   0.49999843  0.75000151  0.05579229
   0.83333170  0.91666828  0.17752397
   0.66666830  0.58333168  0.29729603
   0.50000154  0.74999840  0.41902774
   0.74999841  0.75000151  0.05579229
   0.58333168  0.91666828  0.17752397
   0.91666828  0.58333168  0.29729603
   0.75000152  0.74999840  0.41902774
   0.74999839  0.50000154  0.05579229
   0.58333166  0.66666826  0.17752397
   0.91666827  0.83333170  0.29729603
   0.75000150  0.49999843  0.41902774
   0.33330000  0.41666000  0.48900000
 
 position of ions in cartesian coordinates  (Angst):
  10.55997578  0.00001422  1.11584590
   2.63997474  1.52421935  3.55047947
   0.00002535  3.04839473  5.94592065
  -5.27997557  9.14521440  8.38055470
   9.23997574  2.28632132  1.11584590
   1.31997457  3.81052657  3.55047947
   1.32002541  0.76208763  5.94592065
  -1.31997541  2.28629287  8.38055470
   1.31997542  2.28632132  1.11584590
  -1.32002553  3.81052657  3.55047947
   3.96002563  0.76208763  5.94592065
   1.32002469  2.28629287  8.38055470
   2.63997547  0.00001422  1.11584590
  -0.00002541  1.52421935  3.55047947
   2.64002545  3.04839473  5.94592065
  -2.63997547  9.14521440  8.38055470
   5.27997557  0.00001422  1.11584590
   7.91997448  1.52421935  3.55047947
   5.28002580  3.04839473  5.94592065
   0.00002464  9.14521440  8.38055470
   3.95997540  2.28632132  1.11584590
   6.59997431  3.81052657  3.55047947
   6.60002598  0.76208763  5.94592065
   3.96002467  2.28629287  8.38055470
   6.59997527  2.28632132  1.11584590
   3.95997420  3.81052657  3.55047947
   9.24002584  0.76208763  5.94592065
   6.60002455  2.28629287  8.38055470
   7.91997543  0.00001422  1.11584590
   5.27997414  1.52421935  3.55047947
   7.92002566  3.04839473  5.94592065
   2.64002450  9.14521440  8.38055470
   7.91997567  4.57262842  1.11584590
  -0.00002559  6.09683366  3.55047947
  -2.63997474  7.62100892  5.94592065
  -2.63997547  4.57259997  8.38055470
   6.59997574  6.85893527  1.11584590
  -1.32002553  8.38314100  3.55047947
  -1.31997445  5.33470159  5.94592065
  -3.95997540  6.85890683  8.38055470
  -1.32002457  6.85893527  1.11584590
  -3.96002563  8.38314100  3.55047947
   1.32002577  5.33470159  5.94592065
  -1.31997530  6.85890683  8.38055470
  -0.00002464  4.57262842  1.11584590
  -2.64002570  6.09683366  3.55047947
   0.00002559  7.62100892  5.94592065
   0.00002463  4.57259997  8.38055470
   2.63997546  4.57262842  1.11584590
   5.27997462  6.09683366  3.55047947
   2.64002594  7.62100892  5.94592065
   2.64002474  4.57259997  8.38055470
   1.31997553  6.85893527  1.11584590
   3.95997444  8.38314100  3.55047947
   3.96002611  5.33470159  5.94592065
   1.32002481  6.85890683  8.38055470
   3.95997540  6.85893527  1.11584590
   1.31997410  8.38314100  3.55047947
   6.60002598  5.33470159  5.94592065
   3.96002468  6.85890683  8.38055470
   5.27997509  4.57262842  1.11584590
   2.63997404  6.09683366  3.55047947
   5.28002580  7.62100892  5.94592065
   5.28002437  4.57259997  8.38055470
   1.31968325  3.81045096  9.78000000
 


--------------------------------------------------------------------------------------------------------


 k-point  1 :   0.0000 0.0000 0.0000  plane waves:   56579
 k-point  2 :   0.5000-0.0000 0.0000  plane waves:   56606
 k-point  3 :   0.0000 0.5000 0.0000  plane waves:   56606
 k-point  4 :   0.5000 0.5000 0.0000  plane waves:   56606

 maximum and minimum number of plane-waves per node :     14185    14108

 maximum number of plane-waves:     56606
 maximum index in each direction: 
   IXMAX=   20   IYMAX=   20   IZMAX=   38
   IXMIN=  -20   IYMIN=  -20   IZMIN=  -38


 real space projection operators:
  total allocation   :      71197.33 KBytes
  max/ min on nodes  :      17799.62      17799.16


 parallel 3D FFT for wavefunctions:
    minimum data exchange during FFTs selected (reduces bandwidth)
 parallel 3D FFT for charge:
    minimum data exchange during FFTs selected (reduces bandwidth)


 total amount of memory used by VASP MPI-rank0   200562. kBytes
=======================================================================

   base      :      30000. kBytes
   nonlr-proj:      30904. kBytes
   fftplans  :      17093. kBytes
   grid      :      44247. kBytes
   one-center:        528. kBytes
   wavefun   :      77790. kBytes
 
     INWAV:  cpu time    0.0000: real time    0.0000
 Broyden mixing: mesh for mixing (old mesh)
   NGX = 41   NGY = 41   NGZ = 77
  (NGX  =168   NGY  =168   NGZ  =320)
  gives a total of 129437 points

 initial charge density was supplied:
 charge density of overlapping atoms calculated
 number of electron     641.0000000 magnetization      65.0000000
 keeping initial charge density in first step


--------------------------------------------------------------------------------------------------------


 Maximum index for non-local projection operator         2015
 Maximum index for augmentation-charges         2177 (set IRDMAX)


--------------------------------------------------------------------------------------------------------


 First call to EWALD:  gamma=   0.142
 Maximum number of real-space cells 4x 4x 2
 Maximum number of reciprocal cells 2x 2x 4

    FEWALD:  cpu time    0.0030: real time    0.0030


--------------------------------------- Iteration      1(   1)  ---------------------------------------


    POTLOK:  cpu time    0.3890: real time    0.3926
    SETDIJ:  cpu time    0.0328: real time    0.0331
     EDDAV:  cpu time   42.7512: real time   42.9080
       DOS:  cpu time    0.0027: real time    0.0028
    --------------------------------------------
      LOOP:  cpu time   43.1757: real time   43.3365

 eigenvalue-minimisations  :  6730
 total energy-change (2. order) : 0.4498686E+04  (-0.3120936E+05)
 number of electron     641.0000000 magnetization      65.0000000
 augmentation part      641.0000000 magnetization      65.0000000

 Free energy of the ion-electron system (eV)
  ---------------------------------------------------
  alpha Z        PSCENC =      2019.82280658
  Ewald energy   TEWEN  =    126061.61105105
  -Hartree energ DENC   =   -177145.94851017
  -exchange      EXHF   =         0.00000000
  -V(xc)+E(xc)   XCENC  =       245.21329993
  PAW double counting   =     44548.75599742   -42738.90423410
  entropy T*S    EENTRO =        -0.00145550
  eigenvalues    EBANDS =      4832.25384153
  atomic energy  EATOM  =     46675.88275157
  Solvation  Ediel_sol  =         0.00000000
  ---------------------------------------------------
  free energy    TOTEN  =      4498.68554831 eV

  energy without entropy =     4498.68700381  energy(sigma->0) =     4498.68603348


--------------------------------------------------------------------------------------------------------




--------------------------------------- Iteration      1(   2)  ---------------------------------------


     EDDAV:  cpu time   46.6179: real time   46.7460
       DOS:  cpu time    0.0016: real time    0.0016
    --------------------------------------------
      LOOP:  cpu time   46.6195: real time   46.7475

 eigenvalue-minimisations  :  7550
 total energy-change (2. order) :-0.4635512E+04  (-0.4246704E+04)
 number of electron     641.0000000 magnetization      65.0000000
 augmentation part      641.0000000 magnetization      65.0000000

 Free energy of the ion-electron system (eV)
  ---------------------------------------------------
  alpha Z        PSCENC =      2019.82280658
  Ewald energy   TEWEN  =    126061.61105105
  -Hartree energ DENC   =   -177145.94851017
  -exchange      EXHF   =         0.00000000
  -V(xc)+E(xc)   XCENC  =       245.21329993
  PAW double counting   =     44548.75599742   -42738.90423410
  entropy T*S    EENTRO =        -0.00988558
  eigenvalues    EBANDS =       196.75013689
  atomic energy  EATOM  =     46675.88275157
  Solvation  Ediel_sol  =         0.00000000
  ---------------------------------------------------
  free energy    TOTEN  =      -136.82658641 eV

  energy without entropy =     -136.81670083  energy(sigma->0) =     -136.82329121


--------------------------------------------------------------------------------------------------------




--------------------------------------- Iteration      1(   3)  ---------------------------------------


     EDDAV:  cpu time   47.1084: real time   47.2371
       DOS:  cpu time    0.0017: real time    0.0017
    --------------------------------------------
      LOOP:  cpu time   47.1101: real time   47.2388

 eigenvalue-minimisations  :  7630
 total energy-change (2. order) :-0.2452253E+03  (-0.2271824E+03)
 number of electron     641.0000000 magnetization      65.0000000
 augmentation part      641.0000000 magnetization      65.0000000

 Free energy of the ion-electron system (eV)
  ---------------------------------------------------
  alpha Z        PSCENC =      2019.82280658
  Ewald energy   TEWEN  =    126061.61105105
  -Hartree energ DENC   =   -177145.94851017
  -exchange      EXHF   =         0.00000000
  -V(xc)+E(xc)   XCENC  =       245.21329993
  PAW double counting   =     44548.75599742   -42738.90423410
  entropy T*S    EENTRO =         0.00984929
  eigenvalues    EBANDS =       -48.49493693
  atomic energy  EATOM  =     46675.88275157
  Solvation  Ediel_sol  =         0.00000000
  ---------------------------------------------------
  free energy    TOTEN  =      -382.05192536 eV

  energy without entropy =     -382.06177464  energy(sigma->0) =     -382.05520845


--------------------------------------------------------------------------------------------------------




--------------------------------------- Iteration      1(   4)  ---------------------------------------


     EDDAV:  cpu time   48.1330: real time   48.2714
       DOS:  cpu time    0.0017: real time    0.0017
    --------------------------------------------
      LOOP:  cpu time   48.1347: real time   48.2730

 eigenvalue-minimisations  :  7840
 total energy-change (2. order) :-0.6334227E+01  (-0.6274140E+01)
 number of electron     641.0000000 magnetization      65.0000000
 augmentation part      641.0000000 magnetization      65.0000000

 Free energy of the ion-electron system (eV)
  ---------------------------------------------------
  alpha Z        PSCENC =      2019.82280658
  Ewald energy   TEWEN  =    126061.61105105
  -Hartree energ DENC   =   -177145.94851017
  -exchange      EXHF   =         0.00000000
  -V(xc)+E(xc)   XCENC  =       245.21329993
  PAW double counting   =     44548.75599742   -42738.90423410
  entropy T*S    EENTRO =         0.00622424
  eigenvalues    EBANDS =       -54.82553874
  atomic energy  EATOM  =     46675.88275157
  Solvation  Ediel_sol  =         0.00000000
  ---------------------------------------------------
  free energy    TOTEN  =      -388.38615222 eV

  energy without entropy =     -388.39237646  energy(sigma->0) =     -388.38822697


--------------------------------------------------------------------------------------------------------




--------------------------------------- Iteration      1(   5)  ---------------------------------------


     EDDAV:  cpu time   48.3732: real time   48.5059
       DOS:  cpu time    0.0017: real time    0.0017
    CHARGE:  cpu time    3.1937: real time    3.2024
    MIXING:  cpu time    0.0102: real time    0.0106
    --------------------------------------------
      LOOP:  cpu time   51.5788: real time   51.7206

 eigenvalue-minimisations  :  7910
 total energy-change (2. order) :-0.2307720E+00  (-0.2301492E+00)
 number of electron     641.0000122 magnetization      58.8040900
 augmentation part      185.7472241 magnetization      46.8750328

 Broyden mixing:
  rms(total) = 0.10564E+02    rms(broyden)= 0.10564E+02
  rms(prec ) = 0.10668E+02
  weight for this iteration     100.00

 Free energy of the ion-electron system (eV)
  ---------------------------------------------------
  alpha Z        PSCENC =      2019.82280658
  Ewald energy   TEWEN  =    126061.61105105
  -Hartree energ DENC   =   -177145.94851017
  -exchange      EXHF   =         0.00000000
  -V(xc)+E(xc)   XCENC  =       245.21329993
  PAW double counting   =     44548.75599742   -42738.90423410
  entropy T*S    EENTRO =         0.00660274
  eigenvalues    EBANDS =       -55.05668928
  atomic energy  EATOM  =     46675.88275157
  Solvation  Ediel_sol  =         0.00000000
  ---------------------------------------------------
  free energy    TOTEN  =      -388.61692426 eV

  energy without entropy =     -388.62352699  energy(sigma->0) =     -388.61912517


--------------------------------------------------------------------------------------------------------




--------------------------------------- Iteration      1(   6)  ---------------------------------------


    POTLOK:  cpu time    0.3794: real time    0.3805
    SETDIJ:  cpu time    0.0324: real time    0.0324
    EDDIAG:  cpu time    7.5270: real time    7.5478
  RMM-DIIS:  cpu time   27.6996: real time   27.7756
    ORTHCH:  cpu time    0.6533: real time    0.6552
       DOS:  cpu time    0.0017: real time    0.0017
    CHARGE:  cpu time    3.0906: real time    3.0989
    MIXING:  cpu time    0.0103: real time    0.0104
    --------------------------------------------
      LOOP:  cpu time   39.3942: real time   39.5026

 eigenvalue-minimisations  :  6758
 total energy-change (2. order) : 0.2688006E+02  (-0.6279202E+01)
 number of electron     641.0000130 magnetization      51.0964637
 augmentation part      195.1658806 magnetization      38.1463066

 Broyden mixing:
  rms(total) = 0.68002E+01    rms(broyden)= 0.68002E+01
  rms(prec ) = 0.70757E+01
  weight for this iteration     100.00

 eigenvalues of (default mixing * dielectric matrix)
  average eigenvalue GAMMA=   1.2674
  1.2674

 Free energy of the ion-electron system (eV)
  ---------------------------------------------------
  alpha Z        PSCENC =      2019.82280658
  Ewald energy   TEWEN  =    126061.61105105
  -Hartree energ DENC   =   -176463.36060161
  -exchange      EXHF   =         0.00000000
  -V(xc)+E(xc)   XCENC  =       234.95486795
  PAW double counting   =     50894.69801715   -49192.27410783
  entropy T*S    EENTRO =        -0.03486338
  eigenvalues    EBANDS =      -593.03678992
  atomic energy  EATOM  =     46675.88275157
  Solvation  Ediel_sol  =         0.00000000
  ---------------------------------------------------
  free energy    TOTEN  =      -361.73686844 eV

  energy without entropy =     -361.70200506  energy(sigma->0) =     -361.72524732


--------------------------------------------------------------------------------------------------------




--------------------------------------- Iteration      1(   7)  ---------------------------------------


    POTLOK:  cpu time    0.3797: real time    0.3806
    SETDIJ:  cpu time    0.0321: real time    0.0321
    EDDIAG:  cpu time    7.5912: real time    7.6122
  RMM-DIIS:  cpu time   27.1775: real time   27.2519
    ORTHCH:  cpu time    0.6730: real time    0.6749
       DOS:  cpu time    0.0016: real time    0.0016
    CHARGE:  cpu time    3.1580: real time    3.1665
    MIXING:  cpu time    0.0104: real time    0.0104
    --------------------------------------------
      LOOP:  cpu time   39.0234: real time   39.1303

 eigenvalue-minimisations  :  6735
 total energy-change (2. order) :-0.1043636E+03  (-0.1189493E+02)
 number of electron     641.0000136 magnetization      45.2566112
 augmentation part      192.7109014 magnetization      33.0911081

 Broyden mixing:
  rms(total) = 0.93315E+01    rms(broyden)= 0.93315E+01
  rms(prec ) = 0.11476E+02
  weight for this iteration     100.00

 eigenvalues of (default mixing * dielectric matrix)
  average eigenvalue GAMMA=   1.0770
  1.8105  0.3434

 Free energy of the ion-electron system (eV)
  ---------------------------------------------------
  alpha Z        PSCENC =      2019.82280658
  Ewald energy   TEWEN  =    126061.61105105
  -Hartree energ DENC   =   -177024.09162757
  -exchange      EXHF   =         0.00000000
  -V(xc)+E(xc)   XCENC  =       229.00501443
  PAW double counting   =     56566.17192323   -54926.22280806
  entropy T*S    EENTRO =        -0.01523327
  eigenvalues    EBANDS =       -68.26439285
  atomic energy  EATOM  =     46675.88275157
  Solvation  Ediel_sol  =         0.00000000
  ---------------------------------------------------
  free energy    TOTEN  =      -466.10051489 eV

  energy without entropy =     -466.08528162  energy(sigma->0) =     -466.09543713


--------------------------------------------------------------------------------------------------------




--------------------------------------- Iteration      1(   8)  ---------------------------------------


    POTLOK:  cpu time    0.3797: real time    0.3806
    SETDIJ:  cpu time    0.0321: real time    0.0322
    EDDIAG:  cpu time    7.5152: real time    7.5362
  RMM-DIIS:  cpu time   27.4417: real time   27.5144
    ORTHCH:  cpu time    0.6534: real time    0.6549
       DOS:  cpu time    0.0016: real time    0.0016
    CHARGE:  cpu time    3.0660: real time    3.0733
    MIXING:  cpu time    0.0092: real time    0.0092
    --------------------------------------------
      LOOP:  cpu time   39.0988: real time   39.2024

 eigenvalue-minimisations  :  6766
 total energy-change (2. order) : 0.1148845E+03  (-0.5000299E+01)
 number of electron     641.0000132 magnetization      42.1752115
 augmentation part      198.6253159 magnetization      30.0799366

 Broyden mixing:
  rms(total) = 0.24830E+01    rms(broyden)= 0.24830E+01
  rms(prec ) = 0.28185E+01
  weight for this iteration     100.00

 eigenvalues of (default mixing * dielectric matrix)
  average eigenvalue GAMMA=   1.0220
  2.1338  0.5950  0.3371

 Free energy of the ion-electron system (eV)
  ---------------------------------------------------
  alpha Z        PSCENC =      2019.82280658
  Ewald energy   TEWEN  =    126061.61105105
  -Hartree energ DENC   =   -176467.72277788
  -exchange      EXHF   =         0.00000000
  -V(xc)+E(xc)   XCENC  =       231.24908057
  PAW double counting   =     60140.37322015   -58543.75098771
  entropy T*S    EENTRO =        -0.03464100
  eigenvalues    EBANDS =      -468.64652561
  atomic energy  EATOM  =     46675.88275157
  Solvation  Ediel_sol  =         0.00000000
  ---------------------------------------------------
  free energy    TOTEN  =      -351.21602227 eV

  energy without entropy =     -351.18138127  energy(sigma->0) =     -351.20447527


--------------------------------------------------------------------------------------------------------




--------------------------------------- Iteration      1(   9)  ---------------------------------------


    POTLOK:  cpu time    0.3801: real time    0.3810
    SETDIJ:  cpu time    0.0317: real time    0.0318
    EDDIAG:  cpu time    7.5245: real time    7.5424
  RMM-DIIS:  cpu time   27.2653: real time   27.3298
    ORTHCH:  cpu time    0.6545: real time    0.6560
       DOS:  cpu time    0.0016: real time    0.0016
    CHARGE:  cpu time    3.0913: real time    3.0986
    MIXING:  cpu time    0.0111: real time    0.0111
    --------------------------------------------
      LOOP:  cpu time   38.9602: real time   39.0523

 eigenvalue-minimisations  :  6751
 total energy-change (2. order) :-0.1178096E+02  (-0.1358772E+01)
 number of electron     641.0000134 magnetization      40.6701059
 augmentation part      197.7471338 magnetization      32.4528500

 Broyden mixing:
  rms(total) = 0.37049E+01    rms(broyden)= 0.37049E+01
  rms(prec ) = 0.51333E+01
  weight for this iteration     100.00

 eigenvalues of (default mixing * dielectric matrix)
  average eigenvalue GAMMA=   0.8695
  2.1959  0.6881  0.3404  0.2537

 Free energy of the ion-electron system (eV)
  ---------------------------------------------------
  alpha Z        PSCENC =      2019.82280658
  Ewald energy   TEWEN  =    126061.61105105
  -Hartree energ DENC   =   -176487.81557465
  -exchange      EXHF   =         0.00000000
  -V(xc)+E(xc)   XCENC  =       229.96650112
  PAW double counting   =     60487.63352193   -58890.19355400
  entropy T*S    EENTRO =        -0.03894579
  eigenvalues    EBANDS =      -459.86553634
  atomic energy  EATOM  =     46675.88275157
  Solvation  Ediel_sol  =         0.00000000
  ---------------------------------------------------
  free energy    TOTEN  =      -362.99697852 eV

  energy without entropy =     -362.95803273  energy(sigma->0) =     -362.98399659


--------------------------------------------------------------------------------------------------------




--------------------------------------- Iteration      1(  10)  ---------------------------------------


    POTLOK:  cpu time    0.3815: real time    0.3824
    SETDIJ:  cpu time    0.0318: real time    0.0319
    EDDIAG:  cpu time    7.5285: real time    7.5465
  RMM-DIIS:  cpu time   27.5843: real time   27.6525
    ORTHCH:  cpu time    0.6534: real time    0.6550
       DOS:  cpu time    0.0016: real time    0.0016
    CHARGE:  cpu time    3.1003: real time    3.1078
    MIXING:  cpu time    0.0109: real time    0.0109
    --------------------------------------------
      LOOP:  cpu time   39.2924: real time   39.3885

 eigenvalue-minimisations  :  6783
 total energy-change (2. order) : 0.2052062E+01  (-0.4017980E+00)
 number of electron     641.0000132 magnetization      39.0029918
 augmentation part      197.5607610 magnetization      27.2167790

 Broyden mixing:
  rms(total) = 0.29080E+01    rms(broyden)= 0.29080E+01
  rms(prec ) = 0.44807E+01
  weight for this iteration     100.00

 eigenvalues of (default mixing * dielectric matrix)
  average eigenvalue GAMMA=   0.7700
  2.2501  0.7406  0.4118  0.3391  0.1081

 Free energy of the ion-electron system (eV)
  ---------------------------------------------------
  alpha Z        PSCENC =      2019.82280658
  Ewald energy   TEWEN  =    126061.61105105
  -Hartree energ DENC   =   -176503.69485232
  -exchange      EXHF   =         0.00000000
  -V(xc)+E(xc)   XCENC  =       229.72887513
  PAW double counting   =     60631.23185513   -59034.15156410
  entropy T*S    EENTRO =         0.01309009
  eigenvalues    EBANDS =      -441.38892994
  atomic energy  EATOM  =     46675.88275157
  Solvation  Ediel_sol  =         0.00000000
  ---------------------------------------------------
  free energy    TOTEN  =      -360.94491679 eV

  energy without entropy =     -360.95800688  energy(sigma->0) =     -360.94928015


--------------------------------------------------------------------------------------------------------




--------------------------------------- Iteration      1(  11)  ---------------------------------------


    POTLOK:  cpu time    0.3840: real time    0.3849
    SETDIJ:  cpu time    0.0320: real time    0.0321
    EDDIAG:  cpu time    7.5340: real time    7.5521
  RMM-DIIS:  cpu time   27.4359: real time   27.5008
    ORTHCH:  cpu time    0.6494: real time    0.6509
       DOS:  cpu time    0.0016: real time    0.0016
    CHARGE:  cpu time    3.1138: real time    3.1212
    MIXING:  cpu time    0.0093: real time    0.0094
    --------------------------------------------
      LOOP:  cpu time   39.1600: real time   39.2529

 eigenvalue-minimisations  :  6749
 total energy-change (2. order) : 0.6057501E+01  (-0.2603159E+00)
 number of electron     641.0000130 magnetization      35.6058699
 augmentation part      197.5680829 magnetization      25.7607843

 Broyden mixing:
  rms(total) = 0.11817E+01    rms(broyden)= 0.11817E+01
  rms(prec ) = 0.13041E+01
  weight for this iteration     100.00

 eigenvalues of (default mixing * dielectric matrix)
  average eigenvalue GAMMA=   0.7775
  2.2603  1.0653  0.5750  0.3777  0.2865  0.1004

 Free energy of the ion-electron system (eV)
  ---------------------------------------------------
  alpha Z        PSCENC =      2019.82280658
  Ewald energy   TEWEN  =    126061.61105105
  -Hartree energ DENC   =   -176515.53898002
  -exchange      EXHF   =         0.00000000
  -V(xc)+E(xc)   XCENC  =       229.28020446
  PAW double counting   =     60829.77794682   -59234.32785782
  entropy T*S    EENTRO =        -0.00529099
  eigenvalues    EBANDS =      -421.39004718
  atomic energy  EATOM  =     46675.88275157
  Solvation  Ediel_sol  =         0.00000000
  ---------------------------------------------------
  free energy    TOTEN  =      -354.88741553 eV

  energy without entropy =     -354.88212454  energy(sigma->0) =     -354.88565187


--------------------------------------------------------------------------------------------------------




--------------------------------------- Iteration      1(  12)  ---------------------------------------


    POTLOK:  cpu time    0.3819: real time    0.3828
    SETDIJ:  cpu time    0.0318: real time    0.0319
    EDDIAG:  cpu time    7.5217: real time    7.5394
  RMM-DIIS:  cpu time   27.5579: real time   27.6297
    ORTHCH:  cpu time    0.6517: real time    0.6535
       DOS:  cpu time    0.0017: real time    0.0017
    CHARGE:  cpu time    3.1399: real time    3.1484
    MIXING:  cpu time    0.0110: real time    0.0110
    --------------------------------------------
      LOOP:  cpu time   39.2975: real time   39.3985

 eigenvalue-minimisations  :  6760
 total energy-change (2. order) :-0.1804658E+01  (-0.4461730E-01)
 number of electron     641.0000130 magnetization      33.0737408
 augmentation part      197.3655650 magnetization      23.3357279

 Broyden mixing:
  rms(total) = 0.90959E+00    rms(broyden)= 0.90959E+00
  rms(prec ) = 0.99550E+00
  weight for this iteration     100.00

 eigenvalues of (default mixing * dielectric matrix)
  average eigenvalue GAMMA=   0.7633
  2.2660  1.1130  0.7243  0.5112  0.3134  0.3134  0.1014

 Free energy of the ion-electron system (eV)
  ---------------------------------------------------
  alpha Z        PSCENC =      2019.82280658
  Ewald energy   TEWEN  =    126061.61105105
  -Hartree energ DENC   =   -176531.87483757
  -exchange      EXHF   =         0.00000000
  -V(xc)+E(xc)   XCENC  =       228.14124184
  PAW double counting   =     60910.79959894   -59316.14908435
  entropy T*S    EENTRO =        -0.01827806
  eigenvalues    EBANDS =      -404.90732367
  atomic energy  EATOM  =     46675.88275157
  Solvation  Ediel_sol  =         0.00000000
  ---------------------------------------------------
  free energy    TOTEN  =      -356.69207366 eV

  energy without entropy =     -356.67379560  energy(sigma->0) =     -356.68598097


--------------------------------------------------------------------------------------------------------




--------------------------------------- Iteration      1(  13)  ---------------------------------------


    POTLOK:  cpu time    0.3821: real time    0.3833
    SETDIJ:  cpu time    0.0320: real time    0.0320
    EDDIAG:  cpu time    7.5266: real time    7.5469
  RMM-DIIS:  cpu time   27.4871: real time   27.5628
    ORTHCH:  cpu time    0.6536: real time    0.6552
       DOS:  cpu time    0.0017: real time    0.0017
    CHARGE:  cpu time    3.1187: real time    3.1276
    MIXING:  cpu time    0.0116: real time    0.0116
    --------------------------------------------
      LOOP:  cpu time   39.2134: real time   39.3211

 eigenvalue-minimisations  :  6760
 total energy-change (2. order) :-0.2058390E+01  (-0.5932596E-01)
 number of electron     641.0000130 magnetization      26.8800861
 augmentation part      197.2911869 magnetization      16.9476431

 Broyden mixing:
  rms(total) = 0.87997E+00    rms(broyden)= 0.87997E+00
  rms(prec ) = 0.10006E+01
  weight for this iteration     100.00

 eigenvalues of (default mixing * dielectric matrix)
  average eigenvalue GAMMA=   0.7947
  2.2480  1.5564  1.0039  0.4983  0.3573  0.3443  0.2478  0.1013

 Free energy of the ion-electron system (eV)
  ---------------------------------------------------
  alpha Z        PSCENC =      2019.82280658
  Ewald energy   TEWEN  =    126061.61105105
  -Hartree energ DENC   =   -176541.20058445
  -exchange      EXHF   =         0.00000000
  -V(xc)+E(xc)   XCENC  =       226.90286155
  PAW double counting   =     60893.11590440   -59298.60223916
  entropy T*S    EENTRO =        -0.00887857
  eigenvalues    EBANDS =      -396.27413689
  atomic energy  EATOM  =     46675.88275157
  Solvation  Ediel_sol  =         0.00000000
  ---------------------------------------------------
  free energy    TOTEN  =      -358.75046392 eV

  energy without entropy =     -358.74158535  energy(sigma->0) =     -358.74750439


--------------------------------------------------------------------------------------------------------




--------------------------------------- Iteration      1(  14)  ---------------------------------------


    POTLOK:  cpu time    0.3843: real time    0.3853
    SETDIJ:  cpu time    0.0324: real time    0.0324
    EDDIAG:  cpu time    7.5549: real time    7.5758
  RMM-DIIS:  cpu time   27.5445: real time   27.6240
    ORTHCH:  cpu time    0.6529: real time    0.6544
       DOS:  cpu time    0.0016: real time    0.0016
    CHARGE:  cpu time    3.0661: real time    3.0735
    MIXING:  cpu time    0.0108: real time    0.0108
    --------------------------------------------
      LOOP:  cpu time   39.2475: real time   39.3578

 eigenvalue-minimisations  :  6751
 total energy-change (2. order) :-0.4868836E+01  (-0.2205432E+00)
 number of electron     641.0000131 magnetization      24.2554050
 augmentation part      197.1364717 magnetization      14.4406131

 Broyden mixing:
  rms(total) = 0.82305E+00    rms(broyden)= 0.82305E+00
  rms(prec ) = 0.96702E+00
  weight for this iteration     100.00

 eigenvalues of (default mixing * dielectric matrix)
  average eigenvalue GAMMA=   0.8339
  2.2010  2.2010  0.8679  0.6394  0.6394  0.3280  0.3000  0.1013  0.2270

 Free energy of the ion-electron system (eV)
  ---------------------------------------------------
  alpha Z        PSCENC =      2019.82280658
  Ewald energy   TEWEN  =    126061.61105105
  -Hartree energ DENC   =   -176560.54951067
  -exchange      EXHF   =         0.00000000
  -V(xc)+E(xc)   XCENC  =       223.93334077
  PAW double counting   =     60809.75663230   -59215.02102534
  entropy T*S    EENTRO =        -0.02198159
  eigenvalues    EBANDS =      -379.03336474
  atomic energy  EATOM  =     46675.88275157
  Solvation  Ediel_sol  =         0.00000000
  ---------------------------------------------------
  free energy    TOTEN  =      -363.61930006 eV

  energy without entropy =     -363.59731848  energy(sigma->0) =     -363.61197287


--------------------------------------------------------------------------------------------------------




--------------------------------------- Iteration      1(  15)  ---------------------------------------


    POTLOK:  cpu time    0.3813: real time    0.3822
    SETDIJ:  cpu time    0.0316: real time    0.0317
    EDDIAG:  cpu time    7.5251: real time    7.5431
  RMM-DIIS:  cpu time   27.5256: real time   27.5908
    ORTHCH:  cpu time    0.6528: real time    0.6543
       DOS:  cpu time    0.0016: real time    0.0016
    CHARGE:  cpu time    3.0643: real time    3.0716
    MIXING:  cpu time    0.0114: real time    0.0114
    --------------------------------------------
      LOOP:  cpu time   39.1937: real time   39.2867

 eigenvalue-minimisations  :  6753
 total energy-change (2. order) :-0.2096451E+01  (-0.1229994E+00)
 number of electron     641.0000130 magnetization      21.3887411
 augmentation part      197.0274675 magnetization      12.4330692

 Broyden mixing:
  rms(total) = 0.41721E+00    rms(broyden)= 0.41721E+00
  rms(prec ) = 0.46347E+00
  weight for this iteration     100.00

 eigenvalues of (default mixing * dielectric matrix)
  average eigenvalue GAMMA=   0.8932
  2.5995  2.5995  0.9278  0.9278  0.4768  0.4768  0.3024  0.3024  0.1013  0.2174

 Free energy of the ion-electron system (eV)
  ---------------------------------------------------
  alpha Z        PSCENC =      2019.82280658
  Ewald energy   TEWEN  =    126061.61105105
  -Hartree energ DENC   =   -176559.68394104
  -exchange      EXHF   =         0.00000000
  -V(xc)+E(xc)   XCENC  =       222.49780358
  PAW double counting   =     60730.76798549   -59135.13316985
  entropy T*S    EENTRO =        -0.01881614
  eigenvalues    EBANDS =      -381.46222241
  atomic energy  EATOM  =     46675.88275157
  Solvation  Ediel_sol  =         0.00000000
  ---------------------------------------------------
  free energy    TOTEN  =      -365.71575116 eV

  energy without entropy =     -365.69693503  energy(sigma->0) =     -365.70947912


--------------------------------------------------------------------------------------------------------




--------------------------------------- Iteration      1(  16)  ---------------------------------------


    POTLOK:  cpu time    0.3829: real time    0.3838
    SETDIJ:  cpu time    0.0322: real time    0.0322
    EDDIAG:  cpu time    7.5055: real time    7.5234
  RMM-DIIS:  cpu time   27.5338: real time   27.6114
    ORTHCH:  cpu time    0.6522: real time    0.6538
       DOS:  cpu time    0.0017: real time    0.0017
    CHARGE:  cpu time    3.0636: real time    3.0722
    MIXING:  cpu time    0.0133: real time    0.0133
    --------------------------------------------
      LOOP:  cpu time   39.1853: real time   39.2918

 eigenvalue-minimisations  :  6741
 total energy-change (2. order) :-0.2049228E+01  (-0.1090943E+00)
 number of electron     641.0000130 magnetization      18.9265117
 augmentation part      197.0091728 magnetization      10.8677155

 Broyden mixing:
  rms(total) = 0.46523E+00    rms(broyden)= 0.46523E+00
  rms(prec ) = 0.52440E+00
  weight for this iteration     100.00

 eigenvalues of (default mixing * dielectric matrix)
  average eigenvalue GAMMA=   0.9219
  3.3678  2.4548  1.0017  1.0017  0.5346  0.5346  0.1013  0.3201  0.3201  0.2881
  0.2162

 Free energy of the ion-electron system (eV)
  ---------------------------------------------------
  alpha Z        PSCENC =      2019.82280658
  Ewald energy   TEWEN  =    126061.61105105
  -Hartree energ DENC   =   -176545.48916250
  -exchange      EXHF   =         0.00000000
  -V(xc)+E(xc)   XCENC  =       221.09509916
  PAW double counting   =     60635.20986493   -59038.76546760
  entropy T*S    EENTRO =         0.02196433
  eigenvalues    EBANDS =      -397.15388686
  atomic energy  EATOM  =     46675.88275157
  Solvation  Ediel_sol  =         0.00000000
  ---------------------------------------------------
  free energy    TOTEN  =      -367.76497934 eV

  energy without entropy =     -367.78694367  energy(sigma->0) =     -367.77230078


--------------------------------------------------------------------------------------------------------




--------------------------------------- Iteration      1(  17)  ---------------------------------------


    POTLOK:  cpu time    0.3822: real time    0.3831
    SETDIJ:  cpu time    0.0327: real time    0.0328
    EDDIAG:  cpu time    7.5115: real time    7.5326
  RMM-DIIS:  cpu time   27.6252: real time   27.7005
    ORTHCH:  cpu time    0.7510: real time    0.7532
       DOS:  cpu time    0.0016: real time    0.0016
    CHARGE:  cpu time    3.0691: real time    3.0775
    MIXING:  cpu time    0.0135: real time    0.0136
    --------------------------------------------
      LOOP:  cpu time   39.3869: real time   39.4948

 eigenvalue-minimisations  :  6752
 total energy-change (2. order) :-0.8705593E+00  (-0.4407595E-01)
 number of electron     641.0000130 magnetization      16.7811220
 augmentation part      197.0610656 magnetization       8.8291238

 Broyden mixing:
  rms(total) = 0.27494E+00    rms(broyden)= 0.27494E+00
  rms(prec ) = 0.31678E+00
  weight for this iteration     100.00

 eigenvalues of (default mixing * dielectric matrix)
  average eigenvalue GAMMA=   1.0313
  4.9677  2.2632  1.2757  0.7689  0.6986  0.6986  0.4823  0.1013  0.3157  0.3157
  0.2728  0.2156

 Free energy of the ion-electron system (eV)
  ---------------------------------------------------
  alpha Z        PSCENC =      2019.82280658
  Ewald energy   TEWEN  =    126061.61105105
  -Hartree energ DENC   =   -176533.61619390
  -exchange      EXHF   =         0.00000000
  -V(xc)+E(xc)   XCENC  =       220.25187742
  PAW double counting   =     60615.53925194   -59019.33596352
  entropy T*S    EENTRO =         0.01608668
  eigenvalues    EBANDS =      -408.80720643
  atomic energy  EATOM  =     46675.88275157
  Solvation  Ediel_sol  =         0.00000000
  ---------------------------------------------------
  free energy    TOTEN  =      -368.63553860 eV

  energy without entropy =     -368.65162529  energy(sigma->0) =     -368.64090083


--------------------------------------------------------------------------------------------------------




--------------------------------------- Iteration      1(  18)  ---------------------------------------


    POTLOK:  cpu time    0.3815: real time    0.3824
    SETDIJ:  cpu time    0.0326: real time    0.0326
    EDDIAG:  cpu time    7.4952: real time    7.5161
  RMM-DIIS:  cpu time   27.6250: real time   27.7012
    ORTHCH:  cpu time    0.6517: real time    0.6533
       DOS:  cpu time    0.0017: real time    0.0017
    CHARGE:  cpu time    3.0667: real time    3.0750
    MIXING:  cpu time    0.0141: real time    0.0141
    --------------------------------------------
      LOOP:  cpu time   39.2684: real time   39.3765

 eigenvalue-minimisations  :  6750
 total energy-change (2. order) :-0.4146564E+00  (-0.2668738E-01)
 number of electron     641.0000131 magnetization      16.0708922
 augmentation part      197.1232794 magnetization       8.0863651

 Broyden mixing:
  rms(total) = 0.21025E+00    rms(broyden)= 0.21025E+00
  rms(prec ) = 0.23804E+00
  weight for this iteration     100.00

 eigenvalues of (default mixing * dielectric matrix)
  average eigenvalue GAMMA=   1.0244
  5.4271  2.2445  1.1705  0.9139  0.9139  0.5389  0.5389  0.1013  0.3477  0.3477
  0.2847  0.2729  0.2154

 Free energy of the ion-electron system (eV)
  ---------------------------------------------------
  alpha Z        PSCENC =      2019.82280658
  Ewald energy   TEWEN  =    126061.61105105
  -Hartree energ DENC   =   -176520.97689855
  -exchange      EXHF   =         0.00000000
  -V(xc)+E(xc)   XCENC  =       219.70609267
  PAW double counting   =     60645.95363235   -59050.40214911
  entropy T*S    EENTRO =        -0.00997202
  eigenvalues    EBANDS =      -420.63750953
  atomic energy  EATOM  =     46675.88275157
  Solvation  Ediel_sol  =         0.00000000
  ---------------------------------------------------
  free energy    TOTEN  =      -369.05019499 eV

  energy without entropy =     -369.04022297  energy(sigma->0) =     -369.04687098


--------------------------------------------------------------------------------------------------------




--------------------------------------- Iteration      1(  19)  ---------------------------------------


    POTLOK:  cpu time    0.3814: real time    0.3827
    SETDIJ:  cpu time    0.0323: real time    0.0324
    EDDIAG:  cpu time    7.5084: real time    7.5291
  RMM-DIIS:  cpu time   27.5366: real time   27.6128
    ORTHCH:  cpu time    0.6501: real time    0.6520
       DOS:  cpu time    0.0017: real time    0.0017
    CHARGE:  cpu time    3.0740: real time    3.0824
    MIXING:  cpu time    0.0142: real time    0.0142
    --------------------------------------------
      LOOP:  cpu time   39.1989: real time   39.3073

 eigenvalue-minimisations  :  6758
 total energy-change (2. order) :-0.1051293E+00  (-0.7104291E-02)
 number of electron     641.0000131 magnetization      15.6441063
 augmentation part      197.1304869 magnetization       7.7691021

 Broyden mixing:
  rms(total) = 0.22431E+00    rms(broyden)= 0.22431E+00
  rms(prec ) = 0.25742E+00
  weight for this iteration     100.00

 eigenvalues of (default mixing * dielectric matrix)
  average eigenvalue GAMMA=   1.0318
  5.7584  2.2461  1.2258  1.2258  0.8479  0.5650  0.5650  0.5169  0.1013  0.3440
  0.2929  0.2929  0.2153  0.2476

 Free energy of the ion-electron system (eV)
  ---------------------------------------------------
  alpha Z        PSCENC =      2019.82280658
  Ewald energy   TEWEN  =    126061.61105105
  -Hartree energ DENC   =   -176512.11247366
  -exchange      EXHF   =         0.00000000
  -V(xc)+E(xc)   XCENC  =       219.53241062
  PAW double counting   =     60661.51484845   -59066.08751757
  entropy T*S    EENTRO =        -0.02109481
  eigenvalues    EBANDS =      -429.29810648
  atomic energy  EATOM  =     46675.88275157
  Solvation  Ediel_sol  =         0.00000000
  ---------------------------------------------------
  free energy    TOTEN  =      -369.15532424 eV

  energy without entropy =     -369.13422943  energy(sigma->0) =     -369.14829264


--------------------------------------------------------------------------------------------------------




--------------------------------------- Iteration      1(  20)  ---------------------------------------


    POTLOK:  cpu time    0.3798: real time    0.3807
    SETDIJ:  cpu time    0.0323: real time    0.0324
    EDDIAG:  cpu time    7.5146: real time    7.5351
  RMM-DIIS:  cpu time   27.4552: real time   27.5300
    ORTHCH:  cpu time    0.7228: real time    0.7249
       DOS:  cpu time    0.0016: real time    0.0016
    CHARGE:  cpu time    3.0844: real time    3.0928
    MIXING:  cpu time    0.0144: real time    0.0144
    --------------------------------------------
      LOOP:  cpu time   39.2051: real time   39.3120

 eigenvalue-minimisations  :  6761
 total energy-change (2. order) :-0.1645832E-01  (-0.3372460E-02)
 number of electron     641.0000131 magnetization      15.1349811
 augmentation part      197.1318872 magnetization       7.4070491

 Broyden mixing:
  rms(total) = 0.15950E+00    rms(broyden)= 0.15950E+00
  rms(prec ) = 0.18210E+00
  weight for this iteration     100.00

 eigenvalues of (default mixing * dielectric matrix)
  average eigenvalue GAMMA=   1.0551
  6.1702  2.2244  1.4962  1.4962  0.6533  0.6533  0.6763  0.6763  0.1013  0.3647
  0.3133  0.3133  0.2710  0.2159  0.2013

 Free energy of the ion-electron system (eV)
  ---------------------------------------------------
  alpha Z        PSCENC =      2019.82280658
  Ewald energy   TEWEN  =    126061.61105105
  -Hartree energ DENC   =   -176502.16242061
  -exchange      EXHF   =         0.00000000
  -V(xc)+E(xc)   XCENC  =       219.43704004
  PAW double counting   =     60663.59073480   -59068.07882493
  entropy T*S    EENTRO =        -0.01998689
  eigenvalues    EBANDS =      -439.25493418
  atomic energy  EATOM  =     46675.88275157
  Solvation  Ediel_sol  =         0.00000000
  ---------------------------------------------------
  free energy    TOTEN  =      -369.17178256 eV

  energy without entropy =     -369.15179567  energy(sigma->0) =     -369.16512026


--------------------------------------------------------------------------------------------------------




--------------------------------------- Iteration      1(  21)  ---------------------------------------


    POTLOK:  cpu time    0.3805: real time    0.3814
    SETDIJ:  cpu time    0.0332: real time    0.0333
    EDDIAG:  cpu time    7.5144: real time    7.5354
  RMM-DIIS:  cpu time   27.4787: real time   27.5543
    ORTHCH:  cpu time    0.6524: real time    0.6540
       DOS:  cpu time    0.0017: real time    0.0017
    CHARGE:  cpu time    3.0997: real time    3.1080
    MIXING:  cpu time    0.0154: real time    0.0155
    --------------------------------------------
      LOOP:  cpu time   39.1761: real time   39.2837

 eigenvalue-minimisations  :  6764
 total energy-change (2. order) :-0.3603513E-01  (-0.2443056E-02)
 number of electron     641.0000131 magnetization      14.8363321
 augmentation part      197.1413682 magnetization       7.3463865

 Broyden mixing:
  rms(total) = 0.60414E-01    rms(broyden)= 0.60414E-01
  rms(prec ) = 0.66495E-01
  weight for this iteration     100.00

 eigenvalues of (default mixing * dielectric matrix)
  average eigenvalue GAMMA=   1.0496
  6.4152  2.1497  1.5886  1.5886  0.7551  0.7551  0.6083  0.6083  0.5326  0.1013
  0.3711  0.3337  0.2958  0.2723  0.2157  0.2019

 Free energy of the ion-electron system (eV)
  ---------------------------------------------------
  alpha Z        PSCENC =      2019.82280658
  Ewald energy   TEWEN  =    126061.61105105
  -Hartree energ DENC   =   -176487.04029410
  -exchange      EXHF   =         0.00000000
  -V(xc)+E(xc)   XCENC  =       219.27607767
  PAW double counting   =     60663.29735300   -59067.66258002
  entropy T*S    EENTRO =        -0.01598464
  eigenvalues    EBANDS =      -454.37899882
  atomic energy  EATOM  =     46675.88275157
  Solvation  Ediel_sol  =         0.00000000
  ---------------------------------------------------
  free energy    TOTEN  =      -369.20781769 eV

  energy without entropy =     -369.19183306  energy(sigma->0) =     -369.20248948


--------------------------------------------------------------------------------------------------------




[...]


------------------------ aborting loop because EDIFF is reached ----------------------------------------


    CHARGE:  cpu time    3.0695: real time    3.0780
    FORLOC:  cpu time    0.0667: real time    0.0669
    FORNL :  cpu time   12.2603: real time   12.2937
    STRESS:  cpu time   36.6589: real time   36.7585
    FORCOR:  cpu time    0.4055: real time    0.4064
    FORHAR:  cpu time    0.1017: real time    0.1022
    MIXING:  cpu time    0.0105: real time    0.0106
    OFIELD:  cpu time    0.0001: real time    0.0001

 ---------------------------------------------------------------------------------------------

         DFTD3 V3.0 Rev 1        
 Edisp (eV)  -38.73015

 E6    (eV) :   -14.2913
 E8    (eV) :   -24.4389
 % E8        : 63.10
    FORVDW:  cpu time    0.3058: real time    0.3071

  FORCE on cell =-STRESS in cart. coord.  units (eV):
  Direction    XX          YY          ZZ          XY          YZ          ZX
  --------------------------------------------------------------------------------------
  Alpha Z  2019.82281  2019.82281  2019.82281
  Ewald  162551.17510162551.20372************     0.00107     0.01145    -0.01005
  Hartree173443.89014173443.89824************     0.00054     0.00205    -0.00268
  E(xc)   -2859.05717 -2859.05691 -2884.74466     0.00017     0.00014    -0.00026
  Local  ************************358125.73841     0.00072    -0.00871     0.00727
  n-local   575.90702   575.91016   314.43620     0.00105    -0.00000     0.00108
  augment  3253.00667  3253.00276  3534.15864    -0.00224    -0.00181     0.00220
  Kinetic  9157.52023  9157.51207  9753.33161    -0.00310    -0.00405     0.00419
  Fock        0.00000     0.00000     0.00000     0.00000     0.00000     0.00000
  vdW       -53.61452   -53.61487   -28.85653    -0.00031     0.00007    -0.00012
  -------------------------------------------------------------------------------------
  Total      81.95410    81.95285    -0.78624    -0.00210    -0.00087     0.00165
  in kB      67.98182    67.98078    -0.65220    -0.00174    -0.00072     0.00136
  external pressure =       45.10 kB  Pullay stress =        0.00 kB


 VOLUME and BASIS-vectors are now :
 -----------------------------------------------------------------------------
  energy-cutoff  :      550.00
  volume of cell :     1931.47
      direct lattice vectors                 reciprocal lattice vectors
    10.560000420  0.000000000  0.000000000     0.094696966  0.054673319  0.000000000
    -5.280000210  9.145228627  0.000000000     0.000000000  0.109346638  0.000000000
     0.000000000  0.000000000 20.000000000     0.000000000  0.000000000  0.050000000

  length of vectors
    10.560000420 10.560000420 20.000000000     0.109346638  0.109346638  0.050000000


 FORCES acting on ions
    electron-ion (+dipol)            ewald-force                    non-local-force                 convergence-correction
 -----------------------------------------------------------------------------------------------
   -.302E+00 -.329E+00 0.231E+04   0.302E+00 0.311E+00 -.231E+04   0.133E-02 0.104E-02 -.111E+00   0.110E-02 -.983E-02 -.136E-01
   0.299E+01 -.308E+01 0.779E+03   -.305E+01 0.309E+01 -.778E+03   0.212E-04 0.300E-01 -.296E+00   0.289E-02 -.954E-02 -.184E-01
   -.557E+01 -.321E+01 -.790E+03   0.572E+01 0.330E+01 0.790E+03   -.159E+00 -.920E-01 0.342E+00   -.759E-04 -.256E-03 -.124E-02
   0.410E+01 0.624E+01 -.230E+04   -.405E+01 -.614E+01 0.230E+04   -.555E-01 -.604E-01 0.767E-01   -.441E-02 -.198E-01 0.673E-02
   -.638E+00 -.368E+00 0.231E+04   0.661E+00 0.381E+00 -.231E+04   0.144E-02 0.867E-03 -.373E-01   -.848E-02 -.465E-02 -.149E-01
   -.157E-02 0.133E-02 0.776E+03   0.135E-02 -.107E-02 -.775E+03   0.810E-05 0.322E-05 -.371E+00   0.173E-03 -.263E-03 -.118E-01
   0.103E-02 -.302E+01 -.781E+03   -.127E-02 0.332E+01 0.781E+03   0.392E-04 -.271E+00 0.315E+00   0.258E-03 -.115E-01 0.261E-01
   0.471E+01 0.271E+01 -.227E+04   -.484E+01 -.279E+01 0.227E+04   0.120E+00 0.693E-01 0.316E-01   0.181E-01 0.107E-01 0.546E-01
   0.145E-03 -.421E+00 0.231E+04   -.362E-03 0.451E+00 -.231E+04   -.326E-04 -.726E-02 -.703E-01   0.180E-03 -.102E-01 -.177E-01
   -.416E+01 -.105E+01 0.779E+03   0.420E+01 0.109E+01 -.778E+03   0.259E-01 -.150E-01 -.296E+00   -.982E-02 0.248E-02 -.185E-01
   0.194E+01 0.264E+00 -.764E+03   -.198E+01 -.221E+00 0.763E+03   0.474E-01 -.394E-01 0.384E+00   -.516E-02 -.197E-01 0.225E-01
   -.655E-03 0.185E+02 -.232E+04   0.988E-03 -.193E+02 0.232E+04   -.588E-03 0.832E+00 -.341E+00   -.142E-03 -.134E-01 -.649E-02
   0.302E+00 -.329E+00 0.231E+04   -.302E+00 0.311E+00 -.231E+04   -.141E-02 0.102E-02 -.111E+00   -.739E-03 -.983E-02 -.134E-01
   -.299E+01 -.308E+01 0.779E+03   0.305E+01 0.309E+01 -.778E+03   -.124E-05 0.300E-01 -.296E+00   -.245E-02 -.946E-02 -.184E-01
   0.557E+01 -.321E+01 -.790E+03   -.572E+01 0.330E+01 0.790E+03   0.159E+00 -.916E-01 0.341E+00   0.239E-03 -.204E-03 -.152E-02
   -.411E+01 0.625E+01 -.230E+04   0.405E+01 -.616E+01 0.230E+04   0.556E-01 -.610E-01 0.766E-01   0.449E-02 -.201E-01 0.665E-02
   0.201E+00 0.116E+00 0.231E+04   -.191E+00 -.111E+00 -.231E+04   0.131E-02 0.796E-03 -.103E+00   0.638E-03 0.679E-03 -.125E-01
   -.697E+00 -.400E+00 0.783E+03   0.720E+00 0.412E+00 -.783E+03   -.175E-01 -.102E-01 -.379E+00   -.765E-02 -.397E-02 -.229E-01
   0.741E+00 -.181E+01 -.764E+03   -.800E+00 0.182E+01 0.763E+03   0.578E-01 -.215E-01 0.384E+00   0.146E-01 0.143E-01 0.225E-01
   0.517E+00 0.304E+00 -.231E+04   -.449E+00 -.264E+00 0.231E+04   -.755E-01 -.439E-01 0.989E-01   -.201E-01 -.117E-01 0.888E-02
   0.638E+00 -.368E+00 0.231E+04   -.661E+00 0.382E+00 -.231E+04   -.151E-02 0.870E-03 -.373E-01   0.848E-02 -.485E-02 -.148E-01
   -.226E-02 -.143E+01 0.783E+03   0.242E-02 0.143E+01 -.783E+03   0.248E-04 0.117E-01 -.458E+00   -.172E-03 0.507E-02 -.210E-01
   -.461E-02 0.202E-02 -.777E+03   0.470E-02 -.224E-02 0.777E+03   0.115E-03 -.504E-04 0.452E+00   0.839E-05 0.194E-03 -.103E-01
   -.470E+01 0.271E+01 -.227E+04   0.483E+01 -.279E+01 0.227E+04   -.120E+00 0.692E-01 0.315E-01   -.181E-01 0.106E-01 0.546E-01
   -.420E-03 -.233E+00 0.231E+04   0.550E-03 0.221E+00 -.231E+04   -.306E-04 -.155E-02 -.103E+00   -.178E-03 -.796E-03 -.124E-01
   0.416E+01 -.105E+01 0.779E+03   -.420E+01 0.110E+01 -.778E+03   -.259E-01 -.150E-01 -.296E+00   0.982E-02 0.217E-02 -.184E-01
   -.193E+01 0.258E+00 -.764E+03   0.197E+01 -.215E+00 0.763E+03   -.479E-01 -.392E-01 0.383E+00   0.492E-02 -.196E-01 0.229E-01
   -.418E-02 -.596E+00 -.231E+04   0.397E-02 0.517E+00 0.231E+04   -.115E-03 0.873E-01 0.988E-01   0.188E-03 0.233E-01 0.881E-02
   -.202E+00 0.116E+00 0.231E+04   0.192E+00 -.111E+00 -.231E+04   -.139E-02 0.797E-03 -.103E+00   -.997E-03 0.682E-03 -.126E-01
   0.693E+00 -.400E+00 0.783E+03   -.715E+00 0.413E+00 -.783E+03   0.176E-01 -.101E-01 -.379E+00   0.721E-02 -.403E-02 -.230E-01
   -.743E+00 -.180E+01 -.764E+03   0.802E+00 0.182E+01 0.763E+03   -.578E-01 -.216E-01 0.383E+00   -.148E-01 0.143E-01 0.228E-01
   -.515E+00 0.295E+00 -.231E+04   0.446E+00 -.256E+00 0.231E+04   0.758E-01 -.436E-01 0.989E-01   0.199E-01 -.113E-01 0.886E-02
   -.436E+00 -.969E-01 0.231E+04   0.421E+00 0.106E+00 -.231E+04   0.153E-02 0.695E-03 -.111E+00   -.825E-02 0.571E-02 -.135E-01
   -.117E+01 0.413E+01 0.779E+03   0.115E+01 -.418E+01 -.778E+03   0.260E-01 -.150E-01 -.296E+00   -.720E-02 0.705E-02 -.186E-01
   -.439E+00 -.256E+00 -.768E+03   0.442E+00 0.258E+00 0.767E+03   0.447E-02 0.269E-02 0.400E+00   0.461E-02 0.284E-02 0.198E-01
   0.746E+01 0.434E+00 -.230E+04   -.735E+01 -.431E+00 0.230E+04   -.802E-01 -.179E-01 0.766E-01   -.195E-01 0.598E-02 0.671E-02
   -.342E-04 -.198E-03 0.231E+04   -.230E-03 0.351E-03 -.231E+04   -.219E-05 0.321E-04 -.142E+00   0.179E-03 -.147E-03 -.106E-01
   0.124E+01 0.719E+00 0.783E+03   -.124E+01 -.717E+00 -.783E+03   -.101E-01 -.585E-02 -.458E+00   -.461E-02 -.231E-02 -.210E-01
   -.262E+01 0.151E+01 -.781E+03   0.287E+01 -.166E+01 0.781E+03   -.234E+00 0.135E+00 0.314E+00   -.102E-01 0.572E-02 0.262E-01
   -.958E-02 0.360E-03 -.230E+04   0.923E-02 -.248E-03 0.230E+04   0.363E-03 -.814E-04 0.631E-01   0.287E-03 -.106E-03 0.437E-01
   -.134E+00 0.426E+00 0.231E+04   0.119E+00 -.417E+00 -.231E+04   0.142E-03 -.167E-02 -.111E+00   -.916E-02 0.419E-02 -.135E-01
   0.147E-02 -.229E+01 0.780E+03   -.181E-02 0.230E+01 -.780E+03   -.372E-05 0.128E-01 -.364E+00   0.296E-03 -.985E-02 -.199E-01
   0.221E-02 0.643E+01 -.790E+03   -.226E-02 -.660E+01 0.790E+03   0.208E-03 0.183E+00 0.341E+00   -.370E-04 -.717E-04 -.128E-02
   0.336E+01 -.669E+01 -.230E+04   -.331E+01 0.659E+01 0.230E+04   -.248E-01 0.788E-01 0.766E-01   -.151E-01 0.139E-01 0.673E-02
   -.364E+00 0.211E+00 0.231E+04   0.391E+00 -.226E+00 -.231E+04   -.633E-02 0.366E-02 -.702E-01   -.895E-02 0.506E-02 -.178E-01
   -.198E+01 0.115E+01 0.780E+03   0.199E+01 -.115E+01 -.780E+03   0.111E-01 -.642E-02 -.364E+00   -.871E-02 0.489E-02 -.200E-01
   0.119E+01 0.155E+01 -.764E+03   -.118E+01 -.161E+01 0.763E+03   -.102E-01 0.609E-01 0.383E+00   -.199E-01 0.576E-02 0.229E-01
   0.160E+02 -.925E+01 -.232E+04   -.167E+02 0.965E+01 0.232E+04   0.719E+00 -.416E+00 -.342E+00   -.117E-01 0.662E-02 -.642E-02
   0.364E+00 0.211E+00 0.231E+04   -.391E+00 -.226E+00 -.231E+04   0.627E-02 0.366E-02 -.703E-01   0.896E-02 0.486E-02 -.178E-01
   0.198E+01 0.114E+01 0.780E+03   -.199E+01 -.115E+01 -.780E+03   -.111E-01 -.640E-02 -.364E+00   0.883E-02 0.462E-02 -.200E-01
   -.119E+01 0.154E+01 -.764E+03   0.117E+01 -.160E+01 0.763E+03   0.101E-01 0.612E-01 0.383E+00   0.197E-01 0.574E-02 0.229E-01
   -.160E+02 -.924E+01 -.232E+04   0.167E+02 0.964E+01 0.232E+04   -.722E+00 -.416E+00 -.340E+00   0.117E-01 0.671E-02 -.639E-02
   0.494E-04 0.736E+00 0.231E+04   0.898E-04 -.763E+00 -.231E+04   -.370E-04 -.168E-02 -.373E-01   -.177E-03 0.965E-02 -.151E-01
   -.124E+01 0.716E+00 0.783E+03   0.124E+01 -.715E+00 -.783E+03   0.101E-01 -.587E-02 -.458E+00   0.459E-02 -.249E-02 -.210E-01
   0.262E+01 0.151E+01 -.781E+03   -.287E+01 -.166E+01 0.781E+03   0.234E+00 0.135E+00 0.315E+00   0.102E-01 0.543E-02 0.261E-01
   0.241E-02 -.543E+01 -.227E+04   -.205E-02 0.559E+01 0.227E+04   -.102E-03 -.138E+00 0.316E-01   -.233E-03 -.210E-01 0.548E-01
   0.134E+00 0.426E+00 0.231E+04   -.119E+00 -.417E+00 -.231E+04   -.234E-03 -.168E-02 -.111E+00   0.916E-02 0.398E-02 -.136E-01
   -.209E-02 0.803E+00 0.783E+03   0.232E-02 -.829E+00 -.783E+03   0.331E-04 0.203E-01 -.379E+00   -.275E-03 0.884E-02 -.230E-01
   0.209E-02 0.506E+00 -.768E+03   -.196E-02 -.509E+00 0.767E+03   -.521E-04 -.513E-02 0.400E+00   -.712E-04 -.553E-02 0.197E-01
   -.335E+01 -.667E+01 -.230E+04   0.330E+01 0.657E+01 0.230E+04   0.246E-01 0.781E-01 0.767E-01   0.151E-01 0.137E-01 0.677E-02
   0.436E+00 -.971E-01 0.231E+04   -.421E+00 0.106E+00 -.231E+04   -.160E-02 0.699E-03 -.111E+00   0.824E-02 0.550E-02 -.134E-01
   0.117E+01 0.413E+01 0.779E+03   -.115E+01 -.418E+01 -.778E+03   -.259E-01 -.150E-01 -.296E+00   0.708E-02 0.678E-02 -.185E-01
   0.440E+00 -.253E+00 -.768E+03   -.444E+00 0.255E+00 0.767E+03   -.451E-02 0.254E-02 0.400E+00   -.444E-02 0.265E-02 0.198E-01
   -.746E+01 0.433E+00 -.230E+04   0.734E+01 -.429E+00 0.230E+04   0.802E-01 -.178E-01 0.767E-01   0.195E-01 0.606E-02 0.664E-02
   -.108E-01 -.120E-02 -.293E+03   0.122E-01 0.137E-02 0.295E+03   -.117E-02 -.129E-03 -.170E+01   -.992E-05 -.185E-05 0.123E-02
 -----------------------------------------------------------------------------------------------
   0.388E-02 0.229E-03 0.311E+01   -.639E-12 0.204E-12 -.131E-11   -.405E-02 -.235E-03 -.308E+01   -.431E-03 0.232E-03 -.256E-01
 
 
 POSITION                                       TOTAL-FORCE (eV/Angst)
 -----------------------------------------------------------------------------------
     10.55998      0.00001      1.11585         0.001868     -0.026664     -0.006667
      2.63997      1.52422      3.55048        -0.053491      0.027722      0.037997
      0.00925      3.05373      5.97633         0.000367     -0.000172     -0.018535
     -0.00104     -0.00210      8.38082         0.001048      0.017854     -0.003660
      9.23998      2.28632      1.11585         0.015788      0.009188      0.012017
      1.31997      3.81053      3.55048        -0.000023     -0.000001      0.262125
      1.32004      0.77554      5.96838         0.000071      0.012063      0.002010
     -1.32941      2.28082      8.34017         0.006883      0.003924     -0.027551
      1.31998      2.28632      1.11585        -0.000060      0.012867     -0.051014
     -1.32003      3.81053      3.55048         0.050643      0.032458      0.037962
      3.95840      0.76178      5.93966        -0.006939     -0.012415     -0.008828
      1.32006      2.25967      8.50406        -0.000380     -0.002764      0.036245
      2.63998      0.00001      1.11585        -0.001973     -0.026644     -0.006675
     -0.00003      1.52422      3.55048         0.053409      0.027673      0.037964
      2.63081      3.05371      5.97635        -0.000162      0.000092     -0.018639
      2.64113     -0.00209      8.38081        -0.000841      0.017579     -0.003750
      5.27998      0.00001      1.11585         0.011914      0.006953     -0.008759
      7.91997      1.52422      3.55048         0.000481      0.000273     -0.017423
      5.27948      3.04997      5.93966         0.007263      0.012146     -0.008790
      5.28086      0.00046      8.39229        -0.026726     -0.015717      0.008064
      3.95998      2.28632      1.11585        -0.015885      0.009172      0.012010
      6.59997      3.81053      3.55048         0.000018      0.014742     -0.021146
      6.60003      0.76208      5.95698         0.000212     -0.000084      0.008175
      3.96951      2.28082      8.34019        -0.006830      0.004060     -0.027503
      6.59998      2.28632      1.11585        -0.000069     -0.013805     -0.008764
      3.95997      3.81053      3.55048        -0.050714      0.032436      0.037901
      9.24169      0.76176      5.93968         0.006562     -0.012227     -0.009244
      6.60004      2.28534      8.39231        -0.000131      0.030935      0.007954
      7.91998      0.00001      1.11585        -0.012046      0.006956     -0.008774
      5.27997      1.52422      3.55048        -0.000452      0.000274     -0.017523
      7.92058      3.04996      5.93968        -0.007205      0.011830     -0.009200
      7.91922      0.00045      8.39229         0.026960     -0.015502      0.008107
      7.91998      4.57263      1.11585        -0.022201      0.015034     -0.006637
     -0.00003      6.09683      3.55048        -0.002770     -0.060110      0.038037
     -2.64092      7.62045      5.94711         0.013059      0.007517      0.002085
     -2.64230      4.57270      8.38079         0.015965     -0.008172     -0.003704
      6.59998      6.85894      1.11585        -0.000077      0.000034     -0.047798
     -1.32003      8.38314      3.55048        -0.012747     -0.007371     -0.021186
     -1.30831      5.32796      5.96838         0.010427     -0.005943      0.002030
     -3.95997      6.85890      8.36888         0.000313     -0.000078     -0.022729
     -1.32002      6.85894      1.11585        -0.024109      0.011715     -0.006645
     -3.96003      8.38314      3.55048        -0.000038      0.008304     -0.031163
      1.32002      5.32405      5.97634         0.000130     -0.000230     -0.018570
     -1.32121      6.86086      8.38079         0.014990     -0.009560     -0.003723
     -0.00002      4.57263      1.11585         0.011064     -0.006393     -0.051059
     -2.64003      6.09683      3.55048         0.007146     -0.004144     -0.031221
     -0.00106      7.61974      5.93968        -0.013886      0.000322     -0.009167
     -0.02301      4.58591      8.50412        -0.002411      0.001336      0.036327
      2.63998      4.57263      1.11585        -0.011173     -0.006387     -0.050965
      5.27997      6.09683      3.55048        -0.007201     -0.004125     -0.031125
      2.64113      7.61972      5.93968         0.013948      0.000477     -0.009149
      2.66308      4.58589      8.50395         0.002307      0.001642      0.036125
      1.31998      6.85894      1.11585        -0.000065     -0.018251      0.012006
      3.95997      8.38314      3.55048         0.012755     -0.007351     -0.021056
      3.94839      5.32798      5.96836        -0.010319     -0.006082      0.002040
      1.32005      6.86982      8.34020         0.000037     -0.007925     -0.027521
      3.95998      6.85894      1.11585         0.024029      0.011726     -0.006693
      1.31997      8.38314      3.55048        -0.000001     -0.000547     -0.017410
      6.60004      5.33579      5.94712         0.000012     -0.014996      0.002051
      3.96130      6.86088      8.38085        -0.014933     -0.009957     -0.003666
      5.27998      4.57263      1.11585         0.022106      0.015035     -0.006699
      2.63997      6.09683      3.55048         0.002725     -0.060079      0.037881
      5.28100      7.62045      5.94714        -0.012948      0.007461      0.002005
      5.28238      4.57269      8.38084        -0.015909     -0.008136     -0.003723
      1.31971      3.81045      9.52221         0.000216      0.000034      0.034938
 -----------------------------------------------------------------------------------
    total drift:                               -0.000606      0.000226      0.009188


--------------------------------------------------------------------------------------------------------



  FREE ENERGIE OF THE ION-ELECTRON SYSTEM (eV)
  ---------------------------------------------------
  free  energy   TOTEN  =      -408.86677299 eV

  energy  without entropy=     -408.83231037  energy(sigma->0) =     -408.85528545
 
 d Force = 0.1648082E-02[ 0.749E-03, 0.255E-02]  d Energy = 0.1643703E-02 0.438E-05
 d Force =-0.6837776E+01[-0.682E+01,-0.685E+01]  d Ewald  =-0.6837784E+01 0.739E-05


--------------------------------------------------------------------------------------------------------


    POTLOK:  cpu time    0.4114: real time    0.4123


--------------------------------------------------------------------------------------------------------


 Conjugate gradient step on ions:
 trial-energy change:   -0.001644  1 .order   -0.001648   -0.002547   -0.000749
  (g-gl).g = 0.162E-02      g.g   = 0.175E-02  gl.gl    = 0.740E-02
 g(Force)  = 0.175E-02   g(Stress)= 0.000E+00 ortho     = 0.305E-03
 gamma     =   0.21951
 trial     =   1.39921
 opt step  =   1.98251  (harmonic =   1.98251) maximal distance =0.00456070
 next E    =  -408.866934   (d E  =  -0.00180)


--------------------------------------------------------------------------------------------------------


  
 reached required accuracy - stopping structural energy minimisation
     LOOP+:  cpu time  386.8217: real time  387.8902
    4ORBIT:  cpu time    0.0000: real time    0.0000

 total amount of memory used by VASP MPI-rank0   200562. kBytes
=======================================================================

   base      :      30000. kBytes
   nonlr-proj:      30904. kBytes
   fftplans  :      17093. kBytes
   grid      :      44247. kBytes
   one-center:        528. kBytes
   wavefun   :      77790. kBytes
 
  
  
 General timing and accounting informations for this job:
 ========================================================
  
                  Total CPU time used (sec):     5710.632
                            User time (sec):     5697.812
                          System time (sec):       12.820
                         Elapsed time (sec):     5726.990
  
                   Maximum memory used (kb):      666104.
                   Average memory used (kb):           0.
  
                          Minor page faults:      1946584
                          Major page faults:            0
                 Voluntary context switches:         4622
