 vasp.5.4.4.18Apr17-6-g9f103f2a35 (build Nov 30 2020 22:55:02) complex          
  
 executed on             LinuxIFC date 2023.06.13  19:35:31
 running on   80 total cores
 distrk:  each k-point on   80 cores,    1 groups
 distr:  one band on NCORES_PER_BAND=   4 cores,   20 groups


--------------------------------------------------------------------------------------------------------


 INCAR:
 POTCAR:    PAW_PBE Pt 04Feb2005                  
 POTCAR:    PAW_PBE H 15Jun2001                   

 ----------------------------------------------------------------------------- 
|                                                                             |
|           W    W    AA    RRRRR   N    N  II  N    N   GGGG   !!!           |
|           W    W   A  A   R    R  NN   N  II  NN   N  G    G  !!!           |
|           W    W  A    A  R    R  N N  N  II  N N  N  G       !!!           |
|           W WW W  AAAAAA  RRRRR   N  N N  II  N  N N  G  GGG   !            |
|           WW  WW  A    A  R   R   N   NN  II  N   NN  G    G                |
|           W    W  A    A  R    R  N    N  II  N    N   GGGG   !!!           |
|                                                                             |
|      For optimal performance we recommend to set                            |
|        NCORE= 4 - approx SQRT( number of cores)                             |
|      NCORE specifies how many cores store one orbital (NPAR=cpu/NCORE).     |
|      This setting can  greatly improve the performance of VASP for DFT.     |
|      The default,   NCORE=1            might be grossly inefficient         |
|      on modern multi-core architectures or massively parallel machines.     |
|      Do your own testing !!!!                                               |
|      Unfortunately you need to use the default for GW and RPA calculations. |
|      (for HF NCORE is supported but not extensively tested yet)             |
|                                                                             |
 ----------------------------------------------------------------------------- 

 POTCAR:    PAW_PBE Pt 04Feb2005                  
   VRHFIN =Pt: s1d9                                                             
   LEXCH  = PE                                                                  
   EATOM  =   729.1176 eV,   53.5886 Ry                                         
                                                                                
   TITEL  = PAW_PBE Pt 04Feb2005                                                
   LULTRA =        F    use ultrasoft PP ?                                      
   IUNSCR =        1    unscreen: 0-lin 1-nonlin 2-no                           
   RPACOR =    2.330    partial core radius                                     
   POMASS =  195.080; ZVAL   =   10.000    mass and valenz                      
   RCORE  =    2.600    outmost cutoff radius                                   
   RWIGS  =    2.750; RWIGS  =    1.455    wigner-seitz radius (au A)           
   ENMAX  =  230.283; ENMIN  =  172.712 eV                                      
   ICORE  =        3    local potential                                         
   LCOR   =        T    correct aug charges                                     
   LPAW   =        T    paw PP                                                  
   EAUG   =  358.966                                                            
   DEXC   =    0.000                                                            
   RMAX   =    2.658    core radius for proj-oper                               
   RAUG   =    1.300    factor for augmentation sphere                          
   RDEP   =    2.761    radius for radial grids                                 
   RDEPT  =    2.203    core radius for aug-charge                              
                                                                                
   Atomic configuration                                                         
   16 entries                                                                   
     n  l   j            E        occ.                                          
     1  0  0.50    -78401.1885   2.0000                                         
     2  0  0.50    -13770.7750   2.0000                                         
     2  1  1.50    -11931.0468   6.0000                                         
     3  0  0.50     -3234.7234   2.0000                                         
     3  1  1.50     -2699.2216   6.0000                                         
     3  2  2.50     -2119.5714  10.0000                                         
     4  0  0.50      -695.1528   2.0000                                         
     4  1  1.50      -519.6034   6.0000                                         
     4  2  2.50      -306.6786  10.0000                                         
     4  3  3.50       -70.1041  14.0000                                         
     5  0  0.50      -101.7747   2.0000                                         
     5  1  1.50       -55.9873   6.0000                                         
     5  2  2.50        -6.1423   9.0000                                         
     6  0  0.50        -5.6573   1.0000                                         
     6  1  1.50        -6.8029   0.0000                                         
     5  3  2.50        -1.3606   0.0000                                         
   Description                                                                  
     l       E           TYP  RCUT    TYP  RCUT                                 
     2     -6.1423404     23  2.500                                             
     2     -7.5029230     23  2.500                                             
     0     -5.6573207     23  2.500                                             
     0      0.7416693     23  2.500                                             
     1     -2.7211652     23  2.600                                             
     1     20.4087390     23  2.600                                             
     3     -1.3605826     23  2.500                                             
  local pseudopotential read in
  partial core-charges read in
  partial kinetic energy density read in
  atomic valenz-charges read in
  non local Contribution for L=           2  read in
    real space projection operators read in
  non local Contribution for L=           2  read in
    real space projection operators read in
  non local Contribution for L=           0  read in
    real space projection operators read in
  non local Contribution for L=           0  read in
    real space projection operators read in
  non local Contribution for L=           1  read in
    real space projection operators read in
  non local Contribution for L=           1  read in
    real space projection operators read in
    PAW grid and wavefunctions read in
 
   number of l-projection  operators is LMAX  =           6
   number of lm-projection operators is LMMAX =          18
 
 POTCAR:    PAW_PBE H 15Jun2001                   
   VRHFIN =H: ultrasoft test                                                    
   LEXCH  = PE                                                                  
   EATOM  =    12.4884 eV,    0.9179 Ry                                         
                                                                                
   TITEL  = PAW_PBE H 15Jun2001                                                 
   LULTRA =        F    use ultrasoft PP ?                                      
   IUNSCR =        0    unscreen: 0-lin 1-nonlin 2-no                           
   RPACOR =    0.000    partial core radius                                     
   POMASS =    1.000; ZVAL   =    1.000    mass and valenz                      
   RCORE  =    1.100    outmost cutoff radius                                   
   RWIGS  =    0.700; RWIGS  =    0.370    wigner-seitz radius (au A)           
   ENMAX  =  250.000; ENMIN  =  200.000 eV                                      
   RCLOC  =    0.701    cutoff for local pot                                    
   LCOR   =        T    correct aug charges                                     
   LPAW   =        T    paw PP                                                  
   EAUG   =  400.000                                                            
   RMAX   =    1.123    core radius for proj-oper                               
   RAUG   =    1.200    factor for augmentation sphere                          
   RDEP   =    1.112    radius for radial grids                                 
   RDEPT  =    0.926    core radius for aug-charge                              
                                                                                
   Atomic configuration                                                         
    2 entries                                                                   
     n  l   j            E        occ.                                          
     1  0  0.50        -6.4927   1.0000                                         
     2  1  0.50        -3.4015   0.0000                                         
   Description                                                                  
     l       E           TYP  RCUT    TYP  RCUT                                 
     0     -6.4927494     23  1.100                                             
     0      6.8029130     23  1.100                                             
     1     -4.0817478     23  1.100                                             
  local pseudopotential read in
  atomic valenz-charges read in
  non local Contribution for L=           0  read in
    real space projection operators read in
  non local Contribution for L=           0  read in
    real space projection operators read in
  non local Contribution for L=           1  read in
    real space projection operators read in
    PAW grid and wavefunctions read in
 
   number of l-projection  operators is LMAX  =           3
   number of lm-projection operators is LMMAX =           5
 
 Optimization of the real space projectors (new method)

 maximal supplied QI-value         = 14.36
 optimisation between [QCUT,QGAM] = [ 11.92, 23.98] = [ 39.79,161.09] Ry 
 Optimized for a Real-space Cutoff    1.49 Angstroem

   l    n(q)    QCUT    max X(q) W(low)/X(q) W(high)/X(q)  e(spline) 
   2     10    11.920    66.195    0.79E-04    0.18E-03    0.24E-06
   2     10    11.920    64.643    0.81E-04    0.19E-03    0.24E-06
   0     11    11.920    95.520    0.28E-04    0.54E-04    0.18E-06
   0     11    11.920    63.403    0.27E-04    0.52E-04    0.17E-06
   1     10    11.920    19.961    0.18E-04    0.11E-03    0.23E-06
   1     10    11.920    13.289    0.25E-04    0.87E-04    0.19E-06
 Optimization of the real space projectors (new method)

 maximal supplied QI-value         = 34.20
 optimisation between [QCUT,QGAM] = [ 11.97, 23.94] = [ 40.13,160.53] Ry 
 Optimized for a Real-space Cutoff    1.18 Angstroem

   l    n(q)    QCUT    max X(q) W(low)/X(q) W(high)/X(q)  e(spline) 
   0      8    11.971    19.460    0.15E-03    0.31E-03    0.25E-06
   0      8    11.971    12.209    0.13E-03    0.29E-03    0.25E-06
   1      8    11.971     4.655    0.22E-03    0.24E-03    0.21E-06
  PAW_PBE Pt 04Feb2005                  :
 energy of atom  1       EATOM= -729.1176
 kinetic energy error for atom=    0.0021 (will be added to EATOM!!)
  PAW_PBE H 15Jun2001                   :
 energy of atom  2       EATOM=  -12.4884
 kinetic energy error for atom=    0.0008 (will be added to EATOM!!)
 
 
 POSCAR: Pt111                                   
  positions in direct lattice
  velocities in cartesian coordinates
 exchange correlation table for  LEXCH =        8
   RHO(1)=    0.500       N(1)  =     2000
   RHO(2)=  100.500       N(2)  =     4000
 


--------------------------------------------------------------------------------------------------------


 ion  position               nearest neighbor table
   1  0.785  0.869  0.327-  71 2.74  20 2.74  55 2.74  35 2.79  27 2.79  34 2.80  43 2.81  73 2.81
                            56 2.81  72 2.81   2 2.81   3 2.81
   2  0.035  0.869  0.327-  65 2.74  55 2.74  68 2.74  39 2.78  29 2.79  27 2.80  23 2.80  47 2.81
                            72 2.81   3 2.81   1 2.81  57 2.81
   3  0.035  0.619  0.327-  12 2.74  55 2.74  76 2.74  39 2.78  28 2.79  35 2.80  15 2.80   9 2.81
                            56 2.81   2 2.81   1 2.81  57 2.81
   4  0.786  0.868  0.023-  21 2.79  78 2.79  19 2.80  44 2.80  75 2.81  74 2.81  58 2.81   5 2.81
                             6 2.81
   5  0.036  0.868  0.023-  49 2.79  70 2.79  78 2.79  48 2.80   6 2.80  24 2.81  59 2.81   4 2.81
                            74 2.81
   6  0.036  0.618  0.023-  46 2.79  70 2.79  21 2.79  10 2.80   5 2.80  18 2.81  59 2.81   4 2.81
                            58 2.81
   7  0.619  0.202  0.126-  71 2.74  79 2.74  80 2.74  42 2.79  44 2.79  74 2.80  53 2.80  61 2.80
                            11 2.80  22 2.80  19 2.81  78 2.81
   8  0.369  0.952  0.126-  26 2.74  66 2.74  69 2.74  16 2.79  24 2.79  75 2.79  25 2.80  60 2.81
                            19 2.81  49 2.81  54 2.81  53 2.81
   9  0.035  0.369  0.327-  12 2.73  77 2.74  62 2.74  28 2.79  33 2.79  30 2.79  13 2.80   3 2.81
                            47 2.81  56 2.81  15 2.81  63 2.81
  10  0.036  0.369  0.023-  54 2.78  46 2.79  45 2.80  58 2.80   6 2.80  18 2.81  64 2.81  16 2.81
                            48 2.81
  11  0.869  0.202  0.126-  77 2.74  65 2.74  79 2.74  64 2.79  74 2.79  48 2.79   7 2.80  22 2.81
                            78 2.81  45 2.81  54 2.81  49 2.81
  12  0.952  0.536  0.226-   9 2.73   3 2.74  21 2.74  45 2.74  56 2.74  46 2.74  20 2.80  55 2.80
                            77 2.81  62 2.81  67 2.81  76 2.81
  13  0.285  0.119  0.327-  62 2.74  26 2.74  69 2.74  31 2.79  36 2.79  33 2.79   9 2.80  47 2.80
                            73 2.81  43 2.81  15 2.81  23 2.81
  14  0.535  0.619  0.328-  51 2.74  66 2.75  67 2.76  52 2.79  57 2.80  41 2.80  63 2.80  23 2.80
                            56 2.81  73 2.81  38 2.82  37 2.82
  15  0.285  0.369  0.327-  76 2.74  80 2.74  62 2.75  50 2.79  36 2.79  28 2.79  41 2.80  57 2.80
                             3 2.80  43 2.81  13 2.81   9 2.81
  16  0.287  0.118  0.023-  54 2.79   8 2.79  53 2.79  75 2.80  44 2.80  24 2.81  18 2.81  10 2.81
                            48 2.81
  17  0.536  0.618  0.023-  25 2.79  22 2.79  60 2.80  42 2.80  64 2.80  59 2.80  58 2.81  75 2.81
                            24 2.81
  18  0.286  0.368  0.023-  53 2.79  46 2.79  61 2.79  59 2.80  42 2.81   6 2.81  44 2.81  10 2.81
                            16 2.81
  19  0.619  0.952  0.126-  20 2.74  71 2.74  69 2.74  44 2.79  75 2.79   4 2.80  21 2.80  78 2.80
                             8 2.81  53 2.81  25 2.81   7 2.81
  20  0.702  0.785  0.226-  25 2.74  56 2.74  19 2.74   1 2.74  73 2.74  21 2.74  12 2.80  69 2.81
                            67 2.81  66 2.81  55 2.81  71 2.81
  21  0.869  0.702  0.126-  12 2.74  55 2.74  20 2.74  58 2.79   4 2.79   6 2.79  78 2.80  19 2.80
                            46 2.81  45 2.81  70 2.81  25 2.81
  22  0.619  0.452  0.126-  79 2.74  67 2.74  51 2.75  17 2.79  42 2.79  64 2.80  61 2.80  60 2.80
                             7 2.80  25 2.80  11 2.81  45 2.81
  23  0.285  0.869  0.327-  68 2.74  66 2.74  26 2.75  37 2.79  31 2.79  29 2.79  57 2.80  14 2.80
                             2 2.80  73 2.81  47 2.81  13 2.81
  24  0.286  0.868  0.023-   8 2.79  60 2.79  49 2.79  59 2.80   5 2.81  17 2.81  48 2.81  75 2.81
                            16 2.81
  25  0.619  0.702  0.126-  20 2.74  67 2.74  66 2.74  17 2.79  75 2.79  58 2.80   8 2.80  45 2.80
                            60 2.80  22 2.80  19 2.81  21 2.81
  26  0.202  0.036  0.226-  49 2.74  13 2.74   8 2.74  54 2.74  47 2.74  23 2.75  62 2.80  77 2.80
                            69 2.81  65 2.81  66 2.81  68 2.81
  27  0.868  0.953  0.430-  39 2.78  40 2.78   1 2.79  72 2.79   2 2.80  29 2.80  32 2.80  35 2.81
                            34 2.81
  28  0.117  0.453  0.430-  50 2.77   9 2.79  30 2.79   3 2.79  15 2.79  33 2.80  35 2.80  39 2.81
                            36 2.81
  29  0.117  0.954  0.430-  37 2.77  47 2.79  32 2.79   2 2.79  23 2.79  33 2.80  27 2.80  39 2.81
                            31 2.81
  30  0.869  0.453  0.430-  38 2.77  28 2.79  56 2.79  63 2.79   9 2.79  33 2.80  35 2.80  52 2.81
                            32 2.81
  31  0.368  0.953  0.430-  37 2.77  13 2.79  36 2.79  23 2.79  73 2.80  34 2.80  33 2.80  52 2.81
                            29 2.81
  32  0.869  0.202  0.430-  38 2.77  63 2.79  29 2.79  72 2.79  47 2.79  33 2.80  27 2.80  40 2.81
                            30 2.81
  33  0.118  0.203  0.430-   9 2.79  47 2.79  13 2.79  32 2.80  30 2.80  29 2.80  28 2.80  36 2.80
                            31 2.80
  34  0.618  0.953  0.430-  52 2.78  40 2.78  43 2.79  73 2.79   1 2.80  31 2.80  36 2.80  27 2.81
                            35 2.81
  35  0.868  0.703  0.430-  39 2.78  52 2.78   1 2.79  56 2.79   3 2.80  28 2.80  30 2.80  27 2.81
                            34 2.81
  36  0.368  0.202  0.430-  50 2.77  13 2.79  15 2.79  31 2.79  43 2.80  33 2.80  34 2.80  40 2.81
                            28 2.81
  37  0.365  0.708  0.432-  81 1.86  31 2.77  29 2.77  23 2.79  57 2.82  14 2.82  39 2.83  52 2.83
                            38 2.89  50 2.89
  38  0.623  0.450  0.432-  81 1.86  32 2.77  30 2.77  63 2.79  14 2.82  41 2.82  52 2.83  40 2.83
                            50 2.89  37 2.89
  39  0.115  0.704  0.430-  35 2.78  27 2.78   2 2.78   3 2.78  57 2.80  28 2.81  29 2.81  37 2.83
                            50 2.83
  40  0.619  0.200  0.430-  34 2.78  27 2.78  43 2.78  72 2.79  41 2.79  36 2.81  32 2.81  50 2.83
                            38 2.83
  41  0.535  0.369  0.328-  51 2.74  80 2.75  79 2.76  40 2.79  14 2.80  57 2.80  63 2.80  15 2.80
                            72 2.81  43 2.81  38 2.82  50 2.82
  42  0.536  0.368  0.023-   7 2.79  22 2.79  61 2.80  59 2.80  17 2.80  64 2.80  18 2.81  74 2.81
                            44 2.81
  43  0.535  0.119  0.327-  80 2.73  69 2.74  71 2.74  40 2.78  34 2.79  36 2.80  15 2.81   1 2.81
                            73 2.81  72 2.81  13 2.81  41 2.81
  44  0.536  0.118  0.023-  19 2.79   7 2.79  53 2.79  16 2.80  74 2.80   4 2.80  18 2.81  42 2.81
                            75 2.81
  45  0.869  0.452  0.126-  77 2.73  12 2.74  67 2.74  58 2.79  64 2.79  10 2.80  25 2.80  21 2.81
                            22 2.81  11 2.81  54 2.81  46 2.81
  46  0.119  0.452  0.126-  62 2.73  76 2.74  12 2.74   6 2.79  10 2.79  18 2.79  70 2.80  21 2.81
                            61 2.81  53 2.81  54 2.81  45 2.81
  47  0.035  0.119  0.327-  65 2.74  77 2.74  26 2.74  29 2.79  33 2.79  32 2.79  13 2.80   2 2.81
                             9 2.81  72 2.81  23 2.81  63 2.81
  48  0.036  0.118  0.023-  54 2.78  49 2.79  11 2.79  74 2.80   5 2.80  24 2.81  64 2.81  16 2.81
                            10 2.81
  49  0.119  0.952  0.126-  26 2.74  68 2.74  65 2.74  48 2.79   5 2.79  24 2.79  70 2.80  78 2.81
                            60 2.81   8 2.81  54 2.81  11 2.81
  50  0.365  0.450  0.432-  81 1.86  36 2.77  28 2.77  15 2.79  57 2.82  41 2.82  40 2.83  39 2.83
                            38 2.89  37 2.89
  51  0.452  0.536  0.227-  41 2.74  14 2.74  60 2.74  61 2.74  57 2.75  22 2.75  68 2.80  76 2.80
                            80 2.80  66 2.80  67 2.80  79 2.80
  52  0.619  0.704  0.430-  34 2.78  35 2.78  73 2.78  56 2.79  14 2.79  31 2.81  30 2.81  37 2.83
                            38 2.83
  53  0.369  0.202  0.126-  69 2.74  62 2.74  80 2.74  18 2.79  16 2.79  44 2.79   7 2.80  61 2.81
                            19 2.81  46 2.81  54 2.81   8 2.81
  54  0.119  0.202  0.125-  26 2.74  62 2.74  77 2.75  10 2.78  48 2.78  16 2.79  45 2.81  11 2.81
                            46 2.81  49 2.81  53 2.81   8 2.81
  55  0.952  0.786  0.226-   3 2.74  78 2.74   2 2.74  21 2.74  70 2.74   1 2.74  12 2.80  65 2.81
                            20 2.81  71 2.81  68 2.81  76 2.81
  56  0.785  0.619  0.327-  67 2.74  20 2.74  12 2.74  52 2.79  30 2.79  35 2.79  63 2.81   9 2.81
                             1 2.81  73 2.81   3 2.81  14 2.81
  57  0.285  0.619  0.328-  51 2.75  68 2.75  76 2.75  39 2.80  14 2.80  41 2.80  23 2.80  15 2.80
                             2 2.81   3 2.81  50 2.82  37 2.82
  58  0.786  0.618  0.023-  45 2.79  21 2.79  25 2.80  10 2.80  75 2.80  17 2.81   4 2.81  64 2.81
                             6 2.81
  59  0.286  0.618  0.023-  61 2.79  60 2.79  70 2.79  42 2.80  17 2.80  18 2.80  24 2.80   5 2.81
                             6 2.81
  60  0.369  0.702  0.126-  66 2.74  68 2.74  51 2.74  59 2.79  24 2.79  17 2.80  22 2.80  61 2.80
                            25 2.80  70 2.80   8 2.81  49 2.81
  61  0.369  0.452  0.126-  80 2.74  76 2.74  51 2.74  59 2.79  18 2.79  42 2.80  22 2.80  60 2.80
                             7 2.80  70 2.80  53 2.81  46 2.81
  62  0.202  0.285  0.226-  46 2.73  13 2.74  53 2.74   9 2.74  54 2.74  15 2.75  26 2.80  77 2.80
                            69 2.81  12 2.81  76 2.81  80 2.81
  63  0.784  0.369  0.327-  67 2.74  79 2.74  77 2.76  32 2.79  38 2.79  30 2.79  41 2.80  14 2.80
                            72 2.81  56 2.81   9 2.81  47 2.81
  64  0.786  0.368  0.023-  11 2.79  45 2.79  22 2.80  42 2.80  17 2.80  74 2.81  58 2.81  48 2.81
                            10 2.81
  65  0.952  0.036  0.226-  47 2.74   2 2.74  11 2.74  78 2.74  72 2.74  49 2.74  71 2.80  55 2.81
                            77 2.81  26 2.81  79 2.81  68 2.81
  66  0.452  0.785  0.227-  73 2.73  60 2.74   8 2.74  23 2.74  25 2.74  14 2.75  68 2.80  51 2.80
                            67 2.81  20 2.81  69 2.81  26 2.81
  67  0.702  0.535  0.227-  56 2.74  63 2.74  22 2.74  25 2.74  45 2.74  14 2.76  79 2.80  51 2.80
                            66 2.81  20 2.81  12 2.81  77 2.81
  68  0.202  0.785  0.227-  23 2.74   2 2.74  49 2.74  70 2.74  60 2.74  57 2.75  66 2.80  51 2.80
                            76 2.81  55 2.81  65 2.81  26 2.81
  69  0.452  0.036  0.226-  73 2.74  43 2.74  53 2.74   8 2.74  13 2.74  19 2.74  71 2.81  62 2.81
                            26 2.81  20 2.81  80 2.81  66 2.81
  70  0.119  0.702  0.126-  76 2.74  68 2.74  55 2.74   5 2.79   6 2.79  59 2.79  46 2.80  49 2.80
                            61 2.80  60 2.80  21 2.81  78 2.81
  71  0.702  0.036  0.226-   7 2.74  72 2.74   1 2.74  19 2.74  43 2.74  78 2.74  65 2.80  69 2.81
                            79 2.81  80 2.81  55 2.81  20 2.81
  72  0.785  0.119  0.327-  79 2.73  71 2.74  65 2.74  40 2.79  32 2.79  27 2.79  63 2.81  47 2.81
                            43 2.81   1 2.81   2 2.81  41 2.81
  73  0.535  0.869  0.327-  66 2.73  69 2.74  20 2.74  52 2.78  34 2.79  31 2.80  23 2.81  43 2.81
                            13 2.81   1 2.81  56 2.81  14 2.81
  74  0.786  0.118  0.023-  78 2.79  11 2.79   7 2.80  48 2.80  44 2.80  64 2.81   4 2.81  42 2.81
                             5 2.81
  75  0.536  0.868  0.023-  19 2.79  25 2.79   8 2.79  16 2.80  58 2.80   4 2.81  17 2.81  24 2.81
                            44 2.81
  76  0.202  0.535  0.227-  15 2.74   3 2.74  70 2.74  46 2.74  61 2.74  57 2.75  80 2.80  51 2.80
                            68 2.81  55 2.81  12 2.81  62 2.81
  77  0.952  0.285  0.226-  45 2.73  11 2.74  47 2.74   9 2.74  54 2.75  63 2.76  26 2.80  62 2.80
                            65 2.81  12 2.81  67 2.81  79 2.81
  78  0.869  0.952  0.126-  55 2.74  65 2.74  71 2.74  74 2.79   4 2.79   5 2.79  21 2.80  19 2.80
                            49 2.81  11 2.81  70 2.81   7 2.81
  79  0.702  0.286  0.227-  72 2.73  22 2.74  63 2.74   7 2.74  11 2.74  41 2.76  67 2.80  51 2.80
                            80 2.81  71 2.81  65 2.81  77 2.81
  80  0.452  0.286  0.227-  43 2.73  61 2.74  15 2.74  53 2.74   7 2.74  41 2.75  76 2.80  51 2.80
                            79 2.81  71 2.81  69 2.81  62 2.81
  81  0.451  0.536  0.470-  50 1.86  37 1.86  38 1.86
 
  LATTYP: Found a hexagonal cell.
 ALAT       =    11.2227001190
 C/A-ratio  =     1.9603125600
  
  Lattice vectors:
  
 A1 = (   5.6113500595,  -9.7191434021,   0.0000000000)
 A2 = ( -11.2227001190,   0.0000000000,   0.0000000000)
 A3 = (   0.0000000000,   0.0000000000, -22.0000000000)


Analysis of symmetry for initial positions (statically):
=====================================================================
 Subroutine PRICEL returns:
 Original cell was already a primitive cell.
 

 Routine SETGRP: Setting up the symmetry group for a 
 hexagonal supercell.


 Subroutine GETGRP returns: Found  1 space group operations
 (whereof  1 operations were pure point group operations)
 out of a pool of 24 trial point group operations.


The static configuration has the point symmetry C_1 .


Analysis of symmetry for dynamics (positions and initial velocities):
=====================================================================
 Subroutine PRICEL returns:
 Original cell was already a primitive cell.
 

 Routine SETGRP: Setting up the symmetry group for a 
 hexagonal supercell.


 Subroutine GETGRP returns: Found  1 space group operations
 (whereof  1 operations were pure point group operations)
 out of a pool of 24 trial point group operations.


The dynamic configuration has the point symmetry C_1 .


Analysis of structural, dynamic, and magnetic symmetry:
=====================================================================
 Subroutine PRICEL returns:
 Original cell was already a primitive cell.
 

 Routine SETGRP: Setting up the symmetry group for a 
 hexagonal supercell.


 Subroutine GETGRP returns: Found  1 space group operations
 (whereof  1 operations were pure point group operations)
 out of a pool of 24 trial point group operations.


The magnetic configuration has the point symmetry C_1 .


 Subroutine INISYM returns: Found  1 space group operations
 (whereof  1 operations are pure point group operations),
 and found     1 'primitive' translations

 
 
 KPOINTS: mesh auto                               

Automatic generation of k-mesh.
Space group operators:
 irot       det(A)        alpha          n_x          n_y          n_z        tau_x        tau_y        tau_z
    1     1.000000     0.000000     1.000000     0.000000     0.000000     0.000000     0.000000     0.000000
 
 Subroutine IBZKPT returns following result:
 ===========================================
 
 Found     10 irreducible k-points:
 
 Following reciprocal coordinates:
            Coordinates               Weight
  0.000000  0.000000  0.000000      1.000000
  0.250000  0.000000  0.000000      2.000000
  0.500000  0.000000  0.000000      1.000000
  0.000000  0.250000  0.000000      2.000000
  0.250000  0.250000  0.000000      2.000000
  0.500000  0.250000  0.000000      2.000000
 -0.250000  0.250000  0.000000      2.000000
  0.000000  0.500000  0.000000      1.000000
  0.250000  0.500000  0.000000      2.000000
  0.500000  0.500000  0.000000      1.000000
 
 Following cartesian coordinates:
            Coordinates               Weight
  0.000000  0.000000  0.000000      1.000000
  0.022276 -0.012861  0.000000      2.000000
  0.044553 -0.025722  0.000000      1.000000
  0.000000  0.025722  0.000000      2.000000
  0.022276  0.012861  0.000000      2.000000
  0.044553  0.000000  0.000000      2.000000
 -0.022276  0.038584  0.000000      2.000000
  0.000000  0.051445  0.000000      1.000000
  0.022276  0.038584  0.000000      2.000000
  0.044553  0.025722  0.000000      1.000000
 


--------------------------------------------------------------------------------------------------------




 Dimension of arrays:
   k-points           NKPTS =     10   k-points in BZ     NKDIM =     10   number of bands    NBANDS=    540
   number of dos      NEDOS =    301   number of ions     NIONS =     81
   non local maximal  LDIM  =      6   non local SUM 2l+1 LMDIM =     18
   total plane-waves  NPLWV = ******
   max r-space proj   IRMAX =   7929   max aug-charges    IRDMAX=  34542
   dimension x,y,z NGX =    90 NGY =   90 NGZ =  168
   dimension x,y,z NGXF=   180 NGYF=  180 NGZF=  336
   support grid    NGXF=   180 NGYF=  180 NGZF=  336
   ions per type =              80   1
   NGX,Y,Z   is equivalent  to a cutoff of  13.33, 13.33, 12.70 a.u.
   NGXF,Y,Z  is equivalent  to a cutoff of  26.66, 26.66, 25.39 a.u.

 SYSTEM =  Pt111                                   
 POSCAR =  Pt111                                   

 Startparameter for this run:
   NWRITE =      2    write-flag & timer
   PREC   = accura    normal or accurate (medium, high low for compatibility)
   ISTART =      0    job   : 0-new  1-cont  2-samecut
   ICHARG =      2    charge: 1-file 2-atom 10-const
   ISPIN  =      2    spin polarized calculation?
   LNONCOLLINEAR =      F non collinear calculations
   LSORBIT =      F    spin-orbit coupling
   INIWAV =      1    electr: 0-lowe 1-rand  2-diag
   LASPH  =      F    aspherical Exc in radial PAW
   METAGGA=      F    non-selfconsistent MetaGGA calc.

 Electronic Relaxation 1
   ENCUT  =  550.0 eV  40.42 Ry    6.36 a.u.  21.46 21.46 42.07*2*pi/ulx,y,z
   ENINI  =  550.0     initial cutoff
   ENAUG  =  400.0 eV  augmentation charge cutoff
   NELM   =    200;   NELMIN=  2; NELMDL= -5     # of ELM steps 
   EDIFF  = 0.1E-07   stopping-criterion for ELM
   LREAL  =      T    real-space projection
   NLSPLINE    = F    spline interpolate recip. space projectors
   LCOMPAT=      F    compatible to vasp.4.4
   GGA_COMPAT  = T    GGA compatible to vasp.4.4-vasp.4.6
   LMAXPAW     = -100 max onsite density
   LMAXMIX     =    2 max onsite mixed and CHGCAR
   VOSKOWN=      0    Vosko Wilk Nusair interpolation
   ROPT   =   -0.00025  -0.00025
 Ionic relaxation
   EDIFFG = -.1E-01   stopping-criterion for IOM
   NSW    =    300    number of steps for IOM
   NBLOCK =      1;   KBLOCK =    300    inner block; outer block 
   IBRION =      1    ionic relax: 0-MD 1-quasi-New 2-CG
   NFREE  =      0    steps in history (QN), initial steepest desc. (CG)
   ISIF   =      2    stress and relaxation
   IWAVPR =     11    prediction:  0-non 1-charg 2-wave 3-comb
   ISYM   =      2    0-nonsym 1-usesym 2-fastsym
   LCORR  =      T    Harris-Foulkes like correction to forces

   POTIM  = 0.0100    time-step for ionic-motion
   TEIN   =    0.0    initial temperature
   TEBEG  =    0.0;   TEEND  =   0.0 temperature during run
   SMASS  =  -3.00    Nose mass-parameter (am)
   estimated Nose-frequenzy (Omega)   =  0.10E-29 period in steps =****** mass=  -0.288E-26a.u.
   SCALEE = 1.0000    scale energy and forces
   NPACO  =    256;   APACO  = 16.0  distance and # of slots for P.C.
   PSTRESS=    0.0 pullay stress

  Mass of Ions in am
   POMASS = 195.08  1.00
  Ionic Valenz
   ZVAL   =  10.00  1.00
  Atomic Wigner-Seitz radii
   RWIGS  =  -1.00 -1.00
  virtual crystal weights 
   VCA    =   1.00  1.00
   NELECT =     801.0000    total number of electrons
   NUPDOWN=      -1.0000    fix difference up-down

 DOS related values:
   EMIN   =  10.00;   EMAX   =-10.00  energy-range for DOS
   EFERMI =   0.00
   ISMEAR =     1;   SIGMA  =   0.10  broadening in eV -4-tet -1-fermi 0-gaus

 Electronic relaxation 2 (details)
   IALGO  =     68    algorithm
   LDIAG  =      T    sub-space diagonalisation (order eigenvalues)
   LSUBROT=      F    optimize rotation matrix (better conditioning)
   TURBO    =      0    0=normal 1=particle mesh
   IRESTART =      0    0=no restart 2=restart with 2 vectors
   NREBOOT  =      0    no. of reboots
   NMIN     =      0    reboot dimension
   EREF     =   0.00    reference energy to select bands
   IMIX   =      4    mixing-type and parameters
     AMIX     =   0.40;   BMIX     =  1.00
     AMIX_MAG =   1.60;   BMIX_MAG =  1.00
     AMIN     =   0.10
     WC   =   100.;   INIMIX=   1;  MIXPRE=   1;  MAXMIX= -45

 Intra band minimization:
   WEIMIN = 0.0010     energy-eigenvalue tresh-hold
   EBREAK =  0.46E-11  absolut break condition
   DEPER  =   0.30     relativ break condition  

   TIME   =   0.40     timestep for ELM

  volume/ion in A,a.u.               =      29.63       199.92
  Fermi-wavevector in a.u.,A,eV,Ry     =   1.135629  2.146027 17.546785  1.289652
  Thomas-Fermi vector in A             =   2.272333
 
 Write flags
   LWAVE        =      F    write WAVECAR
   LDOWNSAMPLE  =      F    k-point downsampling of WAVECAR
   LCHARG       =      F    write CHGCAR
   LVTOT        =      F    write LOCPOT, total local potential
   LVHAR        =      F    write LOCPOT, Hartree potential only
   LELF         =      F    write electronic localiz. function (ELF)
   LORBIT       =      0    0 simple, 1 ext, 2 COOP (PROOUT), +10 PAW based schemes


 Dipole corrections
   LMONO  =      F    monopole corrections only (constant potential shift)
   LDIPOL =      F    correct potential (dipole corrections)
   IDIPOL =      0    1-x, 2-y, 3-z, 4-all directions 
   EPSILON=  1.0000000 bulk dielectric constant

 Exchange correlation treatment:
   GGA     =    --    GGA type
   LEXCH   =     8    internal setting for exchange type
   VOSKOWN=      0    Vosko Wilk Nusair interpolation
   LHFCALC =     F    Hartree Fock is set to
   LHFONE  =     F    Hartree Fock one center treatment
   AEXX    =    0.0000 exact exchange contribution

 Linear response parameters
   LEPSILON=     F    determine dielectric tensor
   LRPA    =     F    only Hartree local field effects (RPA)
   LNABLA  =     F    use nabla operator in PAW spheres
   LVEL    =     F    velocity operator in full k-point grid
   LINTERFAST=   F  fast interpolation
   KINTER  =     0    interpolate to denser k-point grid
   CSHIFT  =0.1000    complex shift for real part using Kramers Kronig
   OMEGAMAX=  -1.0    maximum frequency
   DEG_THRESHOLD= 0.2000000E-02 threshold for treating states as degnerate
   RTIME   =   -0.100 relaxation time in fs
  (WPLASMAI=    0.000 imaginary part of plasma frequency in eV, 0.658/RTIME)
   DFIELD  = 0.0000000 0.0000000 0.0000000 field for delta impulse in time
 
 Orbital magnetization related:
   ORBITALMAG=     F  switch on orbital magnetization
   LCHIMAG   =     F  perturbation theory with respect to B field
   DQ        =  0.001000  dq finite difference perturbation B field
   LLRAUG    =     F  two centre corrections for induced B field



--------------------------------------------------------------------------------------------------------


 quasi-Newton-method for relaxation of ions
 charge density and potential will be updated during run
 spin polarized calculation
 RMM-DIIS sequential band-by-band and
  variant of blocked Davidson during initial phase
 perform sub-space diagonalisation
    before iterative eigenvector-optimisation
 modified Broyden-mixing scheme, WC =      100.0
 initial mixing is a Kerker type mixing with AMIX =  0.4000 and BMIX =      1.0000
 Hartree-type preconditioning will be used
 using additional bands          139
 real space projection scheme for non local part
 use partial core corrections
 calculate Harris-corrections to forces 
   (improved forces if not selfconsistent)
 use gradient corrections 
 use of overlap-Matrix (Vanderbilt PP)
 Methfessel and Paxton  Order N= 1 SIGMA  =   0.10


--------------------------------------------------------------------------------------------------------


  energy-cutoff  :      550.00
  volume of cell :     2399.65
      direct lattice vectors                 reciprocal lattice vectors
    11.222700119  0.000000000  0.000000000     0.089105116 -0.051444863  0.000000000
     5.611350060  9.719143402  0.000000000     0.000000000  0.102889726  0.000000000
     0.000000000  0.000000000 22.000000000     0.000000000  0.000000000  0.045454545

  length of vectors
    11.222700119 11.222700119 22.000000000     0.102889726  0.102889726  0.045454545


 
 k-points in units of 2pi/SCALE and weight: mesh auto                               
   0.00000000  0.00000000  0.00000000       0.062
   0.02227628 -0.01286122  0.00000000       0.125
   0.04455256 -0.02572243  0.00000000       0.062
   0.00000000  0.02572243  0.00000000       0.125
   0.02227628  0.01286122  0.00000000       0.125
   0.04455256  0.00000000  0.00000000       0.125
  -0.02227628  0.03858365  0.00000000       0.125
   0.00000000  0.05144486  0.00000000       0.062
   0.02227628  0.03858365  0.00000000       0.125
   0.04455256  0.02572243  0.00000000       0.062
 
 k-points in reciprocal lattice and weights: mesh auto                               
   0.00000000  0.00000000  0.00000000       0.062
   0.25000000  0.00000000  0.00000000       0.125
   0.50000000  0.00000000  0.00000000       0.062
   0.00000000  0.25000000  0.00000000       0.125
   0.25000000  0.25000000  0.00000000       0.125
   0.50000000  0.25000000  0.00000000       0.125
  -0.25000000  0.25000000  0.00000000       0.125
   0.00000000  0.50000000  0.00000000       0.062
   0.25000000  0.50000000  0.00000000       0.125
   0.50000000  0.50000000  0.00000000       0.062
 
 position of ions in fractional coordinates (direct lattice) 
   0.78485128  0.86918798  0.32683689
   0.03495064  0.86919166  0.32678503
   0.03496814  0.61909495  0.32678474
   0.78628007  0.86823023  0.02256706
   0.03643843  0.86806091  0.02268562
   0.03642284  0.61822022  0.02268058
   0.61897582  0.20209799  0.12608852
   0.36931403  0.95162418  0.12604596
   0.03489914  0.36915667  0.32664316
   0.03617886  0.36857821  0.02270881
   0.86884714  0.20202943  0.12605216
   0.95192646  0.53565475  0.22643499
   0.28481786  0.11923349  0.32667457
   0.53470552  0.61899291  0.32780424
   0.28518828  0.36946124  0.32710570
   0.28666481  0.11802724  0.02275130
   0.53636746  0.61813417  0.02280227
   0.28639154  0.36823190  0.02273335
   0.61919697  0.95184519  0.12597283
   0.70196762  0.78548360  0.22639848
   0.86913708  0.70196502  0.12594632
   0.61885956  0.45202590  0.12626107
   0.28513422  0.86865036  0.32708929
   0.28634552  0.86812949  0.02272382
   0.61902727  0.70182230  0.12609777
   0.20185012  0.03587126  0.22618029
   0.86784408  0.95272126  0.43033274
   0.11718892  0.45265758  0.43014337
   0.11715336  0.95351409  0.43015926
   0.86851443  0.45270399  0.43018205
   0.36774880  0.95345426  0.43018738
   0.86851382  0.20212424  0.43016813
   0.11773776  0.20279170  0.43004562
   0.61771429  0.95277924  0.43031613
   0.86787883  0.70270531  0.43031039
   0.36768624  0.20217069  0.43018550
   0.36524055  0.70788096  0.43201353
   0.62285075  0.45024185  0.43201573
   0.11469495  0.70430690  0.43012678
   0.61933632  0.19954815  0.43020098
   0.53474576  0.36948962  0.32781076
   0.53629996  0.36833304  0.02280434
   0.53487100  0.11918441  0.32680659
   0.53640731  0.11820116  0.02269461
   0.86884881  0.45209246  0.12604359
   0.11921317  0.45208638  0.12604492
   0.03492760  0.11915516  0.32663435
   0.03616421  0.11798663  0.02272790
   0.11922023  0.95163170  0.12605543
   0.36533674  0.45020429  0.43201255
   0.45194653  0.53560106  0.22705430
   0.61937257  0.70437869  0.43015772
   0.36931314  0.20198871  0.12605659
   0.11903315  0.20198196  0.12546580
   0.95204677  0.78553062  0.22639385
   0.78485619  0.61915237  0.32680349
   0.28524123  0.61902714  0.32778997
   0.78630148  0.61822153  0.02269578
   0.28648479  0.61812172  0.02282905
   0.36925839  0.70168542  0.12623186
   0.36925694  0.45197883  0.12625555
   0.20185895  0.28541849  0.22619303
   0.78428027  0.36946790  0.32712127
   0.78621882  0.36823465  0.02273493
   0.95192416  0.03553581  0.22642826
   0.45186488  0.78549483  0.22661437
   0.70189110  0.53545629  0.22663019
   0.20221178  0.78542954  0.22661353
   0.45201532  0.03558639  0.22644307
   0.11929592  0.70180471  0.12610483
   0.70195736  0.03565993  0.22639753
   0.78487344  0.11922958  0.32681792
   0.53481968  0.86920317  0.32678047
   0.78628714  0.11822383  0.02271717
   0.53639853  0.86811131  0.02269142
   0.20219652  0.53544026  0.22663066
   0.95220672  0.28545316  0.22620348
   0.86912935  0.95184785  0.12594816
   0.70189816  0.28572778  0.22662234
   0.45188830  0.28578221  0.22663526
   0.45101654  0.53617999  0.46971071
 
 position of ions in cartesian coordinates  (Angst):
  13.68546863  8.44776267  7.19041162
   5.26957920  8.44779839  7.18927061
   3.86639545  6.01707255  7.18926434
  13.69612925  8.43845415  0.49647528
   5.27993121  8.43680849  0.49908358
   3.87781270  6.00857098  0.49897285
   8.08062263  1.96421938  2.77394741
   9.48459702  9.24897184  2.77301107
   2.46312992  3.58788658  7.18614952
   2.47424586  3.58226448  0.49959384
  10.88446880  1.96355304  2.77314760
  13.68893150  5.20610528  4.98156976
   3.86548628  1.15884741  7.18684062
   9.47422559  6.01608089  7.21169327
   5.27375886  3.59084675  7.19632546
   3.87944532  1.14712366  0.50052862
   9.48805833  6.00773462  0.50164991
   5.28036449  3.57889863  0.50013371
  12.29019845  9.25111994  2.77140222
  12.28559552  7.63422774  4.98076648
  13.69303627  6.82249873  2.77081914
   9.48175084  4.39330450  2.77774351
   8.07427708  8.44253740  7.19596449
   8.08494834  8.43747501  0.49992405
  10.88532805  6.82111160  2.77415099
   2.46658953  0.34863787  4.97596642
  15.08560634  9.25963458  9.46732031
   3.85519627  4.39944389  9.46315407
   6.66527835  9.26734016  9.46350380
  12.28735750  4.39989499  9.46400502
   9.47730008  9.26675869  9.46412226
  10.88126004  1.96447449  9.46369880
   2.45927087  1.97096165  9.46100368
  12.27880013  9.26019808  9.46695484
  13.68306935  6.82969369  9.46682860
   5.26088295  1.96492594  9.46408110
   8.07115300  6.87999654  9.50429763
   9.51653185  4.37596512  9.50434601
   5.23929962  6.84525975  9.46278912
   8.07036031  1.93943712  9.46442163
   8.07462691  3.59112259  7.21183682
   8.08557924  3.57988161  0.50169538
   6.67148229  1.15837035  7.18974500
   6.68320651  1.14881404  0.49928147
  12.28767862  4.39395141  2.77295906
   3.87470863  4.39389234  2.77298830
   1.06060327  1.15808607  7.18595561
   1.06792438  1.14672897  0.50001384
   6.67791147  9.24904496  2.77321950
   6.62631854  4.37560010  9.50427611
   8.07750542  5.20558348  4.99519460
  10.90354808  6.84595751  9.46346992
   5.27811995  1.96315727  2.77324501
   2.46926482  1.96309165  2.76024766
  15.09242267  7.63468479  4.98066467
  12.28248640  6.01763072  7.18967684
   6.67475476  6.01641357  7.21137939
  12.29348308  6.00858369  0.49930726
   6.68363028  6.00761364  0.50223913
   8.08147875  6.81978121  2.77710096
   6.68027130  4.39284709  2.77762202
   3.86698549  2.77402321  4.97624671
  10.87495596  3.59091149  7.19666792
  10.88979155  3.57892538  0.50016845
  10.88256329  0.34537763  4.98142163
   9.47883058  7.63433694  4.98551614
  10.88174600  5.20417650  4.98586429
   6.67668222  7.63370233  4.98549773
   5.27252015  0.34586927  4.98174751
   5.27689430  6.82094065  2.77430621
   8.07795734  0.34658396  4.98074575
   9.47743819  1.15880943  7.18999414
  10.87952416  8.44791023  7.18917026
   9.48766005  1.14903439  0.49977774
  10.89111631  8.43729834  0.49921132
   5.27373367  5.20402063  4.98587441
  12.28810805  2.77436019  4.97647658
  15.09512961  9.25114580  2.77085941
   9.48051109  2.77702924  4.98569155
   6.67503088  2.77755827  4.98597580
   8.07031702  5.21121017 10.33363571
 


--------------------------------------------------------------------------------------------------------


 k-point  1 :   0.0000 0.0000 0.0000  plane waves:   70321
 k-point  2 :   0.2500 0.0000 0.0000  plane waves:   70283
 k-point  3 :   0.5000 0.0000 0.0000  plane waves:   70264
 k-point  4 :   0.0000 0.2500 0.0000  plane waves:   70283
 k-point  5 :   0.2500 0.2500 0.0000  plane waves:   70283
 k-point  6 :   0.5000 0.2500 0.0000  plane waves:   70273
 k-point  7 :  -0.2500 0.2500 0.0000  plane waves:   70273
 k-point  8 :   0.0000 0.5000 0.0000  plane waves:   70264
 k-point  9 :   0.2500 0.5000 0.0000  plane waves:   70273
 k-point 10 :   0.5000 0.5000 0.0000  plane waves:   70264

 maximum and minimum number of plane-waves per node :     17611    17530

 maximum number of plane-waves:     70321
 maximum index in each direction: 
   IXMAX=   21   IYMAX=   21   IZMAX=   42
   IXMIN=  -21   IYMIN=  -21   IZMIN=  -42


 real space projection operators:
  total allocation   :      86155.74 KBytes
  max/ min on nodes  :      22026.89      21059.03


 parallel 3D FFT for wavefunctions:
    minimum data exchange during FFTs selected (reduces bandwidth)
 parallel 3D FFT for charge:
    minimum data exchange during FFTs selected (reduces bandwidth)


 total amount of memory used by VASP MPI-rank0   282512. kBytes
=======================================================================

   base      :      30000. kBytes
   nonlr-proj:      37951. kBytes
   fftplans  :      16090. kBytes
   grid      :      42471. kBytes
   one-center:        653. kBytes
   wavefun   :     155347. kBytes
 
     INWAV:  cpu time    0.0000: real time    0.0000
 Broyden mixing: mesh for mixing (old mesh)
   NGX = 43   NGY = 43   NGZ = 85
  (NGX  =180   NGY  =180   NGZ  =336)
  gives a total of 157165 points

 initial charge density was supplied:
 charge density of overlapping atoms calculated
 number of electron     801.0000000 magnetization      81.0000000
 keeping initial charge density in first step


--------------------------------------------------------------------------------------------------------


 Maximum index for non-local projection operator         2101
 Maximum index for augmentation-charges         1773 (set IRDMAX)


--------------------------------------------------------------------------------------------------------


 First call to EWALD:  gamma=   0.132
 Maximum number of real-space cells 4x 4x 2
 Maximum number of reciprocal cells 2x 2x 4

    FEWALD:  cpu time    0.0038: real time    0.0038


--------------------------------------- Iteration      1(   1)  ---------------------------------------


    POTLOK:  cpu time    0.2869: real time    0.3191
    SETDIJ:  cpu time    0.0275: real time    0.0278
     EDDAV:  cpu time   88.2704: real time   88.5214
       DOS:  cpu time    0.0055: real time    0.0056
    --------------------------------------------
      LOOP:  cpu time   88.5904: real time   88.8740

 eigenvalue-minimisations  : 21600
 total energy-change (2. order) : 0.5449287E+04  (-0.3883106E+05)
 number of electron     801.0000000 magnetization      81.0000000
 augmentation part      801.0000000 magnetization      81.0000000

 Free energy of the ion-electron system (eV)
  ---------------------------------------------------
  alpha Z        PSCENC =      2539.23836485
  Ewald energy   TEWEN  =    178066.26963929
  -Hartree energ DENC   =   -242142.72286847
  -exchange      EXHF   =         0.00000000
  -V(xc)+E(xc)   XCENC  =       289.02919493
  PAW double counting   =     55685.49641431   -53423.17961727
  entropy T*S    EENTRO =        -0.00011482
  eigenvalues    EBANDS =      6093.42406202
  atomic energy  EATOM  =     58341.73154849
  Solvation  Ediel_sol  =         0.00000000
  ---------------------------------------------------
  free energy    TOTEN  =      5449.28662334 eV

  energy without entropy =     5449.28673816  energy(sigma->0) =     5449.28666162


--------------------------------------------------------------------------------------------------------




--------------------------------------- Iteration      1(   2)  ---------------------------------------


     EDDAV:  cpu time   95.6186: real time   95.8788
       DOS:  cpu time    0.0054: real time    0.0054
    --------------------------------------------
      LOOP:  cpu time   95.6241: real time   95.8843

 eigenvalue-minimisations  : 24020
 total energy-change (2. order) :-0.5650879E+04  (-0.5178154E+04)
 number of electron     801.0000000 magnetization      81.0000000
 augmentation part      801.0000000 magnetization      81.0000000

 Free energy of the ion-electron system (eV)
  ---------------------------------------------------
  alpha Z        PSCENC =      2539.23836485
  Ewald energy   TEWEN  =    178066.26963929
  -Hartree energ DENC   =   -242142.72286847
  -exchange      EXHF   =         0.00000000
  -V(xc)+E(xc)   XCENC  =       289.02919493
  PAW double counting   =     55685.49641431   -53423.17961727
  entropy T*S    EENTRO =        -0.00683036
  eigenvalues    EBANDS =       442.55197224
  atomic energy  EATOM  =     58341.73154849
  Solvation  Ediel_sol  =         0.00000000
  ---------------------------------------------------
  free energy    TOTEN  =      -201.59218198 eV

  energy without entropy =     -201.58535162  energy(sigma->0) =     -201.58990519


--------------------------------------------------------------------------------------------------------




--------------------------------------- Iteration      1(   3)  ---------------------------------------


     EDDAV:  cpu time   97.6751: real time   97.9415
       DOS:  cpu time    0.0044: real time    0.0044
    --------------------------------------------
      LOOP:  cpu time   97.6795: real time   97.9459

 eigenvalue-minimisations  : 24740
 total energy-change (2. order) :-0.2866597E+03  (-0.2658390E+03)
 number of electron     801.0000000 magnetization      81.0000000
 augmentation part      801.0000000 magnetization      81.0000000

 Free energy of the ion-electron system (eV)
  ---------------------------------------------------
  alpha Z        PSCENC =      2539.23836485
  Ewald energy   TEWEN  =    178066.26963929
  -Hartree energ DENC   =   -242142.72286847
  -exchange      EXHF   =         0.00000000
  -V(xc)+E(xc)   XCENC  =       289.02919493
  PAW double counting   =     55685.49641431   -53423.17961727
  entropy T*S    EENTRO =        -0.00931959
  eigenvalues    EBANDS =       155.89477148
  atomic energy  EATOM  =     58341.73154849
  Solvation  Ediel_sol  =         0.00000000
  ---------------------------------------------------
  free energy    TOTEN  =      -488.25187197 eV

  energy without entropy =     -488.24255238  energy(sigma->0) =     -488.24876544


--------------------------------------------------------------------------------------------------------




--------------------------------------- Iteration      1(   4)  ---------------------------------------


     EDDAV:  cpu time   98.8966: real time   99.1700
       DOS:  cpu time    0.0033: real time    0.0033
    --------------------------------------------
      LOOP:  cpu time   98.8999: real time   99.1733

 eigenvalue-minimisations  : 25060
 total energy-change (2. order) :-0.6851995E+01  (-0.6793321E+01)
 number of electron     801.0000000 magnetization      81.0000000
 augmentation part      801.0000000 magnetization      81.0000000

 Free energy of the ion-electron system (eV)
  ---------------------------------------------------
  alpha Z        PSCENC =      2539.23836485
  Ewald energy   TEWEN  =    178066.26963929
  -Hartree energ DENC   =   -242142.72286847
  -exchange      EXHF   =         0.00000000
  -V(xc)+E(xc)   XCENC  =       289.02919493
  PAW double counting   =     55685.49641431   -53423.17961727
  entropy T*S    EENTRO =        -0.00946268
  eigenvalues    EBANDS =       149.04291954
  atomic energy  EATOM  =     58341.73154849
  Solvation  Ediel_sol  =         0.00000000
  ---------------------------------------------------
  free energy    TOTEN  =      -495.10386700 eV

  energy without entropy =     -495.09440432  energy(sigma->0) =     -495.10071278


--------------------------------------------------------------------------------------------------------




--------------------------------------- Iteration      1(   5)  ---------------------------------------


     EDDAV:  cpu time   97.3795: real time   97.6156
       DOS:  cpu time    0.0045: real time    0.0045
    CHARGE:  cpu time    6.2937: real time    6.3087
    MIXING:  cpu time    0.0063: real time    0.0068
    --------------------------------------------
      LOOP:  cpu time  103.6841: real time  103.9356

 eigenvalue-minimisations  : 24660
 total energy-change (2. order) :-0.2233920E+00  (-0.2229953E+00)
 number of electron     800.9999974 magnetization      75.9212745
 augmentation part      233.1531353 magnetization      54.6556003

 Broyden mixing:
  rms(total) = 0.10263E+02    rms(broyden)= 0.10263E+02
  rms(prec ) = 0.10399E+02
  weight for this iteration     100.00

 Free energy of the ion-electron system (eV)
  ---------------------------------------------------
  alpha Z        PSCENC =      2539.23836485
  Ewald energy   TEWEN  =    178066.26963929
  -Hartree energ DENC   =   -242142.72286847
  -exchange      EXHF   =         0.00000000
  -V(xc)+E(xc)   XCENC  =       289.02919493
  PAW double counting   =     55685.49641431   -53423.17961727
  entropy T*S    EENTRO =        -0.00960833
  eigenvalues    EBANDS =       148.81967314
  atomic energy  EATOM  =     58341.73154849
  Solvation  Ediel_sol  =         0.00000000
  ---------------------------------------------------
  free energy    TOTEN  =      -495.32725905 eV

  energy without entropy =     -495.31765072  energy(sigma->0) =     -495.32405627


--------------------------------------------------------------------------------------------------------




--------------------------------------- Iteration      1(   6)  ---------------------------------------


    POTLOK:  cpu time    0.2851: real time    0.2858
    SETDIJ:  cpu time    0.0331: real time    0.0332
    EDDIAG:  cpu time   16.9523: real time   16.9933
  RMM-DIIS:  cpu time   54.8575: real time   54.9874
    ORTHCH:  cpu time    2.3510: real time    2.3566
       DOS:  cpu time    0.0030: real time    0.0030
    CHARGE:  cpu time    6.1958: real time    6.2106
    MIXING:  cpu time    0.0059: real time    0.0243
    --------------------------------------------
      LOOP:  cpu time   80.6838: real time   80.8942

 eigenvalue-minimisations  : 21714
 total energy-change (2. order) : 0.1293317E+02  (-0.8072335E+01)
 number of electron     800.9999974 magnetization      72.5514001
 augmentation part      246.1946738 magnetization      50.8170820

 Broyden mixing:
  rms(total) = 0.82210E+01    rms(broyden)= 0.82210E+01
  rms(prec ) = 0.90922E+01
  weight for this iteration     100.00

 eigenvalues of (default mixing * dielectric matrix)
  average eigenvalue GAMMA=   0.7826
  0.7826

 Free energy of the ion-electron system (eV)
  ---------------------------------------------------
  alpha Z        PSCENC =      2539.23836485
  Ewald energy   TEWEN  =    178066.26963929
  -Hartree energ DENC   =   -241135.93480459
  -exchange      EXHF   =         0.00000000
  -V(xc)+E(xc)   XCENC  =       271.62154584
  PAW double counting   =     61994.90433865   -59852.41069966
  entropy T*S    EENTRO =         0.00142221
  eigenvalues    EBANDS =      -707.81544204
  atomic energy  EATOM  =     58341.73154849
  Solvation  Ediel_sol  =         0.00000000
  ---------------------------------------------------
  free energy    TOTEN  =      -482.39408696 eV

  energy without entropy =     -482.39550916  energy(sigma->0) =     -482.39456102


--------------------------------------------------------------------------------------------------------




--------------------------------------- Iteration      1(   7)  ---------------------------------------


    POTLOK:  cpu time    0.2661: real time    0.2668
    SETDIJ:  cpu time    0.0272: real time    0.0272
    EDDIAG:  cpu time   16.7280: real time   16.7681
  RMM-DIIS:  cpu time   53.7971: real time   53.9242
    ORTHCH:  cpu time    2.2814: real time    2.2869
       DOS:  cpu time    0.0031: real time    0.0031
    CHARGE:  cpu time    6.2874: real time    6.3023
    MIXING:  cpu time    0.0053: real time    0.0053
    --------------------------------------------
      LOOP:  cpu time   79.3955: real time   79.5839

 eigenvalue-minimisations  : 21674
 total energy-change (2. order) :-0.9181542E+02  (-0.1177998E+02)
 number of electron     800.9999972 magnetization      64.8537968
 augmentation part      240.3227980 magnetization      54.9965958

 Broyden mixing:
  rms(total) = 0.91647E+01    rms(broyden)= 0.91646E+01
  rms(prec ) = 0.11650E+02
  weight for this iteration     100.00

 eigenvalues of (default mixing * dielectric matrix)
  average eigenvalue GAMMA=   0.7611
  1.2297  0.2924

 Free energy of the ion-electron system (eV)
  ---------------------------------------------------
  alpha Z        PSCENC =      2539.23836485
  Ewald energy   TEWEN  =    178066.26963929
  -Hartree energ DENC   =   -242091.06408650
  -exchange      EXHF   =         0.00000000
  -V(xc)+E(xc)   XCENC  =       264.90803670
  PAW double counting   =     65129.81828406   -63021.47618209
  entropy T*S    EENTRO =        -0.01322977
  eigenvalues    EBANDS =       196.37812190
  atomic energy  EATOM  =     58341.73154849
  Solvation  Ediel_sol  =         0.00000000
  ---------------------------------------------------
  free energy    TOTEN  =      -574.20950306 eV

  energy without entropy =     -574.19627329  energy(sigma->0) =     -574.20509314


--------------------------------------------------------------------------------------------------------




--------------------------------------- Iteration      1(   8)  ---------------------------------------


    POTLOK:  cpu time    0.2658: real time    0.2664
    SETDIJ:  cpu time    0.0270: real time    0.0271
    EDDIAG:  cpu time   16.8778: real time   16.9181
  RMM-DIIS:  cpu time   54.1636: real time   54.2916
    ORTHCH:  cpu time    2.2673: real time    2.2727
       DOS:  cpu time    0.0031: real time    0.0031
    CHARGE:  cpu time    6.2043: real time    6.2191
    MIXING:  cpu time    0.0065: real time    0.0065
    --------------------------------------------
      LOOP:  cpu time   79.8155: real time   80.0048

 eigenvalue-minimisations  : 21729
 total energy-change (2. order) : 0.1052430E+03  (-0.5526794E+01)
 number of electron     800.9999974 magnetization      60.9174307
 augmentation part      249.7074454 magnetization      44.8777324

 Broyden mixing:
  rms(total) = 0.42926E+01    rms(broyden)= 0.42926E+01
  rms(prec ) = 0.47639E+01
  weight for this iteration     100.00

 eigenvalues of (default mixing * dielectric matrix)
  average eigenvalue GAMMA=   0.9327
  2.0040  0.5419  0.2523

 Free energy of the ion-electron system (eV)
  ---------------------------------------------------
  alpha Z        PSCENC =      2539.23836485
  Ewald energy   TEWEN  =    178066.26963929
  -Hartree energ DENC   =   -241300.29287018
  -exchange      EXHF   =         0.00000000
  -V(xc)+E(xc)   XCENC  =       263.10596660
  PAW double counting   =     69954.85597453   -67912.11693762
  entropy T*S    EENTRO =        -0.00600827
  eigenvalues    EBANDS =      -421.75218641
  atomic energy  EATOM  =     58341.73154849
  Solvation  Ediel_sol  =         0.00000000
  ---------------------------------------------------
  free energy    TOTEN  =      -468.96650871 eV

  energy without entropy =     -468.96050044  energy(sigma->0) =     -468.96450595


--------------------------------------------------------------------------------------------------------




--------------------------------------- Iteration      1(   9)  ---------------------------------------


    POTLOK:  cpu time    0.3107: real time    0.3115
    SETDIJ:  cpu time    0.0339: real time    0.0340
    EDDIAG:  cpu time   16.9884: real time   17.0291
  RMM-DIIS:  cpu time   53.9853: real time   54.1309
    ORTHCH:  cpu time    2.3851: real time    2.3917
       DOS:  cpu time    0.0035: real time    0.0035
    CHARGE:  cpu time    6.2324: real time    6.2493
    MIXING:  cpu time    0.0061: real time    0.0061
    --------------------------------------------
      LOOP:  cpu time   79.9455: real time   80.1561

 eigenvalue-minimisations  : 21680
 total energy-change (2. order) :-0.3271322E+01  (-0.4647682E+01)
 number of electron     800.9999971 magnetization      58.5943578
 augmentation part      249.4955541 magnetization      43.5423442

 Broyden mixing:
  rms(total) = 0.46192E+01    rms(broyden)= 0.46192E+01
  rms(prec ) = 0.64215E+01
  weight for this iteration     100.00

 eigenvalues of (default mixing * dielectric matrix)
  average eigenvalue GAMMA=   0.8222
  2.1839  0.5649  0.2388  0.3011

 Free energy of the ion-electron system (eV)
  ---------------------------------------------------
  alpha Z        PSCENC =      2539.23836485
  Ewald energy   TEWEN  =    178066.26963929
  -Hartree energ DENC   =   -241262.56411200
  -exchange      EXHF   =         0.00000000
  -V(xc)+E(xc)   XCENC  =       264.51173635
  PAW double counting   =     71374.39719796   -69342.22131610
  entropy T*S    EENTRO =        -0.02432249
  eigenvalues    EBANDS =      -453.57656671
  atomic energy  EATOM  =     58341.73154849
  Solvation  Ediel_sol  =         0.00000000
  ---------------------------------------------------
  free energy    TOTEN  =      -472.23783036 eV

  energy without entropy =     -472.21350787  energy(sigma->0) =     -472.22972287


--------------------------------------------------------------------------------------------------------




--------------------------------------- Iteration      1(  10)  ---------------------------------------


    POTLOK:  cpu time    0.2616: real time    0.2622
    SETDIJ:  cpu time    0.0271: real time    0.0272
    EDDIAG:  cpu time   16.7951: real time   16.8409
  RMM-DIIS:  cpu time   54.0228: real time   54.1707
    ORTHCH:  cpu time    2.2949: real time    2.3013
       DOS:  cpu time    0.0030: real time    0.0030
    CHARGE:  cpu time    6.2321: real time    6.2491
    MIXING:  cpu time    0.0063: real time    0.0063
    --------------------------------------------
      LOOP:  cpu time   79.6428: real time   79.8605

 eigenvalue-minimisations  : 21695
 total energy-change (2. order) :-0.2841502E+02  (-0.1219540E+01)
 number of electron     800.9999973 magnetization      55.9874153
 augmentation part      248.5151005 magnetization      43.0174118

 Broyden mixing:
  rms(total) = 0.60243E+01    rms(broyden)= 0.60243E+01
  rms(prec ) = 0.98732E+01
  weight for this iteration     100.00

 eigenvalues of (default mixing * dielectric matrix)
  average eigenvalue GAMMA=   0.7299
  2.2928  0.6215  0.3622  0.2555  0.1176

 Free energy of the ion-electron system (eV)
  ---------------------------------------------------
  alpha Z        PSCENC =      2539.23836485
  Ewald energy   TEWEN  =    178066.26963929
  -Hartree energ DENC   =   -241301.28888339
  -exchange      EXHF   =         0.00000000
  -V(xc)+E(xc)   XCENC  =       265.18848629
  PAW double counting   =     71909.06945883   -69879.82378777
  entropy T*S    EENTRO =         0.06412012
  eigenvalues    EBANDS =      -441.10179879
  atomic energy  EATOM  =     58341.73154849
  Solvation  Ediel_sol  =         0.00000000
  ---------------------------------------------------
  free energy    TOTEN  =      -500.65285207 eV

  energy without entropy =     -500.71697219  energy(sigma->0) =     -500.67422544


--------------------------------------------------------------------------------------------------------




--------------------------------------- Iteration      1(  11)  ---------------------------------------


    POTLOK:  cpu time    0.2625: real time    0.2631
    SETDIJ:  cpu time    0.0272: real time    0.0272
    EDDIAG:  cpu time   16.8773: real time   16.9238
  RMM-DIIS:  cpu time   54.0533: real time   54.2015
    ORTHCH:  cpu time    2.2656: real time    2.2719
       DOS:  cpu time    0.0035: real time    0.0035
    CHARGE:  cpu time    6.2118: real time    6.2287
    MIXING:  cpu time    0.0069: real time    0.0069
    --------------------------------------------
      LOOP:  cpu time   79.7080: real time   79.9267

 eigenvalue-minimisations  : 21726
 total energy-change (2. order) : 0.4683123E+02  (-0.7168883E+00)
 number of electron     800.9999972 magnetization      54.3372456
 augmentation part      249.0346527 magnetization      36.5756444

 Broyden mixing:
  rms(total) = 0.17653E+01    rms(broyden)= 0.17653E+01
  rms(prec ) = 0.21299E+01
  weight for this iteration     100.00

 eigenvalues of (default mixing * dielectric matrix)
  average eigenvalue GAMMA=   0.7144
  2.0925  0.7581  0.7581  0.2889  0.2889  0.1001

 Free energy of the ion-electron system (eV)
  ---------------------------------------------------
  alpha Z        PSCENC =      2539.23836485
  Ewald energy   TEWEN  =    178066.26963929
  -Hartree energ DENC   =   -241371.77589910
  -exchange      EXHF   =         0.00000000
  -V(xc)+E(xc)   XCENC  =       265.67274896
  PAW double counting   =     72386.62586362   -70360.85306169
  entropy T*S    EENTRO =         0.05297310
  eigenvalues    EBANDS =      -320.78380163
  atomic energy  EATOM  =     58341.73154849
  Solvation  Ediel_sol  =         0.00000000
  ---------------------------------------------------
  free energy    TOTEN  =      -453.82162411 eV

  energy without entropy =     -453.87459721  energy(sigma->0) =     -453.83928181


--------------------------------------------------------------------------------------------------------




--------------------------------------- Iteration      1(  12)  ---------------------------------------


    POTLOK:  cpu time    0.2578: real time    0.2584
    SETDIJ:  cpu time    0.0272: real time    0.0273
    EDDIAG:  cpu time   17.1256: real time   17.1756
  RMM-DIIS:  cpu time   54.3245: real time   54.4544
    ORTHCH:  cpu time    2.4112: real time    2.4168
       DOS:  cpu time    0.0031: real time    0.0031
    CHARGE:  cpu time    6.2088: real time    6.2236
    MIXING:  cpu time    0.0065: real time    0.0065
    --------------------------------------------
      LOOP:  cpu time   80.3648: real time   80.5658

 eigenvalue-minimisations  : 21753
 total energy-change (2. order) :-0.3649474E+01  (-0.3457539E+00)
 number of electron     800.9999973 magnetization      52.4457088
 augmentation part      248.6350965 magnetization      34.5879036

 Broyden mixing:
  rms(total) = 0.13035E+01    rms(broyden)= 0.13035E+01
  rms(prec ) = 0.14927E+01
  weight for this iteration     100.00

 eigenvalues of (default mixing * dielectric matrix)
  average eigenvalue GAMMA=   0.7138
  1.9655  0.9466  0.9466  0.4520  0.2930  0.2930  0.1000

 Free energy of the ion-electron system (eV)
  ---------------------------------------------------
  alpha Z        PSCENC =      2539.23836485
  Ewald energy   TEWEN  =    178066.26963929
  -Hartree energ DENC   =   -241375.91576441
  -exchange      EXHF   =         0.00000000
  -V(xc)+E(xc)   XCENC  =       264.87686098
  PAW double counting   =     71905.92048814   -69872.88517590
  entropy T*S    EENTRO =         0.03653983
  eigenvalues    EBANDS =      -326.74359971
  atomic energy  EATOM  =     58341.73154849
  Solvation  Ediel_sol  =         0.00000000
  ---------------------------------------------------
  free energy    TOTEN  =      -457.47109843 eV

  energy without entropy =     -457.50763827  energy(sigma->0) =     -457.48327838


--------------------------------------------------------------------------------------------------------




--------------------------------------- Iteration      1(  13)  ---------------------------------------


    POTLOK:  cpu time    0.2568: real time    0.2574
    SETDIJ:  cpu time    0.0274: real time    0.0274
    EDDIAG:  cpu time   16.7097: real time   16.7497
  RMM-DIIS:  cpu time   54.4164: real time   54.5452
    ORTHCH:  cpu time    2.2806: real time    2.2860
       DOS:  cpu time    0.0031: real time    0.0031
    CHARGE:  cpu time    6.2147: real time    6.2295
    MIXING:  cpu time    0.0067: real time    0.0068
    --------------------------------------------
      LOOP:  cpu time   79.9154: real time   80.1050

 eigenvalue-minimisations  : 21750
 total energy-change (2. order) :-0.2211171E+01  (-0.1754876E+00)
 number of electron     800.9999973 magnetization      49.8227425
 augmentation part      248.4513425 magnetization      32.3619042

 Broyden mixing:
  rms(total) = 0.13116E+01    rms(broyden)= 0.13116E+01
  rms(prec ) = 0.15513E+01
  weight for this iteration     100.00

 eigenvalues of (default mixing * dielectric matrix)
  average eigenvalue GAMMA=   0.7096
  1.9061  1.0508  1.0508  0.7546  0.2928  0.2928  0.1001  0.2288

 Free energy of the ion-electron system (eV)
  ---------------------------------------------------
  alpha Z        PSCENC =      2539.23836485
  Ewald energy   TEWEN  =    178066.26963929
  -Hartree energ DENC   =   -241382.35229191
  -exchange      EXHF   =         0.00000000
  -V(xc)+E(xc)   XCENC  =       264.21226942
  PAW double counting   =     71792.07156046   -69756.94347113
  entropy T*S    EENTRO =         0.03974563
  eigenvalues    EBANDS =      -323.94963462
  atomic energy  EATOM  =     58341.73154849
  Solvation  Ediel_sol  =         0.00000000
  ---------------------------------------------------
  free energy    TOTEN  =      -459.68226952 eV

  energy without entropy =     -459.72201515  energy(sigma->0) =     -459.69551807


--------------------------------------------------------------------------------------------------------




--------------------------------------- Iteration      1(  14)  ---------------------------------------


    POTLOK:  cpu time    0.2584: real time    0.2590
    SETDIJ:  cpu time    0.0269: real time    0.0269
    EDDIAG:  cpu time   16.9214: real time   16.9619
  RMM-DIIS:  cpu time   54.3964: real time   54.5249
    ORTHCH:  cpu time    2.2581: real time    2.2634
       DOS:  cpu time    0.0031: real time    0.0031
    CHARGE:  cpu time    6.2314: real time    6.2462
    MIXING:  cpu time    0.0077: real time    0.0077
    --------------------------------------------
      LOOP:  cpu time   80.1034: real time   80.2932

 eigenvalue-minimisations  : 21720
 total energy-change (2. order) :-0.1321193E+01  (-0.8218701E-01)
 number of electron     800.9999973 magnetization      46.5809549
 augmentation part      248.3657483 magnetization      28.8387911

 Broyden mixing:
  rms(total) = 0.84496E+00    rms(broyden)= 0.84496E+00
  rms(prec ) = 0.95520E+00
  weight for this iteration     100.00

 eigenvalues of (default mixing * dielectric matrix)
  average eigenvalue GAMMA=   0.7168
  1.9742  1.1447  1.1447  0.8926  0.1001  0.3465  0.3465  0.2860  0.2164

 Free energy of the ion-electron system (eV)
  ---------------------------------------------------
  alpha Z        PSCENC =      2539.23836485
  Ewald energy   TEWEN  =    178066.26963929
  -Hartree energ DENC   =   -241398.30979073
  -exchange      EXHF   =         0.00000000
  -V(xc)+E(xc)   XCENC  =       263.10855987
  PAW double counting   =     71890.01889783   -69855.54091976
  entropy T*S    EENTRO =         0.04188260
  eigenvalues    EBANDS =      -307.56164494
  atomic energy  EATOM  =     58341.73154849
  Solvation  Ediel_sol  =         0.00000000
  ---------------------------------------------------
  free energy    TOTEN  =      -461.00346249 eV

  energy without entropy =     -461.04534509  energy(sigma->0) =     -461.01742335


--------------------------------------------------------------------------------------------------------




--------------------------------------- Iteration      1(  15)  ---------------------------------------


    POTLOK:  cpu time    0.2943: real time    0.2950
    SETDIJ:  cpu time    0.0346: real time    0.0347
    EDDIAG:  cpu time   16.8954: real time   16.9425
  RMM-DIIS:  cpu time   54.2331: real time   54.3815
    ORTHCH:  cpu time    2.3651: real time    2.3712
       DOS:  cpu time    0.0034: real time    0.0034
    CHARGE:  cpu time    6.1880: real time    6.2046
    MIXING:  cpu time    0.0076: real time    0.0076
    --------------------------------------------
      LOOP:  cpu time   80.0214: real time   80.2404

 eigenvalue-minimisations  : 21712
 total energy-change (2. order) :-0.2351660E+01  (-0.1094647E+00)
 number of electron     800.9999973 magnetization      42.7972061
 augmentation part      248.2617935 magnetization      25.7320743

 Broyden mixing:
  rms(total) = 0.67778E+00    rms(broyden)= 0.67778E+00
  rms(prec ) = 0.75148E+00
  weight for this iteration     100.00

 eigenvalues of (default mixing * dielectric matrix)
  average eigenvalue GAMMA=   0.7498
  1.9491  1.9491  0.8143  0.8035  0.8035  0.1001  0.3182  0.2781  0.2781  0.2037

 Free energy of the ion-electron system (eV)
  ---------------------------------------------------
  alpha Z        PSCENC =      2539.23836485
  Ewald energy   TEWEN  =    178066.26963929
  -Hartree energ DENC   =   -241422.22385578
  -exchange      EXHF   =         0.00000000
  -V(xc)+E(xc)   XCENC  =       261.49042134
  PAW double counting   =     72029.69114744   -69996.49712953
  entropy T*S    EENTRO =         0.04532290
  eigenvalues    EBANDS =      -283.10058111
  atomic energy  EATOM  =     58341.73154849
  Solvation  Ediel_sol  =         0.00000000
  ---------------------------------------------------
  free energy    TOTEN  =      -463.35512210 eV

  energy without entropy =     -463.40044500  energy(sigma->0) =     -463.37022974


--------------------------------------------------------------------------------------------------------




--------------------------------------- Iteration      1(  16)  ---------------------------------------


    POTLOK:  cpu time    0.2576: real time    0.2582
    SETDIJ:  cpu time    0.0267: real time    0.0267
    EDDIAG:  cpu time   16.6964: real time   16.7419
  RMM-DIIS:  cpu time   54.4993: real time   54.6489
    ORTHCH:  cpu time    2.2674: real time    2.2733
       DOS:  cpu time    0.0030: real time    0.0030
    CHARGE:  cpu time    6.1676: real time    6.1843
    MIXING:  cpu time    0.0075: real time    0.0075
    --------------------------------------------
      LOOP:  cpu time   79.9255: real time   80.1439

 eigenvalue-minimisations  : 21696
 total energy-change (2. order) :-0.2759112E+01  (-0.1206881E+00)
 number of electron     800.9999973 magnetization      40.2590595
 augmentation part      248.1256946 magnetization      24.0776044

 Broyden mixing:
  rms(total) = 0.47573E+00    rms(broyden)= 0.47573E+00
  rms(prec ) = 0.50856E+00
  weight for this iteration     100.00

 eigenvalues of (default mixing * dielectric matrix)
  average eigenvalue GAMMA=   0.8033
  2.3071  2.3071  0.8982  0.8982  0.7576  0.5090  0.1001  0.2933  0.2933  0.2689
  0.2036

 Free energy of the ion-electron system (eV)
  ---------------------------------------------------
  alpha Z        PSCENC =      2539.23836485
  Ewald energy   TEWEN  =    178066.26963929
  -Hartree energ DENC   =   -241443.91154095
  -exchange      EXHF   =         0.00000000
  -V(xc)+E(xc)   XCENC  =       259.84301296
  PAW double counting   =     72030.82740776   -69997.23068895
  entropy T*S    EENTRO =         0.04531486
  eigenvalues    EBANDS =      -262.92729206
  atomic energy  EATOM  =     58341.73154849
  Solvation  Ediel_sol  =         0.00000000
  ---------------------------------------------------
  free energy    TOTEN  =      -466.11423373 eV

  energy without entropy =     -466.15954859  energy(sigma->0) =     -466.12933868


--------------------------------------------------------------------------------------------------------




--------------------------------------- Iteration      1(  17)  ---------------------------------------


    POTLOK:  cpu time    0.2580: real time    0.2589
    SETDIJ:  cpu time    0.0274: real time    0.0275
    EDDIAG:  cpu time   16.8787: real time   16.9243
  RMM-DIIS:  cpu time   54.4001: real time   54.5501
    ORTHCH:  cpu time    2.2641: real time    2.2701
       DOS:  cpu time    0.0030: real time    0.0030
    CHARGE:  cpu time    6.1964: real time    6.2132
    MIXING:  cpu time    0.0081: real time    0.0086
    --------------------------------------------
      LOOP:  cpu time   80.0359: real time   80.2557

 eigenvalue-minimisations  : 21701
 total energy-change (2. order) :-0.1503580E+01  (-0.6476745E-01)
 number of electron     800.9999973 magnetization      37.0522769
 augmentation part      248.0625656 magnetization      21.4285705

 Broyden mixing:
  rms(total) = 0.44267E+00    rms(broyden)= 0.44267E+00
  rms(prec ) = 0.50289E+00
  weight for this iteration     100.00

 eigenvalues of (default mixing * dielectric matrix)
  average eigenvalue GAMMA=   0.8689
  3.2627  2.2876  1.0496  1.0496  0.6694  0.6694  0.1001  0.3023  0.3023  0.2828
  0.2474  0.2030

 Free energy of the ion-electron system (eV)
  ---------------------------------------------------
  alpha Z        PSCENC =      2539.23836485
  Ewald energy   TEWEN  =    178066.26963929
  -Hartree energ DENC   =   -241446.99586472
  -exchange      EXHF   =         0.00000000
  -V(xc)+E(xc)   XCENC  =       258.88235832
  PAW double counting   =     71982.45556426   -69948.03125609
  entropy T*S    EENTRO =         0.04277372
  eigenvalues    EBANDS =      -261.21094146
  atomic energy  EATOM  =     58341.73154849
  Solvation  Ediel_sol  =         0.00000000
  ---------------------------------------------------
  free energy    TOTEN  =      -467.61781334 eV

  energy without entropy =     -467.66058706  energy(sigma->0) =     -467.63207125


--------------------------------------------------------------------------------------------------------




--------------------------------------- Iteration      1(  18)  ---------------------------------------


    POTLOK:  cpu time    0.2878: real time    0.2885
    SETDIJ:  cpu time    0.0353: real time    0.0354
    EDDIAG:  cpu time   16.8996: real time   16.9463
  RMM-DIIS:  cpu time   54.3065: real time   54.4549
    ORTHCH:  cpu time    2.3411: real time    2.3476
       DOS:  cpu time    0.0031: real time    0.0031
    CHARGE:  cpu time    6.2011: real time    6.2179
    MIXING:  cpu time    0.0080: real time    0.0080
    --------------------------------------------
      LOOP:  cpu time   80.0824: real time   80.3016

 eigenvalue-minimisations  : 21680
 total energy-change (2. order) :-0.1349693E+01  (-0.5241321E-01)
 number of electron     800.9999973 magnetization      33.3826434
 augmentation part      248.0431193 magnetization      18.5460576

 Broyden mixing:
  rms(total) = 0.40954E+00    rms(broyden)= 0.40954E+00
  rms(prec ) = 0.46691E+00
  weight for this iteration     100.00

 eigenvalues of (default mixing * dielectric matrix)
  average eigenvalue GAMMA=   0.9394
  4.4815  2.2044  1.1782  1.1782  0.6411  0.6411  0.4739  0.1001  0.3023  0.2858
  0.2858  0.2025  0.2366

 Free energy of the ion-electron system (eV)
  ---------------------------------------------------
  alpha Z        PSCENC =      2539.23836485
  Ewald energy   TEWEN  =    178066.26963929
  -Hartree energ DENC   =   -241441.68835576
  -exchange      EXHF   =         0.00000000
  -V(xc)+E(xc)   XCENC  =       257.81125390
  PAW double counting   =     71953.81316158   -69918.88318727
  entropy T*S    EENTRO =         0.03644160
  eigenvalues    EBANDS =      -267.29637284
  atomic energy  EATOM  =     58341.73154849
  Solvation  Ediel_sol  =         0.00000000
  ---------------------------------------------------
  free energy    TOTEN  =      -468.96750615 eV

  energy without entropy =     -469.00394775  energy(sigma->0) =     -468.97965335


--------------------------------------------------------------------------------------------------------




--------------------------------------- Iteration      1(  19)  ---------------------------------------


    POTLOK:  cpu time    0.2631: real time    0.2637
    SETDIJ:  cpu time    0.0269: real time    0.0269
[...]
   -.208E+00 0.869E-01 -.131E+04   0.206E+00 -.844E-01 0.131E+04   0.457E-02 -.361E-02 0.786E+00   -.540E-05 -.127E-04 0.746E-04
   -.980E+00 0.462E+00 -.131E+04   0.999E+00 -.480E+00 0.131E+04   -.184E-01 0.181E-01 0.770E+00   0.223E-04 -.123E-05 0.533E-04
   -.899E+00 0.617E+00 -.131E+04   0.927E+00 -.622E+00 0.131E+04   -.286E-01 0.240E-02 0.770E+00   -.419E-05 -.566E-04 0.109E-03
   -.144E+00 0.918E-02 0.260E+04   0.147E+00 -.116E-01 -.259E+04   -.403E-02 0.350E-02 -.142E+01   0.503E-04 0.519E-04 -.290E-04
   -.365E-01 0.274E-01 0.259E+04   0.464E-01 -.387E-01 -.259E+04   -.123E-01 0.151E-01 -.141E+01   -.133E-04 0.514E-04 -.117E-04
   -.192E+00 -.344E-01 0.259E+04   0.200E+00 0.284E-01 -.259E+04   -.105E-01 0.567E-02 -.141E+01   0.191E-04 -.746E-05 -.289E-04
   -.158E+00 0.136E+00 0.132E+04   0.158E+00 -.126E+00 -.132E+04   -.507E-03 -.877E-02 -.749E+00   0.227E-04 -.216E-04 -.694E-04
   0.828E-01 -.357E+00 0.132E+04   -.823E-01 0.349E+00 -.132E+04   -.281E-02 0.788E-02 -.747E+00   -.378E-04 0.616E-04 0.381E-04
   0.174E+00 0.788E+00 -.131E+04   -.177E+00 -.786E+00 0.131E+04   0.519E-02 -.528E-02 0.763E+00   0.153E-04 -.296E-04 0.107E-03
   0.212E+00 0.989E+00 0.260E+04   -.202E+00 -.962E+00 -.259E+04   -.131E-01 -.278E-01 -.146E+01   0.156E-05 -.430E-04 0.103E-04
   -.113E+00 0.152E+00 0.132E+04   0.108E+00 -.147E+00 -.132E+04   0.311E-02 -.319E-02 -.747E+00   0.432E-04 -.287E-04 -.435E-04
   -.605E-02 0.337E+00 0.547E+01   0.620E-02 -.335E+00 -.545E+01   -.107E-02 -.276E-02 -.305E-01   -.187E-04 -.512E-04 0.448E-04
   0.624E+00 -.279E+00 -.131E+04   -.625E+00 0.280E+00 0.131E+04   0.163E-02 -.153E-02 0.759E+00   -.266E-04 0.434E-04 0.682E-04
   0.257E+01 0.140E+01 -.133E+04   -.262E+01 -.142E+01 0.133E+04   0.609E-01 0.269E-01 0.750E+00   -.121E-04 -.162E-04 0.302E-04
   -.144E+00 0.231E-01 -.131E+04   0.301E+00 0.691E-01 0.131E+04   -.157E+00 -.933E-01 0.619E+00   -.374E-04 -.107E-04 0.131E-03
   0.765E+00 -.476E+00 0.259E+04   -.734E+00 0.455E+00 -.259E+04   -.344E-01 0.240E-01 -.146E+01   -.169E-04 0.430E-04 0.218E-04
   0.198E+00 -.186E+00 0.259E+04   -.184E+00 0.181E+00 -.259E+04   -.150E-01 0.908E-02 -.141E+01   -.113E-04 -.380E-04 -.273E-04
   0.678E-02 0.992E-01 0.259E+04   -.125E-02 -.107E+00 -.259E+04   -.126E-01 0.727E-02 -.140E+01   -.558E-05 -.251E-04 -.224E-04
   0.169E+00 -.154E+00 0.132E+04   -.166E+00 0.152E+00 -.132E+04   -.186E-02 0.337E-02 -.744E+00   -.129E-04 0.416E-04 -.168E-04
   0.429E+00 0.969E-01 0.557E+01   -.437E+00 -.999E-01 -.557E+01   0.105E-01 0.339E-02 0.504E-02   -.360E-04 -.499E-05 0.368E-04
   0.130E+00 0.197E+00 0.132E+04   -.128E+00 -.197E+00 -.132E+04   -.380E-02 0.338E-02 -.740E+00   0.106E-04 -.116E-04 -.183E-04
   -.949E-01 0.617E-02 0.132E+04   0.832E-01 0.442E-03 -.132E+04   0.922E-02 -.504E-02 -.753E+00   0.306E-04 -.513E-04 -.727E-05
   -.172E+00 0.164E+00 -.131E+04   0.171E+00 -.343E+00 0.131E+04   0.436E-02 0.179E+00 0.621E+00   0.652E-05 0.250E-04 0.135E-04
   -.118E+00 -.492E-01 0.259E+04   0.122E+00 0.469E-01 -.259E+04   -.509E-02 0.675E-02 -.140E+01   -.508E-04 0.586E-04 0.509E-05
   -.655E-01 0.481E-01 0.132E+04   0.590E-01 -.551E-01 -.132E+04   0.429E-02 0.698E-02 -.752E+00   -.133E-05 0.897E-05 0.400E-04
   0.588E-01 0.149E+01 0.720E+01   -.593E-01 -.145E+01 -.724E+01   0.801E-03 -.435E-01 0.336E-01   0.313E-05 0.208E-04 -.361E-06
   -.206E+00 -.563E-01 -.259E+04   0.207E+00 0.638E-01 0.259E+04   0.844E-03 -.932E-02 0.136E+01   -.495E-05 0.219E-05 0.304E-04
   0.353E+01 0.509E+00 -.259E+04   -.351E+01 -.518E+00 0.259E+04   -.263E-01 0.798E-02 0.137E+01   -.358E-05 -.485E-04 0.151E-04
   0.132E+01 -.329E+01 -.259E+04   -.130E+01 0.328E+01 0.259E+04   -.194E-01 0.166E-01 0.137E+01   0.111E-04 0.422E-04 0.129E-04
   -.358E+01 0.597E+00 -.259E+04   0.354E+01 -.599E+00 0.259E+04   0.431E-01 -.759E-03 0.137E+01   0.610E-04 -.483E-04 0.110E-04
   -.120E+01 -.349E+01 -.259E+04   0.117E+01 0.347E+01 0.259E+04   0.298E-01 0.240E-01 0.137E+01   -.777E-05 0.784E-04 0.677E-05
   -.223E+01 0.286E+01 -.259E+04   0.222E+01 -.282E+01 0.259E+04   0.187E-01 -.386E-01 0.137E+01   0.386E-04 0.313E-04 0.176E-04
   -.957E-01 0.978E-01 -.259E+04   0.884E-01 -.926E-01 0.259E+04   0.111E-01 -.707E-02 0.139E+01   0.320E-04 0.599E-04 0.361E-05
   -.126E+00 0.115E+00 -.259E+04   0.108E+00 -.104E+00 0.259E+04   0.217E-01 -.130E-01 0.135E+01   0.190E-05 0.386E-04 0.242E-04
   -.619E-02 0.120E+00 -.259E+04   0.459E-02 -.127E+00 0.259E+04   0.393E-02 0.712E-02 0.136E+01   0.301E-04 -.569E-04 0.234E-04
   0.240E+01 0.293E+01 -.259E+04   -.239E+01 -.289E+01 0.259E+04   -.932E-03 -.468E-01 0.137E+01   -.401E-04 0.602E-04 0.156E-04
   -.463E-01 -.798E+01 -.258E+04   0.393E-01 0.877E+01 0.258E+04   0.110E-01 -.816E+00 0.870E+00   -.270E-04 -.337E-04 0.526E-05
   -.710E+01 0.407E+01 -.258E+04   0.778E+01 -.446E+01 0.258E+04   -.695E+00 0.400E+00 0.877E+00   -.601E-05 -.295E-04 0.928E-05
   -.439E+01 0.251E+01 -.259E+04   0.402E+01 -.230E+01 0.258E+04   0.368E+00 -.214E+00 0.151E+01   -.197E-04 -.640E-04 0.195E-04
   -.380E+00 -.501E+01 -.259E+04   0.369E+00 0.460E+01 0.258E+04   0.135E-01 0.414E+00 0.151E+01   -.298E-04 0.329E-04 0.257E-04
   0.366E-03 -.302E+01 -.133E+04   -.232E-02 0.307E+01 0.133E+04   0.257E-02 -.653E-01 0.750E+00   -.140E-04 0.196E-04 0.912E-04
   0.178E+00 0.981E-01 0.259E+04   -.170E+00 -.103E+00 -.259E+04   -.103E-01 0.277E-02 -.141E+01   -.228E-05 -.687E-04 -.375E-04
   0.238E+00 -.132E+01 -.131E+04   -.231E+00 0.136E+01 0.131E+04   -.742E-02 -.333E-01 0.770E+00   -.426E-04 0.283E-04 0.874E-04
   0.119E+00 -.538E+00 0.259E+04   -.111E+00 0.530E+00 -.259E+04   -.115E-01 0.919E-02 -.141E+01   0.300E-04 0.348E-04 -.170E-04
   -.113E+00 0.776E-01 0.132E+04   0.107E+00 -.751E-01 -.132E+04   0.344E-02 -.314E-02 -.746E+00   0.157E-04 -.745E-04 -.414E-07
   0.170E+00 0.195E+00 0.132E+04   -.161E+00 -.192E+00 -.132E+04   -.924E-02 -.115E-02 -.748E+00   -.277E-04 -.551E-04 -.300E-04
   -.589E+00 -.552E+00 -.131E+04   0.587E+00 0.553E+00 0.131E+04   0.568E-02 0.678E-03 0.762E+00   0.497E-04 0.392E-04 0.505E-04
   -.732E+00 -.640E+00 0.260E+04   0.712E+00 0.616E+00 -.259E+04   0.194E-01 0.252E-01 -.146E+01   -.319E-04 0.132E-04 0.271E-04
   -.718E-01 -.278E+00 0.132E+04   0.748E-01 0.268E+00 -.132E+04   -.403E-02 0.110E-01 -.750E+00   0.515E-05 0.684E-04 -.649E-05
   0.704E+01 0.391E+01 -.258E+04   -.772E+01 -.430E+01 0.258E+04   0.700E+00 0.400E+00 0.868E+00   -.499E-04 -.305E-04 0.117E-04
   -.170E+00 0.957E-01 -.539E+01   0.169E+00 -.937E-01 0.548E+01   0.160E-02 -.382E-02 -.740E-01   0.190E-04 0.220E-04 0.712E-04
   0.429E+01 0.273E+01 -.259E+04   -.394E+01 -.252E+01 0.258E+04   -.356E+00 -.217E+00 0.151E+01   0.184E-04 -.299E-04 0.104E-04
   0.339E+00 0.140E+00 0.132E+04   -.332E+00 -.137E+00 -.132E+04   -.787E-02 -.207E-02 -.748E+00   -.431E-04 -.171E-04 -.289E-04
   -.123E+00 0.166E+00 0.133E+04   0.124E+00 -.165E+00 -.133E+04   -.119E-02 -.130E-02 -.584E+00   -.228E-04 -.226E-04 -.288E-05
   -.428E+00 0.191E+00 0.546E+01   0.435E+00 -.194E+00 -.547E+01   -.691E-02 0.249E-02 0.550E-02   0.152E-04 0.382E-05 0.288E-04
   0.937E+00 0.891E+00 -.131E+04   -.970E+00 -.897E+00 0.131E+04   0.363E-01 0.465E-02 0.771E+00   0.147E-04 -.461E-04 0.624E-04
   -.264E+01 0.156E+01 -.133E+04   0.269E+01 -.158E+01 0.133E+04   -.528E-01 0.279E-01 0.752E+00   0.995E-06 -.261E-04 0.753E-04
   0.336E+00 0.751E-01 0.259E+04   -.329E+00 -.830E-01 -.259E+04   -.862E-02 0.884E-02 -.141E+01   0.339E-04 -.357E-04 -.187E-04
   0.134E-01 -.541E-01 0.259E+04   -.890E-02 0.488E-01 -.259E+04   -.956E-02 0.887E-02 -.141E+01   -.418E-04 -.100E-04 -.373E-04
   0.509E-01 -.690E-02 0.132E+04   -.491E-01 -.728E-02 -.132E+04   -.249E-02 0.124E-01 -.747E+00   -.112E-04 0.508E-04 0.292E-04
   0.412E-01 -.115E+00 0.132E+04   -.285E-01 0.120E+00 -.132E+04   -.119E-01 -.364E-02 -.750E+00   -.185E-04 -.312E-04 -.382E-04
   -.117E+01 -.763E+00 0.702E+01   0.114E+01 0.744E+00 -.706E+01   0.367E-01 0.173E-01 0.317E-01   -.454E-04 -.416E-04 0.302E-04
   -.956E-01 0.648E-02 -.131E+04   -.656E-01 0.868E-01 0.131E+04   0.164E+00 -.944E-01 0.616E+00   0.356E-04 -.252E-05 0.685E-04
   -.173E+00 0.515E-01 0.259E+04   0.178E+00 -.592E-01 -.259E+04   -.215E-02 0.919E-02 -.140E+01   0.632E-05 -.844E-04 -.686E-05
   -.292E+00 -.669E-01 0.552E+01   0.291E+00 0.659E-01 -.550E+01   0.221E-02 0.268E-02 -.279E-01   0.613E-04 0.259E-04 -.119E-04
   0.201E+00 0.149E+01 0.963E+00   -.234E+00 -.145E+01 -.988E+00   0.333E-01 -.423E-01 0.260E-01   -.142E-04 0.316E-04 0.353E-04
   0.146E+01 -.492E+00 0.849E+00   -.145E+01 0.444E+00 -.873E+00   -.154E-01 0.481E-01 0.244E-01   0.732E-05 -.104E-04 0.454E-04
   -.218E+00 0.128E+01 0.109E+01   0.248E+00 -.124E+01 -.111E+01   -.303E-01 -.419E-01 0.264E-01   0.351E-04 0.403E-04 0.268E-04
   0.151E+00 0.173E-01 0.537E+01   -.149E+00 -.163E-01 -.534E+01   -.221E-02 -.173E-02 -.296E-01   -.619E-04 0.424E-05 0.186E-04
   -.110E+00 0.849E-02 0.132E+04   0.120E+00 -.160E-01 -.132E+04   -.111E-01 0.795E-02 -.753E+00   0.215E-05 0.345E-04 -.346E-04
   0.644E-01 -.368E+00 0.559E+01   -.649E-01 0.378E+00 -.560E+01   0.360E-03 -.119E-01 0.658E-02   -.261E-05 0.900E-05 0.123E-04
   -.282E+00 -.114E+01 -.131E+04   0.273E+00 0.117E+01 0.131E+04   0.127E-01 -.332E-01 0.769E+00   0.194E-04 0.241E-04 0.702E-04
   0.131E+01 0.519E+00 -.131E+04   -.134E+01 -.537E+00 0.131E+04   0.275E-01 0.192E-01 0.773E+00   -.236E-04 0.206E-04 0.239E-04
   0.122E+00 -.341E+00 0.259E+04   -.113E+00 0.335E+00 -.259E+04   -.102E-01 0.680E-02 -.141E+01   0.189E-04 0.512E-05 -.118E-04
   0.485E+00 0.400E-01 0.259E+04   -.479E+00 -.484E-01 -.259E+04   -.972E-02 0.119E-01 -.141E+01   0.137E-04 0.543E-04 -.667E-05
   -.131E+01 -.535E+00 0.906E+00   0.129E+01 0.487E+00 -.931E+00   0.218E-01 0.494E-01 0.242E-01   -.752E-05 -.112E-04 0.572E-04
   0.119E+01 -.705E+00 0.679E+01   -.116E+01 0.687E+00 -.683E+01   -.320E-01 0.176E-01 0.280E-01   0.280E-04 -.281E-04 0.933E-05
   -.132E+00 -.246E+00 0.132E+04   0.133E+00 0.244E+00 -.132E+04   -.439E-02 0.102E-02 -.740E+00   0.457E-04 0.485E-04 -.611E-04
   0.112E+01 -.104E+01 0.933E+00   -.107E+01 0.105E+01 -.959E+00   -.495E-01 -.969E-02 0.264E-01   0.400E-04 0.145E-05 0.201E-04
   -.116E+01 -.869E+00 0.733E+00   0.111E+01 0.878E+00 -.756E+00   0.508E-01 -.938E-02 0.235E-01   -.227E-04 -.117E-04 0.404E-04
   -.282E-01 -.111E-01 -.303E+03   0.341E-01 0.917E-02 0.304E+03   -.271E-02 0.759E-05 -.133E+01   -.434E-05 -.521E-05 -.207E-05
 -----------------------------------------------------------------------------------------------
   0.120E-01 -.456E-02 0.313E+01   0.161E-12 -.205E-13 -.227E-11   0.130E-01 -.183E-01 -.315E+01   -.985E-06 -.204E-05 0.138E-02
 
 
 POSITION                                       TOTAL-FORCE (eV/Angst)
 -----------------------------------------------------------------------------------
     13.68547      8.44776      7.19041         0.002446     -0.000749     -0.004867
      5.26958      8.44780      7.18927         0.001598     -0.000105     -0.001333
      3.86640      6.01707      7.18926        -0.000083     -0.003585     -0.001490
     13.69613      8.43845      0.49648        -0.001464      0.001587      0.004906
      5.27993      8.43681      0.49908        -0.002295      0.004209      0.001373
      3.87781      6.00857      0.49897        -0.002485     -0.000449      0.002482
      8.08062      1.96422      2.77395        -0.001074      0.001529      0.001061
      9.48460      9.24897      2.77301        -0.002959     -0.000791     -0.000260
      2.46313      3.58789      7.18615         0.002170     -0.003094      0.000882
      2.47425      3.58226      0.49959        -0.003215     -0.000247      0.004135
     10.88447      1.96355      2.77315        -0.001737      0.002314     -0.000698
     13.68893      5.20611      4.98157        -0.001297     -0.002200     -0.002238
      3.86549      1.15885      7.18684        -0.000005      0.000440      0.000979
      9.47423      6.01608      7.21169         0.004414     -0.000410      0.000087
      5.27376      3.59085      7.19633         0.003345      0.000826      0.000489
      3.87945      1.14712      0.50053        -0.003175      0.002697      0.003138
      9.48806      6.00773      0.50165        -0.002029      0.003651      0.002893
      5.28036      3.57890      0.50013        -0.007121     -0.000069      0.002528
     12.29020      9.25112      2.77140         0.000201      0.000927      0.001338
     12.28560      7.63423      4.98077         0.000885     -0.000197     -0.001566
     13.69304      6.82250      2.77082        -0.001989      0.003183      0.002172
      9.48175      4.39330      2.77774        -0.002957      0.001967     -0.001877
      8.07428      8.44254      7.19596         0.002825     -0.003729      0.001239
      8.08495      8.43748      0.49992        -0.001645      0.004541      0.002986
     10.88533      6.82111      2.77415        -0.003417      0.000188     -0.000492
      2.46659      0.34864      4.97597         0.000035      0.001145     -0.003624
     15.08561      9.25963      9.46732         0.003235     -0.001185     -0.002565
      3.85520      4.39944      9.46315         0.004360     -0.000440      0.000300
      6.66528      9.26734      9.46350         0.003685     -0.003649     -0.002121
     12.28736      4.39989      9.46401         0.000189     -0.003042     -0.002377
      9.47730      9.26676      9.46412         0.000302     -0.003400     -0.001502
     10.88126      1.96447      9.46370         0.003224      0.000810      0.000125
      2.45927      1.97096      9.46100         0.003511     -0.001474     -0.002067
     12.27880      9.26020      9.46695         0.002198     -0.000879     -0.002162
     13.68307      6.82969      9.46683         0.002235     -0.001024     -0.002279
      5.26088      1.96493      9.46408         0.003966     -0.002632     -0.001174
      8.07115      6.88000      9.50430         0.003761     -0.001575      0.003265
      9.51653      4.37597      9.50435         0.002444     -0.001826      0.003233
      5.23930      6.84526      9.46279         0.001019     -0.001145     -0.001357
      8.07036      1.93944      9.46442         0.002388     -0.002240     -0.002829
      8.07463      3.59112      7.21184         0.000370     -0.003337      0.000778
      8.08558      3.57988      0.50170        -0.002843     -0.000973      0.002099
      6.67148      1.15837      7.18974        -0.001316     -0.001236     -0.001195
      6.68321      1.14881      0.49928        -0.003769      0.001600      0.002657
     12.28768      4.39395      2.77296        -0.003195     -0.000466      0.000127
      3.87471      4.39389      2.77299         0.000072      0.001390      0.000229
      1.06060      1.15809      7.18596         0.002971      0.000817      0.000151
      1.06792      1.14673      0.50001        -0.001843      0.001405      0.002541
      6.67791      9.24904      2.77322        -0.001179      0.000890     -0.000278
      6.62632      4.37560      9.50428         0.000330     -0.000759      0.002639
      8.07751      5.20558      4.99519         0.000632     -0.001383      0.002754
     10.90355      6.84596      9.46347         0.000869     -0.001306     -0.001374
      5.27812      1.96316      2.77325        -0.000867      0.001762     -0.001496
      2.46926      1.96309      2.76025        -0.000872      0.000260      0.004626
     15.09242      7.63468      4.98066         0.000303     -0.000369     -0.000947
     12.28249      6.01763      7.18968         0.002682     -0.001935      0.001155
      6.67475      6.01641      7.21138        -0.000337      0.000375      0.001774
     12.29348      6.00858      0.49931        -0.002454      0.000830      0.003447
      6.68363      6.00761      0.50224        -0.005214      0.003849      0.001969
      8.08148      6.81978      2.77710        -0.001059     -0.001483     -0.001044
      6.68027      4.39285      2.77762         0.000622      0.001871     -0.002333
      3.86699      2.77402      4.97625        -0.000968     -0.001979     -0.004406
     10.87496      3.59091      7.19667        -0.000192      0.000875     -0.000721
     10.88979      3.57893      0.50017         0.001107      0.002135      0.001211
     10.88256      0.34538      4.98142         0.001923      0.002824     -0.002056
      9.47883      7.63434      4.98552         0.000061      0.000239     -0.000218
     10.88175      5.20418      4.98586         0.001683     -0.000464     -0.001063
      6.67668      7.63370      4.98550         0.001135      0.000551     -0.001191
      5.27252      0.34587      4.98175        -0.002699      0.000373     -0.001813
      5.27689      6.82094      2.77431        -0.001037      0.000577     -0.000985
      8.07796      0.34658      4.98075        -0.000273     -0.000729     -0.000081
      9.47744      1.15881      7.18999         0.003337     -0.000269     -0.000150
     10.87952      8.44791      7.18917         0.001426      0.000782     -0.000133
      9.48766      1.14903      0.49978        -0.002114      0.001953      0.001729
     10.89112      8.43730      0.49921        -0.003714      0.003997      0.001054
      5.27373      5.20402      4.98587         0.000253      0.000690     -0.001283
     12.28811      2.77436      4.97648         0.001285     -0.000912     -0.004520
     15.09513      9.25115      2.77086        -0.003571     -0.000517      0.001856
      9.48051      2.77703      4.98569         0.000429     -0.000211     -0.000376
      6.67503      2.77756      4.98598        -0.000283      0.000059     -0.001017
      8.07032      5.21121     10.33364         0.002825     -0.001654     -0.004849
 -----------------------------------------------------------------------------------
    total drift:                                0.024980     -0.022882     -0.021586


--------------------------------------------------------------------------------------------------------



  FREE ENERGIE OF THE ION-ELECTRON SYSTEM (eV)
  ---------------------------------------------------
  free  energy   TOTEN  =      -517.93450833 eV

  energy  without entropy=     -517.97642389  energy(sigma->0) =     -517.94848018
 


--------------------------------------------------------------------------------------------------------


    POTLOK:  cpu time    0.2882: real time    0.2889


--------------------------------------------------------------------------------------------------------


 Quasi-Newton relaxation of ions (Broydens 2nd method)
  g(Force)  = 0.110E-05   g(Stress)= 0.000E+00

 Reset! Starting new Quasi-Newton update for ions 


--------------------------------------------------------------------------------------------------------


  
 reached required accuracy - stopping structural energy minimisation
     LOOP+:  cpu time 4425.9406: real time 4437.7480
    4ORBIT:  cpu time    0.0000: real time    0.0000

 total amount of memory used by VASP MPI-rank0   282512. kBytes
=======================================================================

   base      :      30000. kBytes
   nonlr-proj:      37951. kBytes
   fftplans  :      16090. kBytes
   grid      :      42471. kBytes
   one-center:        653. kBytes
   wavefun   :     155347. kBytes
 
  
  
 General timing and accounting informations for this job:
 ========================================================
  
                  Total CPU time used (sec):     4476.458
                            User time (sec):     4464.127
                          System time (sec):       12.332
                         Elapsed time (sec):     4489.671
  
                   Maximum memory used (kb):      737464.
                   Average memory used (kb):           0.
  
                          Minor page faults:      2302187
                          Major page faults:            0
                 Voluntary context switches:        27505
