 vasp.5.4.4.18Apr17-6-g9f103f2a35 (build Nov 30 2020 22:55:02) complex          
  
 executed on             LinuxIFC date 2023.08.04  09:57:22
 running on   40 total cores
 distrk:  each k-point on   40 cores,    1 groups
 distr:  one band on NCORES_PER_BAND=   1 cores,   40 groups


--------------------------------------------------------------------------------------------------------


 INCAR:
 POTCAR:    PAW_PBE Pt 04Feb2005                  
 POTCAR:    PAW_PBE H 15Jun2001                   

 ----------------------------------------------------------------------------- 
|                                                                             |
|           W    W    AA    RRRRR   N    N  II  N    N   GGGG   !!!           |
|           W    W   A  A   R    R  NN   N  II  NN   N  G    G  !!!           |
|           W    W  A    A  R    R  N N  N  II  N N  N  G       !!!           |
|           W WW W  AAAAAA  RRRRR   N  N N  II  N  N N  G  GGG   !            |
|           WW  WW  A    A  R   R   N   NN  II  N   NN  G    G                |
|           W    W  A    A  R    R  N    N  II  N    N   GGGG   !!!           |
|                                                                             |
|      For optimal performance we recommend to set                            |
|        NCORE= 4 - approx SQRT( number of cores)                             |
|      NCORE specifies how many cores store one orbital (NPAR=cpu/NCORE).     |
|      This setting can  greatly improve the performance of VASP for DFT.     |
|      The default,   NCORE=1            might be grossly inefficient         |
|      on modern multi-core architectures or massively parallel machines.     |
|      Do your own testing !!!!                                               |
|      Unfortunately you need to use the default for GW and RPA calculations. |
|      (for HF NCORE is supported but not extensively tested yet)             |
|                                                                             |
 ----------------------------------------------------------------------------- 

 POTCAR:    PAW_PBE Pt 04Feb2005                  
   VRHFIN =Pt: s1d9                                                             
   LEXCH  = PE                                                                  
   EATOM  =   729.1176 eV,   53.5886 Ry                                         
                                                                                
   TITEL  = PAW_PBE Pt 04Feb2005                                                
   LULTRA =        F    use ultrasoft PP ?                                      
   IUNSCR =        1    unscreen: 0-lin 1-nonlin 2-no                           
   RPACOR =    2.330    partial core radius                                     
   POMASS =  195.080; ZVAL   =   10.000    mass and valenz                      
   RCORE  =    2.600    outmost cutoff radius                                   
   RWIGS  =    2.750; RWIGS  =    1.455    wigner-seitz radius (au A)           
   ENMAX  =  230.283; ENMIN  =  172.712 eV                                      
   ICORE  =        3    local potential                                         
   LCOR   =        T    correct aug charges                                     
   LPAW   =        T    paw PP                                                  
   EAUG   =  358.966                                                            
   DEXC   =    0.000                                                            
   RMAX   =    2.658    core radius for proj-oper                               
   RAUG   =    1.300    factor for augmentation sphere                          
   RDEP   =    2.761    radius for radial grids                                 
   RDEPT  =    2.203    core radius for aug-charge                              
                                                                                
   Atomic configuration                                                         
   16 entries                                                                   
     n  l   j            E        occ.                                          
     1  0  0.50    -78401.1885   2.0000                                         
     2  0  0.50    -13770.7750   2.0000                                         
     2  1  1.50    -11931.0468   6.0000                                         
     3  0  0.50     -3234.7234   2.0000                                         
     3  1  1.50     -2699.2216   6.0000                                         
     3  2  2.50     -2119.5714  10.0000                                         
     4  0  0.50      -695.1528   2.0000                                         
     4  1  1.50      -519.6034   6.0000                                         
     4  2  2.50      -306.6786  10.0000                                         
     4  3  3.50       -70.1041  14.0000                                         
     5  0  0.50      -101.7747   2.0000                                         
     5  1  1.50       -55.9873   6.0000                                         
     5  2  2.50        -6.1423   9.0000                                         
     6  0  0.50        -5.6573   1.0000                                         
     6  1  1.50        -6.8029   0.0000                                         
     5  3  2.50        -1.3606   0.0000                                         
   Description                                                                  
     l       E           TYP  RCUT    TYP  RCUT                                 
     2     -6.1423404     23  2.500                                             
     2     -7.5029230     23  2.500                                             
     0     -5.6573207     23  2.500                                             
     0      0.7416693     23  2.500                                             
     1     -2.7211652     23  2.600                                             
     1     20.4087390     23  2.600                                             
     3     -1.3605826     23  2.500                                             
  local pseudopotential read in
  partial core-charges read in
  partial kinetic energy density read in
  atomic valenz-charges read in
  non local Contribution for L=           2  read in
    real space projection operators read in
  non local Contribution for L=           2  read in
    real space projection operators read in
  non local Contribution for L=           0  read in
    real space projection operators read in
  non local Contribution for L=           0  read in
    real space projection operators read in
  non local Contribution for L=           1  read in
    real space projection operators read in
  non local Contribution for L=           1  read in
    real space projection operators read in
    PAW grid and wavefunctions read in
 
   number of l-projection  operators is LMAX  =           6
   number of lm-projection operators is LMMAX =          18
 
 POTCAR:    PAW_PBE H 15Jun2001                   
   VRHFIN =H: ultrasoft test                                                    
   LEXCH  = PE                                                                  
   EATOM  =    12.4884 eV,    0.9179 Ry                                         
                                                                                
   TITEL  = PAW_PBE H 15Jun2001                                                 
   LULTRA =        F    use ultrasoft PP ?                                      
   IUNSCR =        0    unscreen: 0-lin 1-nonlin 2-no                           
   RPACOR =    0.000    partial core radius                                     
   POMASS =    1.000; ZVAL   =    1.000    mass and valenz                      
   RCORE  =    1.100    outmost cutoff radius                                   
   RWIGS  =    0.700; RWIGS  =    0.370    wigner-seitz radius (au A)           
   ENMAX  =  250.000; ENMIN  =  200.000 eV                                      
   RCLOC  =    0.701    cutoff for local pot                                    
   LCOR   =        T    correct aug charges                                     
   LPAW   =        T    paw PP                                                  
   EAUG   =  400.000                                                            
   RMAX   =    1.123    core radius for proj-oper                               
   RAUG   =    1.200    factor for augmentation sphere                          
   RDEP   =    1.112    radius for radial grids                                 
   RDEPT  =    0.926    core radius for aug-charge                              
                                                                                
   Atomic configuration                                                         
    2 entries                                                                   
     n  l   j            E        occ.                                          
     1  0  0.50        -6.4927   1.0000                                         
     2  1  0.50        -3.4015   0.0000                                         
   Description                                                                  
     l       E           TYP  RCUT    TYP  RCUT                                 
     0     -6.4927494     23  1.100                                             
     0      6.8029130     23  1.100                                             
     1     -4.0817478     23  1.100                                             
  local pseudopotential read in
  atomic valenz-charges read in
  non local Contribution for L=           0  read in
    real space projection operators read in
  non local Contribution for L=           0  read in
    real space projection operators read in
  non local Contribution for L=           1  read in
    real space projection operators read in
    PAW grid and wavefunctions read in
 
   number of l-projection  operators is LMAX  =           3
   number of lm-projection operators is LMMAX =           5
 
 Optimization of the real space projectors (new method)

 maximal supplied QI-value         = 14.36
 optimisation between [QCUT,QGAM] = [ 11.92, 23.98] = [ 39.79,161.09] Ry 
 Optimized for a Real-space Cutoff    1.49 Angstroem

   l    n(q)    QCUT    max X(q) W(low)/X(q) W(high)/X(q)  e(spline) 
   2     10    11.920    66.195    0.79E-04    0.18E-03    0.24E-06
   2     10    11.920    64.643    0.81E-04    0.19E-03    0.24E-06
   0     11    11.920    95.520    0.28E-04    0.54E-04    0.18E-06
   0     11    11.920    63.403    0.27E-04    0.52E-04    0.17E-06
   1     10    11.920    19.961    0.18E-04    0.11E-03    0.23E-06
   1     10    11.920    13.289    0.25E-04    0.87E-04    0.19E-06
 Optimization of the real space projectors (new method)

 maximal supplied QI-value         = 34.20
 optimisation between [QCUT,QGAM] = [ 11.97, 23.94] = [ 40.13,160.53] Ry 
 Optimized for a Real-space Cutoff    1.18 Angstroem

   l    n(q)    QCUT    max X(q) W(low)/X(q) W(high)/X(q)  e(spline) 
   0      8    11.971    19.460    0.15E-03    0.31E-03    0.25E-06
   0      8    11.971    12.209    0.13E-03    0.29E-03    0.25E-06
   1      8    11.971     4.655    0.22E-03    0.24E-03    0.21E-06
  PAW_PBE Pt 04Feb2005                  :
 energy of atom  1       EATOM= -729.1176
 kinetic energy error for atom=    0.0021 (will be added to EATOM!!)
  PAW_PBE H 15Jun2001                   :
 energy of atom  2       EATOM=  -12.4884
 kinetic energy error for atom=    0.0008 (will be added to EATOM!!)
 
 
 POSCAR: Pt111\(1\1\1)\(2)                       
  positions in cartesian coordinates
  No initial velocities read in
 exchange correlation table for  LEXCH =        8
   RHO(1)=    0.500       N(1)  =     2000
   RHO(2)=  100.500       N(2)  =     4000
 


--------------------------------------------------------------------------------------------------------


 ion  position               nearest neighbor table
   1  1.000  0.000  0.056-   5 2.64   9 2.64  13 2.64  29 2.64  57 2.64  37 2.64  42 2.87  14 2.87
                            54 2.87
   2  0.333  0.167  0.178-  30 2.64  26 2.64  38 2.64  42 2.64  14 2.64   6 2.64  11 2.83   7 2.85
                             9 2.87  21 2.87  13 2.87  15 2.91
   3  0.170  0.334  0.300-  15 2.60   7 2.60  43 2.60  39 2.63  27 2.65  31 2.67   8 2.79   6 2.86
                            14 2.88  10 2.89  48 2.95  12 3.19
   4  0.001  0.001  0.420-   8 2.63  16 2.63  12 2.63  32 2.64  40 2.64  60 2.65   7 2.86  27 2.89
                            63 2.89
   5  1.000  0.250  0.056-   1 2.64  45 2.64  33 2.64   9 2.64  29 2.64  25 2.64  14 2.87  10 2.87
                            18 2.87
   6  0.333  0.417  0.178-  26 2.64  62 2.64  10 2.64  34 2.64  14 2.64   2 2.64   3 2.86  43 2.86
                            45 2.87  49 2.87   9 2.87  15 2.91
   7  0.169  0.087  0.299-   3 2.60  15 2.61  27 2.63  11 2.63  35 2.67  63 2.67  16 2.80   2 2.85
                            14 2.86   4 2.86  42 2.88  12 3.20
   8  0.001  0.250  0.416-   4 2.63  32 2.64  48 2.65  28 2.65  36 2.66  12 2.66   3 2.79  27 2.83
                            31 2.83
   9  0.250  0.250  0.056-  21 2.64  13 2.64   1 2.64  49 2.64  45 2.64   5 2.64   2 2.87  14 2.87
                             6 2.87
  10  0.083  0.417  0.178-  34 2.64   6 2.64  46 2.64  14 2.64  18 2.64  22 2.64  31 2.82  39 2.86
                            33 2.87  45 2.87   5 2.87   3 2.89
  11  0.417  0.085  0.297-  19 2.62   7 2.63  15 2.63  35 2.65  23 2.65  47 2.66  16 2.83   2 2.83
                            30 2.84  38 2.85  20 2.86  24 2.93
  12  0.247  0.247  0.441-  65 1.94  66 1.96   4 2.63   8 2.66  16 2.66  24 2.70  48 2.70  52 2.71
                            15 3.19   3 3.19   7 3.20
  13  0.250  0.000  0.056-  21 2.64   9 2.64  17 2.64   1 2.64  37 2.64  41 2.64  38 2.87   2 2.87
                            42 2.87
  14  0.083  0.167  0.178-  42 2.64  54 2.64   6 2.64   2 2.64  10 2.64  18 2.64  27 2.82   7 2.86
                             5 2.87   1 2.87   9 2.87   3 2.88
  15  0.416  0.334  0.302-   3 2.60  43 2.60   7 2.61  55 2.62  11 2.63  19 2.63  24 2.89   6 2.91
                            26 2.91   2 2.91  52 3.15  12 3.19
  16  0.250  0.001  0.416-   4 2.63  40 2.64  24 2.64  44 2.64  20 2.65  12 2.66   7 2.80  11 2.83
                            35 2.84
  17  0.500  0.000  0.056-  29 2.64  25 2.64  13 2.64  21 2.64  41 2.64  53 2.64  58 2.87  30 2.87
                            38 2.87
  18  0.833  0.167  0.178-  54 2.64  58 2.64  22 2.64  10 2.64  30 2.64  14 2.64  31 2.83  27 2.83
                            23 2.84  25 2.87  29 2.87   5 2.87
  19  0.665  0.333  0.297-  11 2.62  15 2.63  55 2.63  23 2.65  59 2.65  31 2.66  64 2.83  26 2.83
                            30 2.84  22 2.85  28 2.86  24 2.93
  20  0.500  0.000  0.418-  24 2.63  44 2.64  28 2.64  32 2.64  56 2.65  16 2.65  23 2.86  11 2.86
                            47 2.87
  21  0.500  0.250  0.056-  25 2.64  61 2.64   9 2.64  13 2.64  49 2.64  17 2.64  30 2.87   2 2.87
                            26 2.87
  22  0.833  0.417  0.178-  50 2.64  26 2.64  30 2.64  18 2.64  46 2.64  10 2.64  59 2.82  31 2.83
                            19 2.85  61 2.87  25 2.87  33 2.87
  23  0.667  0.083  0.297-  31 2.64  47 2.64  19 2.65  11 2.65  51 2.65  27 2.65  18 2.84  58 2.84
                            30 2.84  32 2.85  20 2.86  28 2.86
  24  0.501  0.250  0.423-  66 1.71  28 2.63  20 2.63  64 2.64  16 2.64  52 2.69  12 2.70  15 2.89
                            19 2.93  11 2.93
  25  0.750  0.250  0.056-  17 2.64  21 2.64  29 2.64  61 2.64  33 2.64   5 2.64  18 2.87  22 2.87
                            30 2.87
  26  0.583  0.417  0.178-   6 2.64   2 2.64  22 2.64  30 2.64  62 2.64  50 2.64  19 2.83  55 2.86
                            49 2.87  61 2.87  21 2.87  15 2.91
  27  0.918  0.084  0.297-   7 2.63  63 2.63  31 2.64  23 2.65   3 2.65  51 2.65  14 2.82   8 2.83
                            54 2.83  18 2.83  32 2.86   4 2.89
  28  0.751  0.250  0.418-  24 2.63  36 2.64  20 2.64  32 2.64   8 2.65  64 2.65  23 2.86  19 2.86
                            31 2.87
  29  0.750  0.000  0.056-  17 2.64  25 2.64   5 2.64  53 2.64   1 2.64  57 2.64  54 2.87  18 2.87
                            58 2.87
  30  0.583  0.167  0.178-   2 2.64  38 2.64  58 2.64  26 2.64  22 2.64  18 2.64  11 2.84  23 2.84
                            19 2.84  21 2.87  17 2.87  25 2.87
  31  0.917  0.333  0.296-  59 2.64  39 2.64  23 2.64  27 2.64  19 2.66   3 2.67  10 2.82  18 2.83
                            22 2.83   8 2.83  28 2.87  36 2.88
  32  0.751  0.000  0.417-  60 2.64   4 2.64   8 2.64  28 2.64  56 2.64  20 2.64  23 2.85  27 2.86
                            51 2.86
  33  1.000  0.500  0.056-  37 2.64  41 2.64   5 2.64  45 2.64  25 2.64  61 2.64  10 2.87  46 2.87
                            22 2.87
  34  0.333  0.667  0.178-  62 2.64  10 2.64  58 2.64  46 2.64   6 2.64  38 2.64  47 2.82  39 2.85
                            41 2.87  45 2.87  53 2.87  43 2.89
  35  0.167  0.834  0.296-  47 2.64  11 2.65  63 2.65  59 2.65  39 2.67   7 2.67  38 2.82  46 2.83
                            42 2.83  40 2.84  16 2.84  44 2.87
  36  0.999  0.501  0.418-  48 2.63  28 2.64  64 2.64  40 2.64  44 2.65   8 2.66  39 2.85  59 2.87
                            31 2.88
  37  1.000  0.750  0.056-  33 2.64  41 2.64  61 2.64  57 2.64  13 2.64   1 2.64  46 2.87  50 2.87
                            42 2.87
  38  0.333  0.917  0.178-  58 2.64  30 2.64   2 2.64  42 2.64  34 2.64  46 2.64  35 2.82  47 2.83
                            11 2.85  13 2.87  17 2.87  41 2.87
  39  0.169  0.582  0.299-  43 2.63   3 2.63  47 2.64  31 2.64  59 2.67  35 2.67  36 2.85  44 2.85
                            34 2.85  10 2.86  46 2.88  48 2.93
  40  1.000  0.751  0.416-  60 2.64   4 2.64  16 2.64  64 2.64  44 2.64  36 2.64  63 2.82  35 2.84
                            59 2.84
  41  0.250  0.750  0.056-  45 2.64  33 2.64  37 2.64  53 2.64  17 2.64  13 2.64  34 2.87  46 2.87
                            38 2.87
  42  0.083  0.917  0.178-  14 2.64   2 2.64  38 2.64  46 2.64  50 2.64  54 2.64  35 2.83  63 2.84
                             1 2.87  13 2.87  37 2.87   7 2.88
  43  0.417  0.580  0.300-  15 2.60   3 2.60  55 2.60  39 2.63  51 2.65  47 2.67  56 2.79   6 2.86
                            62 2.88  34 2.89  48 2.95  52 3.16
  44  0.250  0.751  0.418-  48 2.63  20 2.64  40 2.64  16 2.64  36 2.65  56 2.65  39 2.85  35 2.87
                            47 2.88
  45  0.250  0.500  0.056-  41 2.64  53 2.64   5 2.64   9 2.64  49 2.64  33 2.64   6 2.87  10 2.87
                            34 2.87
  46  0.083  0.667  0.178-  34 2.64  50 2.64  10 2.64  42 2.64  22 2.64  38 2.64  59 2.82  35 2.83
                            37 2.87  33 2.87  41 2.87  39 2.88
  47  0.417  0.833  0.296-  35 2.64  39 2.64  23 2.64  51 2.64  11 2.66  43 2.67  58 2.82  34 2.82
                            38 2.83  56 2.83  20 2.87  44 2.88
  48  0.249  0.502  0.425-  65 1.72  44 2.63  36 2.63  56 2.65   8 2.65  52 2.70  12 2.70  39 2.93
                            43 2.95   3 2.95
  49  0.500  0.500  0.056-  61 2.64  53 2.64  57 2.64  21 2.64   9 2.64  45 2.64  26 2.87   6 2.87
                            62 2.87
  50  0.833  0.667  0.178-  22 2.64  46 2.64  26 2.64  42 2.64  54 2.64  62 2.64  59 2.83  63 2.84
                            57 2.87  61 2.87  37 2.87  55 2.88
  51  0.667  0.832  0.297-  55 2.63  63 2.63  47 2.64  23 2.65  43 2.65  27 2.65  62 2.82  56 2.82
                            54 2.83  58 2.83  32 2.86  60 2.89
  52  0.504  0.504  0.439-  65 2.00  66 2.01  60 2.63  56 2.65  64 2.65  24 2.69  48 2.70  12 2.71
                            15 3.15  43 3.16  55 3.16
  53  0.500  0.750  0.056-  49 2.64  57 2.64  45 2.64  41 2.64  29 2.64  17 2.64  62 2.87  34 2.87
                            58 2.87
  54  0.833  0.917  0.178-  18 2.64  14 2.64  50 2.64  58 2.64  42 2.64  62 2.64  51 2.83  27 2.83
                            63 2.84  29 2.87   1 2.87  57 2.87
  55  0.664  0.582  0.299-  43 2.60  15 2.62  51 2.63  19 2.63  63 2.67  59 2.67  64 2.80  26 2.86
                            62 2.86  60 2.87  50 2.88  52 3.16
  56  0.501  0.750  0.416-  60 2.63  32 2.64  48 2.65  20 2.65  52 2.65  44 2.65  43 2.79  51 2.82
                            47 2.83
  57  0.750  0.750  0.056-  61 2.64  49 2.64  53 2.64  37 2.64   1 2.64  29 2.64  50 2.87  62 2.87
                            54 2.87
  58  0.583  0.917  0.178-  38 2.64  30 2.64  18 2.64  34 2.64  62 2.64  54 2.64  47 2.82  51 2.83
                            23 2.84  17 2.87  29 2.87  53 2.87
  59  0.917  0.583  0.296-  31 2.64  63 2.65  35 2.65  19 2.65  39 2.67  55 2.67  22 2.82  46 2.82
                            50 2.83  64 2.84  40 2.84  36 2.87
  60  0.750  0.750  0.420-  52 2.63  56 2.63  64 2.63  32 2.64  40 2.64   4 2.65  55 2.87  51 2.89
                            63 2.89
  61  0.750  0.500  0.056-  49 2.64  57 2.64  21 2.64  25 2.64  37 2.64  33 2.64  22 2.87  26 2.87
                            50 2.87
  62  0.583  0.667  0.178-  34 2.64   6 2.64  26 2.64  58 2.64  54 2.64  50 2.64  51 2.82  55 2.86
                            53 2.87  49 2.87  57 2.87  43 2.88
  63  0.917  0.834  0.297-  51 2.63  27 2.63  59 2.65  35 2.65  55 2.67   7 2.67  40 2.82  54 2.84
                            42 2.84  50 2.84   4 2.89  60 2.89
  64  0.750  0.501  0.416-  60 2.63  36 2.64  40 2.64  24 2.64  52 2.65  28 2.65  55 2.80  19 2.83
                            59 2.84
  65  0.313  0.432  0.486-  48 1.72  12 1.94  52 2.00
  66  0.435  0.313  0.485-  24 1.71  12 1.96  52 2.01
 
  LATTYP: Found a hexagonal cell.
 ALAT       =    10.5600004196
 C/A-ratio  =     1.8939393187
  
  Lattice vectors:
  
 A1 = (  10.5600004196,   0.0000000000,   0.0000000000)
 A2 = (  -5.2800002098,   9.1452286274,   0.0000000000)
 A3 = (   0.0000000000,   0.0000000000,  20.0000000000)


Analysis of symmetry for initial positions (statically):
=====================================================================
 Subroutine PRICEL returns:
 Original cell was already a primitive cell.
 

 Routine SETGRP: Setting up the symmetry group for a 
 hexagonal supercell.


 Subroutine GETGRP returns: Found  1 space group operations
 (whereof  1 operations were pure point group operations)
 out of a pool of 24 trial point group operations.


The static configuration has the point symmetry C_1 .


Analysis of symmetry for dynamics (positions and initial velocities):
=====================================================================
 Subroutine PRICEL returns:
 Original cell was already a primitive cell.
 

 Routine SETGRP: Setting up the symmetry group for a 
 hexagonal supercell.


 Subroutine GETGRP returns: Found  1 space group operations
 (whereof  1 operations were pure point group operations)
 out of a pool of 24 trial point group operations.


The dynamic configuration has the point symmetry C_1 .


Analysis of constrained symmetry for selective dynamics:
=====================================================================
 Subroutine PRICEL returns:
 Original cell was already a primitive cell.
 

 Routine SETGRP: Setting up the symmetry group for a 
 hexagonal supercell.


 Subroutine GETGRP returns: Found  1 space group operations
 (whereof  1 operations were pure point group operations)
 out of a pool of 24 trial point group operations.


The constrained configuration has the point symmetry C_1 .


Analysis of structural, dynamic, and magnetic symmetry:
=====================================================================
 Subroutine PRICEL returns:
 Original cell was already a primitive cell.
 

 Routine SETGRP: Setting up the symmetry group for a 
 hexagonal supercell.


 Subroutine GETGRP returns: Found  1 space group operations
 (whereof  1 operations were pure point group operations)
 out of a pool of 24 trial point group operations.


The magnetic configuration has the point symmetry C_1 .


 Subroutine INISYM returns: Found  1 space group operations
 (whereof  1 operations are pure point group operations),
 and found     1 'primitive' translations

 
 
 KPOINTS: mesh auto                               

Automatic generation of k-mesh.
Space group operators:
 irot       det(A)        alpha          n_x          n_y          n_z        tau_x        tau_y        tau_z
    1     1.000000     0.000000     1.000000     0.000000     0.000000     0.000000     0.000000     0.000000
 
 Subroutine IBZKPT returns following result:
 ===========================================
 
 Found      4 irreducible k-points:
 
 Following reciprocal coordinates:
            Coordinates               Weight
  0.000000  0.000000  0.000000      1.000000
  0.500000 -0.000000  0.000000      1.000000
  0.000000  0.500000  0.000000      1.000000
  0.500000  0.500000  0.000000      1.000000
 
 Following cartesian coordinates:
            Coordinates               Weight
  0.000000  0.000000  0.000000      1.000000
  0.047348  0.027337  0.000000      1.000000
  0.000000  0.054673  0.000000      1.000000
  0.047348  0.082010  0.000000      1.000000
 
 TETIRR: Found     12 inequivalent tetrahedra from       24
 
 Subroutine IBZKPT_HF returns following result:
 ==============================================
 
 Found      4 k-points in 1st BZ
 the following      4 k-points will be used (e.g. in the exchange kernel)
 Following reciprocal coordinates:   # in IRBZ
  0.000000  0.000000  0.000000    0.25000000   1 t-inv F
  0.500000 -0.000000  0.000000    0.25000000   2 t-inv F
  0.000000  0.500000  0.000000    0.25000000   3 t-inv F
  0.500000  0.500000  0.000000    0.25000000   4 t-inv F


--------------------------------------------------------------------------------------------------------




 Dimension of arrays:
   k-points           NKPTS =      4   k-points in BZ     NKDIM =      4   number of bands    NBANDS=    440
   number of dos      NEDOS =    301   number of ions     NIONS =     66
   non local maximal  LDIM  =      6   non local SUM 2l+1 LMDIM =     18
   total plane-waves  NPLWV = ******
   max r-space proj   IRMAX =   8171   max aug-charges    IRDMAX=  35597
   dimension x,y,z NGX =    84 NGY =   84 NGZ =  160
   dimension x,y,z NGXF=   168 NGYF=  168 NGZF=  320
   support grid    NGXF=   168 NGYF=  168 NGZF=  320
   ions per type =              64   2
   NGX,Y,Z   is equivalent  to a cutoff of  13.22, 13.22, 13.30 a.u.
   NGXF,Y,Z  is equivalent  to a cutoff of  26.45, 26.45, 26.60 a.u.

 SYSTEM =  Pt111                                   
 POSCAR =  Pt111\(1\1\1)\(2)                       

 Startparameter for this run:
   NWRITE =      2    write-flag & timer
   PREC   = accura    normal or accurate (medium, high low for compatibility)
   ISTART =      0    job   : 0-new  1-cont  2-samecut
   ICHARG =      2    charge: 1-file 2-atom 10-const
   ISPIN  =      2    spin polarized calculation?
   LNONCOLLINEAR =      F non collinear calculations
   LSORBIT =      F    spin-orbit coupling
   INIWAV =      1    electr: 0-lowe 1-rand  2-diag
   LASPH  =      F    aspherical Exc in radial PAW
   METAGGA=      F    non-selfconsistent MetaGGA calc.

 Electronic Relaxation 1
   ENCUT  =  550.0 eV  40.42 Ry    6.36 a.u.  20.19 20.19 38.24*2*pi/ulx,y,z
   ENINI  =  550.0     initial cutoff
   ENAUG  =  400.0 eV  augmentation charge cutoff
   NELM   =    200;   NELMIN=  2; NELMDL= -5     # of ELM steps 
   EDIFF  = 0.1E-04   stopping-criterion for ELM
   LREAL  =      T    real-space projection
   NLSPLINE    = F    spline interpolate recip. space projectors
   LCOMPAT=      F    compatible to vasp.4.4
   GGA_COMPAT  = T    GGA compatible to vasp.4.4-vasp.4.6
   LMAXPAW     = -100 max onsite density
   LMAXMIX     =    2 max onsite mixed and CHGCAR
   VOSKOWN=      0    Vosko Wilk Nusair interpolation
   ROPT   =   -0.00025  -0.00025
 Ionic relaxation
   EDIFFG = -.5E-01   stopping-criterion for IOM
   NSW    =    829    number of steps for IOM
   NBLOCK =      1;   KBLOCK =    829    inner block; outer block 
   IBRION =      5    ionic relax: 0-MD 1-quasi-New 2-CG
   NFREE  =      2    steps in history (QN), initial steepest desc. (CG)
   ISIF   =      2    stress and relaxation
   IWAVPR =     11    prediction:  0-non 1-charg 2-wave 3-comb
   ISYM   =      2    0-nonsym 1-usesym 2-fastsym
   LCORR  =      T    Harris-Foulkes like correction to forces

   POTIM  = 0.5000    time-step for ionic-motion
   TEIN   =    0.0    initial temperature
   TEBEG  =    0.0;   TEEND  =   0.0 temperature during run
   SMASS  =  -3.00    Nose mass-parameter (am)
   estimated Nose-frequenzy (Omega)   =  0.10E-29 period in steps =****** mass=  -0.255E-26a.u.
   SCALEE = 1.0000    scale energy and forces
   NPACO  =    256;   APACO  = 16.0  distance and # of slots for P.C.
   PSTRESS=    0.0 pullay stress

  Mass of Ions in am
   POMASS = 195.08  1.00
  Ionic Valenz
   ZVAL   =  10.00  1.00
  Atomic Wigner-Seitz radii
   RWIGS  =  -1.00 -1.00
  virtual crystal weights 
   VCA    =   1.00  1.00
   NELECT =     642.0000    total number of electrons
   NUPDOWN=      -1.0000    fix difference up-down

 DOS related values:
   EMIN   =  10.00;   EMAX   =-10.00  energy-range for DOS
   EFERMI =   0.00
   ISMEAR =    -5;   SIGMA  =   0.10  broadening in eV -4-tet -1-fermi 0-gaus

 Electronic relaxation 2 (details)
   IALGO  =     68    algorithm
   LDIAG  =      T    sub-space diagonalisation (order eigenvalues)
   LSUBROT=      F    optimize rotation matrix (better conditioning)
   TURBO    =      0    0=normal 1=particle mesh
   IRESTART =      0    0=no restart 2=restart with 2 vectors
   NREBOOT  =      0    no. of reboots
   NMIN     =      0    reboot dimension
   EREF     =   0.00    reference energy to select bands
   IMIX   =      4    mixing-type and parameters
     AMIX     =   0.40;   BMIX     =  1.00
     AMIX_MAG =   1.60;   BMIX_MAG =  1.00
     AMIN     =   0.10
     WC   =   100.;   INIMIX=   1;  MIXPRE=   1;  MAXMIX= -45

 Intra band minimization:
   WEIMIN = 0.0010     energy-eigenvalue tresh-hold
   EBREAK =  0.57E-08  absolut break condition
   DEPER  =   0.30     relativ break condition  

   TIME   =   0.40     timestep for ELM

  volume/ion in A,a.u.               =      29.26       197.49
  Fermi-wavevector in a.u.,A,eV,Ry     =   1.134028  2.143002 17.497349  1.286019
  Thomas-Fermi vector in A             =   2.270731
 
 Write flags
   LWAVE        =      F    write WAVECAR
   LDOWNSAMPLE  =      F    k-point downsampling of WAVECAR
   LCHARG       =      F    write CHGCAR
   LVTOT        =      F    write LOCPOT, total local potential
   LVHAR        =      F    write LOCPOT, Hartree potential only
   LELF         =      F    write electronic localiz. function (ELF)
   LORBIT       =      0    0 simple, 1 ext, 2 COOP (PROOUT), +10 PAW based schemes


 Dipole corrections
   LMONO  =      F    monopole corrections only (constant potential shift)
   LDIPOL =      F    correct potential (dipole corrections)
   IDIPOL =      0    1-x, 2-y, 3-z, 4-all directions 
   EPSILON=  1.0000000 bulk dielectric constant

 Exchange correlation treatment:
   GGA     =    --    GGA type
   LEXCH   =     8    internal setting for exchange type
   VOSKOWN=      0    Vosko Wilk Nusair interpolation
   LHFCALC =     F    Hartree Fock is set to
   LHFONE  =     F    Hartree Fock one center treatment
   AEXX    =    0.0000 exact exchange contribution

 Linear response parameters
   LEPSILON=     F    determine dielectric tensor
   LRPA    =     F    only Hartree local field effects (RPA)
   LNABLA  =     F    use nabla operator in PAW spheres
   LVEL    =     F    velocity operator in full k-point grid
   LINTERFAST=   F  fast interpolation
   KINTER  =     0    interpolate to denser k-point grid
   CSHIFT  =0.1000    complex shift for real part using Kramers Kronig
   OMEGAMAX=  -1.0    maximum frequency
   DEG_THRESHOLD= 0.2000000E-02 threshold for treating states as degnerate
   RTIME   =   -0.100 relaxation time in fs
  (WPLASMAI=    0.000 imaginary part of plasma frequency in eV, 0.658/RTIME)
   DFIELD  = 0.0000000 0.0000000 0.0000000 field for delta impulse in time
 
 Orbital magnetization related:
   ORBITALMAG=     F  switch on orbital magnetization
   LCHIMAG   =     F  perturbation theory with respect to B field
   DQ        =  0.001000  dq finite difference perturbation B field
   LLRAUG    =     F  two centre corrections for induced B field



--------------------------------------------------------------------------------------------------------


 finite differences
   using selective dynamics as specified on POSCAR
   WARNING: If single coordinates had been selected the selection of coordinates
            is made according to the corresponding   d i r e c t   coordinates!
            Don't support selection of single cartesian coordinates -- sorry ...
  !
 charge density and potential will be updated during run
 spin polarized calculation
 RMM-DIIS sequential band-by-band and
  variant of blocked Davidson during initial phase
 perform sub-space diagonalisation
    before iterative eigenvector-optimisation
 modified Broyden-mixing scheme, WC =      100.0
 initial mixing is a Kerker type mixing with AMIX =  0.4000 and BMIX =      1.0000
 Hartree-type preconditioning will be used
 using additional bands          119
 real space projection scheme for non local part
 use partial core corrections
 calculate Harris-corrections to forces 
   (improved forces if not selfconsistent)
 use gradient corrections 
 use of overlap-Matrix (Vanderbilt PP)
 Fermi weights with tetrahedron method with Bloechl corrections


--------------------------------------------------------------------------------------------------------


  energy-cutoff  :      550.00
  volume of cell :     1931.47
      direct lattice vectors                 reciprocal lattice vectors
    10.560000420  0.000000000  0.000000000     0.094696966  0.054673319  0.000000000
    -5.280000210  9.145228627  0.000000000     0.000000000  0.109346638  0.000000000
     0.000000000  0.000000000 20.000000000     0.000000000  0.000000000  0.050000000

  length of vectors
    10.560000420 10.560000420 20.000000000     0.109346638  0.109346638  0.050000000


 
 k-points in units of 2pi/SCALE and weight: mesh auto                               
   0.00000000  0.00000000  0.00000000       0.250
   0.04734848  0.02733666  0.00000000       0.250
   0.00000000  0.05467332  0.00000000       0.250
   0.04734848  0.08200998  0.00000000       0.250
 
 k-points in reciprocal lattice and weights: mesh auto                               
   0.00000000  0.00000000  0.00000000       0.250
   0.50000000 -0.00000000  0.00000000       0.250
   0.00000000  0.50000000  0.00000000       0.250
   0.50000000  0.50000000  0.00000000       0.250
 
 position of ions in fractional coordinates (direct lattice) 
   0.99999844  0.00000156  0.05579229
   0.33333173  0.16666826  0.17752397
   0.17009164  0.33383018  0.29962351
   0.00082884  0.00107334  0.41960846
   0.99999844  0.25000155  0.05579229
   0.33333172  0.41666827  0.17752397
   0.16860571  0.08666855  0.29869397
   0.00114247  0.25002678  0.41564392
   0.24999844  0.25000155  0.05579229
   0.08333172  0.41666827  0.17752397
   0.41715959  0.08518803  0.29729985
   0.24691175  0.24727864  0.44066921
   0.24999844  0.00000156  0.05579229
   0.08333172  0.16666826  0.17752397
   0.41636170  0.33398540  0.30152386
   0.24982262  0.00137236  0.41610547
   0.49999844  0.00000156  0.05579229
   0.83333168  0.16666826  0.17752397
   0.66514257  0.33310890  0.29732692
   0.50049155  0.00018733  0.41801742
   0.49999843  0.25000155  0.05579229
   0.83333168  0.41666827  0.17752397
   0.66701588  0.08339181  0.29716596
   0.50131865  0.24961528  0.42331051
   0.74999841  0.25000155  0.05579229
   0.58333168  0.41666827  0.17752397
   0.91822190  0.08354922  0.29657028
   0.75052753  0.25019681  0.41808594
   0.74999842  0.00000156  0.05579229
   0.58333166  0.16666826  0.17752397
   0.91730792  0.33346034  0.29642564
   0.75075095  0.00012191  0.41726004
   0.99999844  0.50000154  0.05579229
   0.33333171  0.66666826  0.17752397
   0.16744789  0.83366066  0.29645198
   0.99943190  0.50054012  0.41829216
   0.99999843  0.75000151  0.05579229
   0.33333173  0.91666828  0.17752397
   0.16856844  0.58187077  0.29866882
   0.99993522  0.75099717  0.41602726
   0.24999843  0.75000151  0.05579229
   0.08333173  0.91666828  0.17752397
   0.41652621  0.58028553  0.29962232
   0.25019952  0.75125313  0.41833998
   0.24999844  0.50000154  0.05579229
   0.08333171  0.66666826  0.17752397
   0.41693917  0.83310451  0.29641099
   0.24876418  0.50210578  0.42544837
   0.49999844  0.50000154  0.05579229
   0.83333171  0.66666826  0.17752397
   0.66689318  0.83225406  0.29664169
   0.50379743  0.50412623  0.43856409
   0.49999843  0.75000151  0.05579229
   0.83333170  0.91666828  0.17752397
   0.66374834  0.58183616  0.29866542
   0.50073753  0.74977245  0.41568003
   0.74999841  0.75000151  0.05579229
   0.58333168  0.91666828  0.17752397
   0.91677104  0.58296456  0.29643801
   0.74991592  0.75016279  0.41986378
   0.74999839  0.50000154  0.05579229
   0.58333166  0.66666826  0.17752397
   0.91675580  0.83361158  0.29710389
   0.74963469  0.50098475  0.41610413
   0.31252633  0.43248412  0.48573571
   0.43460875  0.31252901  0.48525275
 
 position of ions in cartesian coordinates  (Angst):
  10.55997578  0.00001422  1.11584590
   2.63997474  1.52421935  3.55047947
   0.03354436  3.05295328  5.99247029
   0.00308530  0.00981593  8.39216926
   9.23997574  2.28632132  1.11584590
   1.31997457  3.81052657  3.55047947
   1.32286639  0.79260370  5.97387941
  -1.30807703  2.28655211  8.31287844
   1.31997542  2.28632132  1.11584590
  -1.32002553  3.81052657  3.55047947
   3.95541260  0.77906400  5.94599707
   1.30175688  2.26141967  8.81338413
   2.63997547  0.00001422  1.11584590
  -0.00002541  1.52421935  3.55047947
   2.63333672  3.05437285  6.03047716
   2.63088091  0.01255054  8.32210935
   5.27997557  0.00001422  1.11584590
   7.91997448  1.52421935  3.55047947
   5.26509074  3.04635708  5.94653834
   5.28420191  0.00171315  8.36034845
   3.95997540  2.28632132  1.11584590
   6.59997431  3.81052657  3.55047947
   6.60337913  0.76263719  5.94331928
   3.97595647  2.28278881  8.46621029
   6.59997527  2.28632132  1.11584590
   3.95997420  3.81052657  3.55047947
   9.25528374  0.76407668  5.93140569
   6.60453182  2.28810700  8.36171882
   7.91997543  0.00001422  1.11584590
   5.27997414  1.52421935  3.55047947
   7.92610131  3.04957106  5.92851278
   7.92728669  0.00111487  8.34520071
   7.91997567  4.57262842  1.11584590
  -0.00002559  6.09683366  3.55047947
  -2.63347866  7.62401735  5.92903967
   7.91114930  4.57755387  8.36584322
   6.59997574  6.85893527  1.11584590
  -1.32002553  8.38314100  3.55047947
  -1.29219502  5.32134124  5.97337640
   6.59405113  6.86804083  8.32054528
  -1.32002457  6.85893527  1.11584590
  -3.96002563  8.38314100  3.55047947
   1.33460926  5.30684386  5.99244638
  -1.32450972  6.87038166  8.36679953
  -0.00002464  4.57262842  1.11584590
  -2.64002570  6.09683366  3.55047947
   0.00408584  7.61893121  5.92821980
  -0.02416875  4.59187219  8.50896731
   2.63997546  4.57262842  1.11584590
   5.27997462  6.09683366  3.55047947
   2.64809065  7.61115370  5.93283381
   2.65831453  4.61034961  8.77128180
   1.31997553  6.85893527  1.11584590
   3.95997444  8.38314100  3.55047947
   3.93708766  5.32102469  5.97330836
   1.32898981  6.85684044  8.31360061
   3.95997540  6.85893527  1.11584590
   1.31997410  8.38314100  3.55047947
   6.60304954  5.33134414  5.92876022
   3.95825277  6.86041020  8.39727563
   5.27997509  4.57262842  1.11584590
   2.63997404  6.09683366  3.55047947
   5.27947235  7.62356849  5.94207776
   5.27094311  4.58162004  8.32208263
   1.01676192  3.95516616  9.71471414
   2.93931534  2.85814922  9.70505500
 


--------------------------------------------------------------------------------------------------------


 k-point  1 :   0.0000 0.0000 0.0000  plane waves:   56579
 k-point  2 :   0.5000-0.0000 0.0000  plane waves:   56606
 k-point  3 :   0.0000 0.5000 0.0000  plane waves:   56606
 k-point  4 :   0.5000 0.5000 0.0000  plane waves:   56606

 maximum and minimum number of plane-waves per node :     56606    56579

 maximum number of plane-waves:     56606
 maximum index in each direction: 
   IXMAX=   20   IYMAX=   20   IZMAX=   38
   IXMIN=  -20   IYMIN=  -20   IZMIN=  -38


 serial   3D FFT for wavefunctions
 parallel 3D FFT for charge:
    minimum data exchange during FFTs selected (reduces bandwidth)


 total amount of memory used by VASP MPI-rank0   328556. kBytes
=======================================================================

   base      :      30000. kBytes
   nonlr-proj:      89578. kBytes
   fftplans  :      13334. kBytes
   grid      :     112154. kBytes
   one-center:       2052. kBytes
   wavefun   :      81438. kBytes
 
     INWAV:  cpu time    0.0001: real time    0.0001
 Broyden mixing: mesh for mixing (old mesh)
   NGX = 41   NGY = 41   NGZ = 77
  (NGX  =168   NGY  =168   NGZ  =320)
  gives a total of 129437 points

 initial charge density was supplied:
 charge density of overlapping atoms calculated
 number of electron     642.0000000 magnetization      66.0000000
 keeping initial charge density in first step


--------------------------------------------------------------------------------------------------------


 Maximum index for non-local projection operator         7922
 Maximum index for augmentation-charges         2181 (set IRDMAX)


--------------------------------------------------------------------------------------------------------


 First call to EWALD:  gamma=   0.142
 Maximum number of real-space cells 4x 4x 2
 Maximum number of reciprocal cells 2x 2x 4

    FEWALD:  cpu time    0.0042: real time    0.0042


--------------------------------------- Iteration      1(   1)  ---------------------------------------


    POTLOK:  cpu time    0.5317: real time    0.5389
    SETDIJ:  cpu time    0.0443: real time    0.0447
     EDDAV:  cpu time   48.9271: real time   49.0784
 BZINTS: Fermi energy: 14.501614;642.000000 electrons
         Band energy:4723.873086;  BLOECHL correction: -0.017039
       DOS:  cpu time    0.0162: real time    0.0166
    --------------------------------------------
      LOOP:  cpu time   49.5193: real time   49.6786

 eigenvalue-minimisations  :  7040
 total energy-change (2. order) : 0.4383296E+04  (-0.3126816E+05)
 number of electron     642.0000000 magnetization      66.0000000
 augmentation part      642.0000000 magnetization      66.0000000

 Free energy of the ion-electron system (eV)
  ---------------------------------------------------
  alpha Z        PSCENC =      2023.78361127
  Ewald energy   TEWEN  =    124415.42098278
  -Hartree energ DENC   =   -175525.85057173
  -exchange      EXHF   =         0.00000000
  -V(xc)+E(xc)   XCENC  =       247.85494559
  PAW double counting   =     44550.55032729   -42740.70693553
  entropy T*S    EENTRO =         0.00000000
  eigenvalues    EBANDS =      4723.87308574
  atomic energy  EATOM  =     46688.37031544
  Solvation  Ediel_sol  =         0.00000000
  ---------------------------------------------------
  free energy    TOTEN  =      4383.29576085 eV

  energy without entropy =     4383.29576085  energy(sigma->0) =     4383.29576085


--------------------------------------------------------------------------------------------------------




--------------------------------------- Iteration      1(   2)  ---------------------------------------


     EDDAV:  cpu time   52.4620: real time   52.6143
 BZINTS: Fermi energy:  4.318462;642.000000 electrons
         Band energy: 169.441447;  BLOECHL correction: -0.112216
       DOS:  cpu time    0.0178: real time    0.0218
    --------------------------------------------
      LOOP:  cpu time   52.4798: real time   52.6361

 eigenvalue-minimisations  :  7680
 total energy-change (2. order) :-0.4554432E+04  (-0.4172990E+04)
 number of electron     642.0000000 magnetization      66.0000000
 augmentation part      642.0000000 magnetization      66.0000000

 Free energy of the ion-electron system (eV)
  ---------------------------------------------------
  alpha Z        PSCENC =      2023.78361127
  Ewald energy   TEWEN  =    124415.42098278
  -Hartree energ DENC   =   -175525.85057173
  -exchange      EXHF   =         0.00000000
  -V(xc)+E(xc)   XCENC  =       247.85494559
  PAW double counting   =     44550.55032729   -42740.70693553
  entropy T*S    EENTRO =         0.00000000
  eigenvalues    EBANDS =       169.44144704
  atomic energy  EATOM  =     46688.37031544
  Solvation  Ediel_sol  =         0.00000000
  ---------------------------------------------------
  free energy    TOTEN  =      -171.13587784 eV

  energy without entropy =     -171.13587784  energy(sigma->0) =     -171.13587784


--------------------------------------------------------------------------------------------------------




--------------------------------------- Iteration      1(   3)  ---------------------------------------


     EDDAV:  cpu time   55.1962: real time   55.3613
 BZINTS: Fermi energy:  3.757016;642.000000 electrons
         Band energy: -45.734115;  BLOECHL correction: -0.116859
       DOS:  cpu time    0.0182: real time    0.0183
    --------------------------------------------
      LOOP:  cpu time   55.2144: real time   55.3796

 eigenvalue-minimisations  :  8160
 total energy-change (2. order) :-0.2151756E+03  (-0.2040170E+03)
 number of electron     642.0000000 magnetization      66.0000000
 augmentation part      642.0000000 magnetization      66.0000000

 Free energy of the ion-electron system (eV)
  ---------------------------------------------------
  alpha Z        PSCENC =      2023.78361127
  Ewald energy   TEWEN  =    124415.42098278
  -Hartree energ DENC   =   -175525.85057173
  -exchange      EXHF   =         0.00000000
  -V(xc)+E(xc)   XCENC  =       247.85494559
  PAW double counting   =     44550.55032729   -42740.70693553
  entropy T*S    EENTRO =         0.00000000
  eigenvalues    EBANDS =       -45.73411542
  atomic energy  EATOM  =     46688.37031544
  Solvation  Ediel_sol  =         0.00000000
  ---------------------------------------------------
  free energy    TOTEN  =      -386.31144030 eV

  energy without entropy =     -386.31144030  energy(sigma->0) =     -386.31144030


--------------------------------------------------------------------------------------------------------




--------------------------------------- Iteration      1(   4)  ---------------------------------------


     EDDAV:  cpu time   56.0710: real time   56.2069
 BZINTS: Fermi energy:  3.741606;642.000000 electrons
         Band energy: -50.399008;  BLOECHL correction: -0.130086
       DOS:  cpu time    0.0200: real time    0.0200
    --------------------------------------------
      LOOP:  cpu time   56.0910: real time   56.2269

 eigenvalue-minimisations  :  8320
 total energy-change (2. order) :-0.4664893E+01  (-0.4631785E+01)
 number of electron     642.0000000 magnetization      66.0000000
 augmentation part      642.0000000 magnetization      66.0000000

 Free energy of the ion-electron system (eV)
  ---------------------------------------------------
  alpha Z        PSCENC =      2023.78361127
  Ewald energy   TEWEN  =    124415.42098278
  -Hartree energ DENC   =   -175525.85057173
  -exchange      EXHF   =         0.00000000
  -V(xc)+E(xc)   XCENC  =       247.85494559
  PAW double counting   =     44550.55032729   -42740.70693553
  entropy T*S    EENTRO =         0.00000000
  eigenvalues    EBANDS =       -50.39900809
  atomic energy  EATOM  =     46688.37031544
  Solvation  Ediel_sol  =         0.00000000
  ---------------------------------------------------
  free energy    TOTEN  =      -390.97633298 eV

  energy without entropy =     -390.97633298  energy(sigma->0) =     -390.97633298


--------------------------------------------------------------------------------------------------------




--------------------------------------- Iteration      1(   5)  ---------------------------------------


     EDDAV:  cpu time   55.4292: real time   55.5719
 BZINTS: Fermi energy:  3.741082;642.000000 electrons
         Band energy: -50.533263;  BLOECHL correction: -0.130272
       DOS:  cpu time    0.0199: real time    0.0199
    CHARGE:  cpu time    2.4955: real time    2.5031
    MIXING:  cpu time    0.0118: real time    0.0128
    --------------------------------------------
      LOOP:  cpu time   57.9565: real time   58.1078

 eigenvalue-minimisations  :  8200
 total energy-change (2. order) :-0.1342551E+00  (-0.1341414E+00)
 number of electron     642.0000083 magnetization      59.6062428
 augmentation part      185.5762089 magnetization      47.6467302

 Broyden mixing:
  rms(total) = 0.10526E+02    rms(broyden)= 0.10526E+02
  rms(prec ) = 0.10633E+02
  weight for this iteration     100.00

 Free energy of the ion-electron system (eV)
  ---------------------------------------------------
  alpha Z        PSCENC =      2023.78361127
  Ewald energy   TEWEN  =    124415.42098278
  -Hartree energ DENC   =   -175525.85057173
  -exchange      EXHF   =         0.00000000
  -V(xc)+E(xc)   XCENC  =       247.85494559
  PAW double counting   =     44550.55032729   -42740.70693553
  entropy T*S    EENTRO =         0.00000000
  eigenvalues    EBANDS =       -50.53326315
  atomic energy  EATOM  =     46688.37031544
  Solvation  Ediel_sol  =         0.00000000
  ---------------------------------------------------
  free energy    TOTEN  =      -391.11058803 eV

  energy without entropy =     -391.11058803  energy(sigma->0) =     -391.11058803


--------------------------------------------------------------------------------------------------------




--------------------------------------- Iteration      1(   6)  ---------------------------------------


    POTLOK:  cpu time    0.4769: real time    0.4783
    SETDIJ:  cpu time    0.0440: real time    0.0441
    EDDIAG:  cpu time    7.3067: real time    7.3290
  RMM-DIIS:  cpu time   30.0199: real time   30.1097
    ORTHCH:  cpu time    1.0221: real time    1.0252
 BZINTS: Fermi energy:  2.691673;642.000000 electrons
         Band energy:-593.035117;  BLOECHL correction: -0.184339
       DOS:  cpu time    0.0176: real time    0.0176
    CHARGE:  cpu time    2.4853: real time    2.4927
    MIXING:  cpu time    0.0101: real time    0.0105
    --------------------------------------------
      LOOP:  cpu time   41.3827: real time   41.5071

 eigenvalue-minimisations  :  7083
 total energy-change (2. order) : 0.2741389E+02  (-0.6557526E+01)
 number of electron     642.0000090 magnetization      52.3732979
 augmentation part      195.3731786 magnetization      38.7579806

 Broyden mixing:
  rms(total) = 0.68467E+01    rms(broyden)= 0.68467E+01
  rms(prec ) = 0.72309E+01
  weight for this iteration     100.00

 eigenvalues of (default mixing * dielectric matrix)
  average eigenvalue GAMMA=   1.2578
  1.2578

 Free energy of the ion-electron system (eV)
  ---------------------------------------------------
  alpha Z        PSCENC =      2023.78361127
  Ewald energy   TEWEN  =    124415.42098278
  -Hartree energ DENC   =   -174839.06906170
  -exchange      EXHF   =         0.00000000
  -V(xc)+E(xc)   XCENC  =       238.77777003
  PAW double counting   =     50855.94091811   -49153.88611509
  entropy T*S    EENTRO =         0.00000000
  eigenvalues    EBANDS =      -593.03511702
  atomic energy  EATOM  =     46688.37031544
  Solvation  Ediel_sol  =         0.00000000
  ---------------------------------------------------
  free energy    TOTEN  =      -363.69669618 eV

  energy without entropy =     -363.69669618  energy(sigma->0) =     -363.69669618


--------------------------------------------------------------------------------------------------------




--------------------------------------- Iteration      1(   7)  ---------------------------------------


    POTLOK:  cpu time    0.4755: real time    0.4767
    SETDIJ:  cpu time    0.0437: real time    0.0438
    EDDIAG:  cpu time    7.2722: real time    7.2937
  RMM-DIIS:  cpu time   29.2829: real time   29.3709
    ORTHCH:  cpu time    1.0293: real time    1.0317
 BZINTS: Fermi energy:  4.573396;642.000000 electrons
         Band energy:-120.357622;  BLOECHL correction: -0.096317
       DOS:  cpu time    0.0198: real time    0.0198
    CHARGE:  cpu time    2.4844: real time    2.4904
    MIXING:  cpu time    0.0110: real time    0.0110
    --------------------------------------------
      LOOP:  cpu time   40.6187: real time   40.7381

 eigenvalue-minimisations  :  7040
 total energy-change (2. order) :-0.1304029E+03  (-0.1270355E+02)
 number of electron     642.0000088 magnetization      46.8228999
 augmentation part      191.9978537 magnetization      34.4957451

 Broyden mixing:
  rms(total) = 0.10725E+02    rms(broyden)= 0.10725E+02
  rms(prec ) = 0.13579E+02
  weight for this iteration     100.00

 eigenvalues of (default mixing * dielectric matrix)
  average eigenvalue GAMMA=   0.9968
  1.7105  0.2832

 Free energy of the ion-electron system (eV)
  ---------------------------------------------------
  alpha Z        PSCENC =      2023.78361127
  Ewald energy   TEWEN  =    124415.42098278
  -Hartree energ DENC   =   -175379.18048253
  -exchange      EXHF   =         0.00000000
  -V(xc)+E(xc)   XCENC  =       233.50776747
  PAW double counting   =     56186.17731015   -54541.82151142
  entropy T*S    EENTRO =         0.00000000
  eigenvalues    EBANDS =      -120.35762216
  atomic energy  EATOM  =     46688.37031544
  Solvation  Ediel_sol  =         0.00000000
  ---------------------------------------------------
  free energy    TOTEN  =      -494.09962900 eV

  energy without entropy =     -494.09962900  energy(sigma->0) =     -494.09962900


--------------------------------------------------------------------------------------------------------




--------------------------------------- Iteration      1(   8)  ---------------------------------------


    POTLOK:  cpu time    0.4756: real time    0.4767
    SETDIJ:  cpu time    0.0443: real time    0.0444
    EDDIAG:  cpu time    7.4847: real time    7.5027
  RMM-DIIS:  cpu time   29.6022: real time   29.6763
    ORTHCH:  cpu time    1.0169: real time    1.0198
 BZINTS: Fermi energy:  3.327537;642.000000 electrons
         Band energy:-361.119034;  BLOECHL correction: -0.156616
       DOS:  cpu time    0.0184: real time    0.0184
    CHARGE:  cpu time    2.4704: real time    2.4778
    MIXING:  cpu time    0.0117: real time    0.0117
    --------------------------------------------
      LOOP:  cpu time   41.1242: real time   41.2279

 eigenvalue-minimisations  :  7066
 total energy-change (2. order) : 0.1035266E+03  (-0.4503755E+01)
 number of electron     642.0000095 magnetization      44.6090071
 augmentation part      197.8730190 magnetization      34.7199699

 Broyden mixing:
  rms(total) = 0.59105E+01    rms(broyden)= 0.59105E+01
  rms(prec ) = 0.74962E+01
  weight for this iteration     100.00

 eigenvalues of (default mixing * dielectric matrix)
  average eigenvalue GAMMA=   0.8960
  1.9698  0.3956  0.3225

 Free energy of the ion-electron system (eV)
  ---------------------------------------------------
  alpha Z        PSCENC =      2023.78361127
  Ewald energy   TEWEN  =    124415.42098278
  -Hartree energ DENC   =   -174993.39501595
  -exchange      EXHF   =         0.00000000
  -V(xc)+E(xc)   XCENC  =       234.62053069
  PAW double counting   =     59754.15205309   -58152.40643281
  entropy T*S    EENTRO =         0.00000000
  eigenvalues    EBANDS =      -361.11903355
  atomic energy  EATOM  =     46688.37031544
  Solvation  Ediel_sol  =         0.00000000
  ---------------------------------------------------
  free energy    TOTEN  =      -390.57298904 eV

  energy without entropy =     -390.57298904  energy(sigma->0) =     -390.57298904


--------------------------------------------------------------------------------------------------------




--------------------------------------- Iteration      1(   9)  ---------------------------------------


    POTLOK:  cpu time    0.4767: real time    0.4780
    SETDIJ:  cpu time    0.0439: real time    0.0440
    EDDIAG:  cpu time    7.2787: real time    7.3005
  RMM-DIIS:  cpu time   29.5082: real time   29.5958
    ORTHCH:  cpu time    1.0260: real time    1.0291
 BZINTS: Fermi energy:  3.126368;642.000000 electrons
         Band energy:-506.827166;  BLOECHL correction: -0.102523
       DOS:  cpu time    0.0191: real time    0.0192
    CHARGE:  cpu time    2.4661: real time    2.4733
    MIXING:  cpu time    0.0111: real time    0.0111
    --------------------------------------------
      LOOP:  cpu time   40.8298: real time   40.9510

 eigenvalue-minimisations  :  7066
 total energy-change (2. order) : 0.5844971E+01  (-0.3485775E+01)
 number of electron     642.0000087 magnetization      42.0131373
 augmentation part      198.0755617 magnetization      34.6145360

 Broyden mixing:
  rms(total) = 0.52685E+01    rms(broyden)= 0.52685E+01
  rms(prec ) = 0.82334E+01
  weight for this iteration     100.00

 eigenvalues of (default mixing * dielectric matrix)
  average eigenvalue GAMMA=   0.8393
  2.2044  0.6809  0.3171  0.1550

 Free energy of the ion-electron system (eV)
  ---------------------------------------------------
  alpha Z        PSCENC =      2023.78361127
  Ewald energy   TEWEN  =    124415.42098278
  -Hartree energ DENC   =   -174836.02029257
  -exchange      EXHF   =         0.00000000
  -V(xc)+E(xc)   XCENC  =       235.14257146
  PAW double counting   =     60505.61087678   -58910.20891724
  entropy T*S    EENTRO =         0.00000000
  eigenvalues    EBANDS =      -506.82716601
  atomic energy  EATOM  =     46688.37031544
  Solvation  Ediel_sol  =         0.00000000
  ---------------------------------------------------
  free energy    TOTEN  =      -384.72801809 eV

  energy without entropy =     -384.72801809  energy(sigma->0) =     -384.72801809


--------------------------------------------------------------------------------------------------------




--------------------------------------- Iteration      1(  10)  ---------------------------------------


    POTLOK:  cpu time    0.4772: real time    0.4783
    SETDIJ:  cpu time    0.0441: real time    0.0443
    EDDIAG:  cpu time    7.2614: real time    7.2833
  RMM-DIIS:  cpu time   29.7139: real time   29.8022
    ORTHCH:  cpu time    1.0209: real time    1.0239
 BZINTS: Fermi energy:  3.058349;642.000000 electrons
         Band energy:-389.169799;  BLOECHL correction: -0.120890
       DOS:  cpu time    0.0183: real time    0.0184
    CHARGE:  cpu time    2.4687: real time    2.4761
    MIXING:  cpu time    0.0131: real time    0.0131
    --------------------------------------------
      LOOP:  cpu time   41.0176: real time   41.1397

 eigenvalue-minimisations  :  7075
 total energy-change (2. order) : 0.1267846E+02  (-0.1842064E+01)
 number of electron     642.0000091 magnetization      39.4554897
 augmentation part      197.5578831 magnetization      30.1205640

 Broyden mixing:
  rms(total) = 0.44058E+01    rms(broyden)= 0.44058E+01
  rms(prec ) = 0.53904E+01
  weight for this iteration     100.00

 eigenvalues of (default mixing * dielectric matrix)
  average eigenvalue GAMMA=   0.7350
  2.2870  0.7157  0.2716  0.2716  0.1291

 Free energy of the ion-electron system (eV)
  ---------------------------------------------------
  alpha Z        PSCENC =      2023.78361127
  Ewald energy   TEWEN  =    124415.42098278
  -Hartree energ DENC   =   -174939.10801758
  -exchange      EXHF   =         0.00000000
  -V(xc)+E(xc)   XCENC  =       234.59705453
  PAW double counting   =     60920.47722268   -59326.42092322
  entropy T*S    EENTRO =         0.00000000
  eigenvalues    EBANDS =      -389.16979946
  atomic energy  EATOM  =     46688.37031544
  Solvation  Ediel_sol  =         0.00000000
  ---------------------------------------------------
  free energy    TOTEN  =      -372.04955355 eV

  energy without entropy =     -372.04955355  energy(sigma->0) =     -372.04955355


--------------------------------------------------------------------------------------------------------




--------------------------------------- Iteration      1(  11)  ---------------------------------------


    POTLOK:  cpu time    0.5098: real time    0.5112
    SETDIJ:  cpu time    0.0497: real time    0.0498
    EDDIAG:  cpu time    7.3106: real time    7.3282
  RMM-DIIS:  cpu time   29.9044: real time   29.9755
    ORTHCH:  cpu time    1.0303: real time    1.0327
 BZINTS: Fermi energy:  2.940756;642.000000 electrons
         Band energy:-394.063462;  BLOECHL correction: -0.031056
       DOS:  cpu time    0.0188: real time    0.0189
    CHARGE:  cpu time    2.4695: real time    2.4754
    MIXING:  cpu time    0.0118: real time    0.0118
    --------------------------------------------
      LOOP:  cpu time   41.3048: real time   41.4034

 eigenvalue-minimisations  :  7078
 total energy-change (2. order) : 0.1636425E+02  (-0.7328703E+00)
 number of electron     642.0000088 magnetization      37.6925790
 augmentation part      197.7558972 magnetization      29.3362007

 Broyden mixing:
  rms(total) = 0.19753E+01    rms(broyden)= 0.19753E+01
  rms(prec ) = 0.21231E+01
  weight for this iteration     100.00

 eigenvalues of (default mixing * dielectric matrix)
  average eigenvalue GAMMA=   0.6861
  2.1982  0.6986  0.3703  0.3703  0.3522  0.1270

 Free energy of the ion-electron system (eV)
  ---------------------------------------------------
  alpha Z        PSCENC =      2023.78361127
  Ewald energy   TEWEN  =    124415.42098278
  -Hartree energ DENC   =   -174915.03411314
  -exchange      EXHF   =         0.00000000
  -V(xc)+E(xc)   XCENC  =       234.03169092
  PAW double counting   =     61217.37644165   -59625.57076995
  entropy T*S    EENTRO =         0.00000000
  eigenvalues    EBANDS =      -394.06346233
  atomic energy  EATOM  =     46688.37031544
  Solvation  Ediel_sol  =         0.00000000
  ---------------------------------------------------
  free energy    TOTEN  =      -355.68530336 eV

  energy without entropy =     -355.68530336  energy(sigma->0) =     -355.68530336


--------------------------------------------------------------------------------------------------------




--------------------------------------- Iteration      1(  12)  ---------------------------------------


    POTLOK:  cpu time    0.4770: real time    0.4782
    SETDIJ:  cpu time    0.0442: real time    0.0443
    EDDIAG:  cpu time    7.3124: real time    7.3298
  RMM-DIIS:  cpu time   29.8251: real time   29.9078
    ORTHCH:  cpu time    1.0160: real time    1.0190
 BZINTS: Fermi energy:  2.866118;642.000000 electrons
         Band energy:-422.627729;  BLOECHL correction: -0.144585
       DOS:  cpu time    0.0195: real time    0.0196
    CHARGE:  cpu time    2.4691: real time    2.4766
    MIXING:  cpu time    0.0133: real time    0.0134
    --------------------------------------------
      LOOP:  cpu time   41.1766: real time   41.2887

 eigenvalue-minimisations  :  7079
 total energy-change (2. order) :-0.1389885E+01  (-0.2538200E+00)
 number of electron     642.0000088 magnetization      36.2648451
 augmentation part      197.6143845 magnetization      26.9334840

 Broyden mixing:
  rms(total) = 0.17256E+01    rms(broyden)= 0.17256E+01
  rms(prec ) = 0.19585E+01
  weight for this iteration     100.00

 eigenvalues of (default mixing * dielectric matrix)
  average eigenvalue GAMMA=   0.6444
  2.1916  0.5722  0.5722  0.5283  0.2597  0.2597  0.1271

 Free energy of the ion-electron system (eV)
  ---------------------------------------------------
  alpha Z        PSCENC =      2023.78361127
  Ewald energy   TEWEN  =    124415.42098278
  -Hartree energ DENC   =   -174890.59566604
  -exchange      EXHF   =         0.00000000
  -V(xc)+E(xc)   XCENC  =       233.67477996
  PAW double counting   =     60926.07855566   -59331.18003823
  entropy T*S    EENTRO =         0.00000000
  eigenvalues    EBANDS =      -422.62772882
  atomic energy  EATOM  =     46688.37031544
  Solvation  Ediel_sol  =         0.00000000
  ---------------------------------------------------
  free energy    TOTEN  =      -357.07518798 eV

  energy without entropy =     -357.07518798  energy(sigma->0) =     -357.07518798


--------------------------------------------------------------------------------------------------------




--------------------------------------- Iteration      1(  13)  ---------------------------------------


    POTLOK:  cpu time    0.4734: real time    0.4745
    SETDIJ:  cpu time    0.0437: real time    0.0438
    EDDIAG:  cpu time    7.4002: real time    7.4222
  RMM-DIIS:  cpu time   29.8042: real time   29.8928
    ORTHCH:  cpu time    1.1628: real time    1.1665
 BZINTS: Fermi energy:  2.899164;642.000000 electrons
         Band energy:-405.499822;  BLOECHL correction: -0.103339
       DOS:  cpu time    0.0188: real time    0.0188
    CHARGE:  cpu time    2.4710: real time    2.4781
    MIXING:  cpu time    0.0139: real time    0.0139
    --------------------------------------------
      LOOP:  cpu time   41.3880: real time   41.5107

 eigenvalue-minimisations  :  7081
 total energy-change (2. order) :-0.3779556E+00  (-0.1185622E+00)
 number of electron     642.0000089 magnetization      33.6514901
 augmentation part      197.5853641 magnetization      24.3371315

 Broyden mixing:
  rms(total) = 0.11592E+01    rms(broyden)= 0.11592E+01
  rms(prec ) = 0.12474E+01
  weight for this iteration     100.00

 eigenvalues of (default mixing * dielectric matrix)
  average eigenvalue GAMMA=   0.6595
  2.1873  0.7579  0.7579  0.6005  0.3005  0.3005  0.1270  0.2443

 Free energy of the ion-electron system (eV)
  ---------------------------------------------------
  alpha Z        PSCENC =      2023.78361127
  Ewald energy   TEWEN  =    124415.42098278
  -Hartree energ DENC   =   -174907.25837839
  -exchange      EXHF   =         0.00000000
  -V(xc)+E(xc)   XCENC  =       232.66168013
  PAW double counting   =     60885.17195695   -59290.10349006
  entropy T*S    EENTRO =         0.00000000
  eigenvalues    EBANDS =      -405.49982170
  atomic energy  EATOM  =     46688.37031544
  Solvation  Ediel_sol  =         0.00000000
  ---------------------------------------------------
  free energy    TOTEN  =      -357.45314358 eV

  energy without entropy =     -357.45314358  energy(sigma->0) =     -357.45314358


--------------------------------------------------------------------------------------------------------




--------------------------------------- Iteration      1(  14)  ---------------------------------------


    POTLOK:  cpu time    0.4731: real time    0.4746
    SETDIJ:  cpu time    0.0437: real time    0.0438
    EDDIAG:  cpu time    7.3098: real time    7.3313
  RMM-DIIS:  cpu time   29.8599: real time   29.9488
    ORTHCH:  cpu time    1.0224: real time    1.0255
 BZINTS: Fermi energy:  2.941647;642.000000 electrons
         Band energy:-386.438588;  BLOECHL correction: -0.127350
       DOS:  cpu time    0.0179: real time    0.0179
    CHARGE:  cpu time    2.4776: real time    2.4848
    MIXING:  cpu time    0.0144: real time    0.0144
    --------------------------------------------
      LOOP:  cpu time   41.2187: real time   41.3412

 eigenvalue-minimisations  :  7073
 total energy-change (2. order) :-0.3350056E+01  (-0.1514557E+00)
 number of electron     642.0000089 magnetization      30.9515101
 augmentation part      197.4247527 magnetization      21.5211762

 Broyden mixing:
  rms(total) = 0.11044E+01    rms(broyden)= 0.11044E+01
  rms(prec ) = 0.12021E+01
  weight for this iteration     100.00

 eigenvalues of (default mixing * dielectric matrix)
  average eigenvalue GAMMA=   0.6784
  2.1361  0.9852  0.9852  0.6360  0.4331  0.1269  0.2858  0.2858  0.2312

 Free energy of the ion-electron system (eV)
  ---------------------------------------------------
  alpha Z        PSCENC =      2023.78361127
  Ewald energy   TEWEN  =    124415.42098278
  -Hartree energ DENC   =   -174927.76814005
  -exchange      EXHF   =         0.00000000
  -V(xc)+E(xc)   XCENC  =       230.74279289
  PAW double counting   =     60846.82305919   -59251.73723319
  entropy T*S    EENTRO =         0.00000000
  eigenvalues    EBANDS =      -386.43858785
  atomic energy  EATOM  =     46688.37031544
  Solvation  Ediel_sol  =         0.00000000
  ---------------------------------------------------
  free energy    TOTEN  =      -360.80319952 eV

  energy without entropy =     -360.80319952  energy(sigma->0) =     -360.80319952


--------------------------------------------------------------------------------------------------------




--------------------------------------- Iteration      1(  15)  ---------------------------------------


    POTLOK:  cpu time    0.4741: real time    0.4755
    SETDIJ:  cpu time    0.0436: real time    0.0437
    EDDIAG:  cpu time    7.2606: real time    7.2820
  RMM-DIIS:  cpu time   29.8790: real time   29.9682
    ORTHCH:  cpu time    1.0219: real time    1.0249
 BZINTS: Fermi energy:  2.968792;642.000000 electrons
         Band energy:-372.835601;  BLOECHL correction: -0.133714
       DOS:  cpu time    0.0185: real time    0.0187
    CHARGE:  cpu time    2.4793: real time    2.4867
    MIXING:  cpu time    0.0147: real time    0.0148
    --------------------------------------------
      LOOP:  cpu time   41.1919: real time   41.3146

 eigenvalue-minimisations  :  7070
 total energy-change (2. order) :-0.3281017E+01  (-0.1252643E+00)
 number of electron     642.0000089 magnetization      27.1216557
 augmentation part      197.2574578 magnetization      17.9999422

 Broyden mixing:
  rms(total) = 0.95504E+00    rms(broyden)= 0.95503E+00
  rms(prec ) = 0.11867E+01
  weight for this iteration     100.00

 eigenvalues of (default mixing * dielectric matrix)
  average eigenvalue GAMMA=   0.7016
  1.9550  1.2306  1.2306  0.7847  0.4471  0.4471  0.1270  0.2794  0.2794  0.2349

 Free energy of the ion-electron system (eV)
  ---------------------------------------------------
  alpha Z        PSCENC =      2023.78361127
  Ewald energy   TEWEN  =    124415.42098278
  -Hartree energ DENC   =   -174943.38030478
  -exchange      EXHF   =         0.00000000
  -V(xc)+E(xc)   XCENC  =       228.68389667
  PAW double counting   =     60757.00090004   -59161.12801701
  entropy T*S    EENTRO =         0.00000000
  eigenvalues    EBANDS =      -372.83560101
  atomic energy  EATOM  =     46688.37031544
  Solvation  Ediel_sol  =         0.00000000
  ---------------------------------------------------
  free energy    TOTEN  =      -364.08421660 eV

  energy without entropy =     -364.08421660  energy(sigma->0) =     -364.08421660


--------------------------------------------------------------------------------------------------------




--------------------------------------- Iteration      1(  16)  ---------------------------------------


    POTLOK:  cpu time    0.4746: real time    0.4757
    SETDIJ:  cpu time    0.0437: real time    0.0439
    EDDIAG:  cpu time    7.5129: real time    7.5351
  RMM-DIIS:  cpu time   29.9510: real time   30.0417
    ORTHCH:  cpu time    1.0199: real time    1.0229
 BZINTS: Fermi energy:  2.963285;642.000000 electrons
         Band energy:-375.796087;  BLOECHL correction: -0.138706
       DOS:  cpu time    0.0184: real time    0.0185
    CHARGE:  cpu time    2.4812: real time    2.4884
    MIXING:  cpu time    0.0153: real time    0.0154
    --------------------------------------------
      LOOP:  cpu time   41.5170: real time   41.6416

 eigenvalue-minimisations  :  7066
 total energy-change (2. order) :-0.3467575E+01  (-0.1573659E+00)
 number of electron     642.0000089 magnetization      23.4277735
 augmentation part      197.1382611 magnetization      15.1554642

 Broyden mixing:
  rms(total) = 0.65429E+00    rms(broyden)= 0.65429E+00
  rms(prec ) = 0.73431E+00
  weight for this iteration     100.00

 eigenvalues of (default mixing * dielectric matrix)
  average eigenvalue GAMMA=   0.7715
  2.2404  2.2404  0.7846  0.7846  0.5863  0.5863  0.1270  0.3383  0.2827  0.2827
  0.2330

 Free energy of the ion-electron system (eV)
  ---------------------------------------------------
  alpha Z        PSCENC =      2023.78361127
  Ewald energy   TEWEN  =    124415.42098278
  -Hartree energ DENC   =   -174942.51596148
  -exchange      EXHF   =         0.00000000
  -V(xc)+E(xc)   XCENC  =       226.49473651
  PAW double counting   =     60629.69303155   -59033.00242079
  entropy T*S    EENTRO =         0.00000000
  eigenvalues    EBANDS =      -375.79608735
  atomic energy  EATOM  =     46688.37031544
  Solvation  Ediel_sol  =         0.00000000
  ---------------------------------------------------
  free energy    TOTEN  =      -367.55179207 eV

  energy without entropy =     -367.55179207  energy(sigma->0) =     -367.55179207


--------------------------------------------------------------------------------------------------------




--------------------------------------- Iteration      1(  17)  ---------------------------------------


    POTLOK:  cpu time    0.4745: real time    0.4759
    SETDIJ:  cpu time    0.0440: real time    0.0441
    EDDIAG:  cpu time    7.3045: real time    7.3264
  RMM-DIIS:  cpu time   29.9330: real time   30.0226
    ORTHCH:  cpu time    1.0201: real time    1.0231
 BZINTS: Fermi energy:  2.937414;642.000000 electrons
         Band energy:-385.529736;  BLOECHL correction: -0.152036
       DOS:  cpu time    0.0190: real time    0.0190
    CHARGE:  cpu time    2.4796: real time    2.4869
    MIXING:  cpu time    0.0156: real time    0.0156
    --------------------------------------------
      LOOP:  cpu time   41.2901: real time   41.4136

 eigenvalue-minimisations  :  7069
 total energy-change (2. order) :-0.2532333E+01  (-0.1179580E+00)
 number of electron     642.0000089 magnetization      22.1205086
 augmentation part      197.1080784 magnetization      14.4454432

 Broyden mixing:
  rms(total) = 0.61375E+00    rms(broyden)= 0.61375E+00
  rms(prec ) = 0.69595E+00
  weight for this iteration     100.00

 eigenvalues of (default mixing * dielectric matrix)
  average eigenvalue GAMMA=   0.7491
  2.3444  2.3444  0.7364  0.7364  0.6522  0.6522  0.1270  0.3138  0.3138  0.2681
  0.2681  0.2326

 Free energy of the ion-electron system (eV)
  ---------------------------------------------------
  alpha Z        PSCENC =      2023.78361127
  Ewald energy   TEWEN  =    124415.42098278
  -Hartree energ DENC   =   -174933.93125417
  -exchange      EXHF   =         0.00000000
  -V(xc)+E(xc)   XCENC  =       224.84501206
  PAW double counting   =     60559.18330137   -58962.22635858
  entropy T*S    EENTRO =         0.00000000
  eigenvalues    EBANDS =      -385.52973551
  atomic energy  EATOM  =     46688.37031544
  Solvation  Ediel_sol  =         0.00000000
  ---------------------------------------------------
  free energy    TOTEN  =      -370.08412534 eV

  energy without entropy =     -370.08412534  energy(sigma->0) =     -370.08412534


--------------------------------------------------------------------------------------------------------




--------------------------------------- Iteration      1(  18)  ---------------------------------------


    POTLOK:  cpu time    0.4740: real time    0.4753
    SETDIJ:  cpu time    0.0440: real time    0.0441
    EDDIAG:  cpu time    7.3223: real time    7.3443
  RMM-DIIS:  cpu time   29.9365: real time   30.0252
    ORTHCH:  cpu time    1.0275: real time    1.0306
 BZINTS: Fermi energy:  2.929903;642.000000 electrons
         Band energy:-389.933280;  BLOECHL correction: -0.122895
       DOS:  cpu time    0.0190: real time    0.0191
    CHARGE:  cpu time    2.5164: real time    2.5226
    MIXING:  cpu time    0.0178: real time    0.0179
    --------------------------------------------
      LOOP:  cpu time   41.3576: real time   41.4791

 eigenvalue-minimisations  :  7071
 total energy-change (2. order) :-0.6379210E+00  (-0.2469477E-01)
 number of electron     642.0000089 magnetization      20.6329809
 augmentation part      197.0893935 magnetization      13.4128293

 Broyden mixing:
  rms(total) = 0.45207E+00    rms(broyden)= 0.45207E+00
  rms(prec ) = 0.48337E+00
  weight for this iteration     100.00

 eigenvalues of (default mixing * dielectric matrix)
  average eigenvalue GAMMA=   0.7564
  2.4335  2.4335  0.7618  0.7618  0.7488  0.7488  0.4071  0.4071  0.1270  0.2793
  0.2793  0.2301  0.2155

 Free energy of the ion-electron system (eV)
  ---------------------------------------------------
  alpha Z        PSCENC =      2023.78361127
  Ewald energy   TEWEN  =    124415.42098278
  -Hartree energ DENC   =   -174929.45822901
  -exchange      EXHF   =         0.00000000
  -V(xc)+E(xc)   XCENC  =       224.29846764
  PAW double counting   =     60570.25575321   -58973.45966727
  entropy T*S    EENTRO =         0.00000000
  eigenvalues    EBANDS =      -389.93328038
  atomic energy  EATOM  =     46688.37031544
  Solvation  Ediel_sol  =         0.00000000
  ---------------------------------------------------
  free energy    TOTEN  =      -370.72204632 eV

  energy without entropy =     -370.72204632  energy(sigma->0) =     -370.72204632


--------------------------------------------------------------------------------------------------------




--------------------------------------- Iteration      1(  19)  ---------------------------------------


    POTLOK:  cpu time    0.4801: real time    0.4812
    SETDIJ:  cpu time    0.0438: real time    0.0439
    EDDIAG:  cpu time    7.2945: real time    7.3120
  RMM-DIIS:  cpu time   30.1671: real time   30.2389
    ORTHCH:  cpu time    1.0231: real time    1.0255
 BZINTS: Fermi energy:  2.917853;642.000000 electrons
         Band energy:-395.769863;  BLOECHL correction: -0.125624
       DOS:  cpu time    0.0183: real time    0.0184
    CHARGE:  cpu time    2.4811: real time    2.4870
    MIXING:  cpu time    0.0161: real time    0.0162
    --------------------------------------------
      LOOP:  cpu time   41.5242: real time   41.6232

 eigenvalue-minimisations  :  7064
 total energy-change (2. order) :-0.6515850E+00  (-0.1560514E-01)
 number of electron     642.0000089 magnetization      17.8708051
 augmentation part      197.0962743 magnetization      10.8889989

 Broyden mixing:
  rms(total) = 0.39191E+00    rms(broyden)= 0.39191E+00
  rms(prec ) = 0.42289E+00
  weight for this iteration     100.00

 eigenvalues of (default mixing * dielectric matrix)
  average eigenvalue GAMMA=   0.8049
  3.2620  2.1524  1.0221  1.0221  0.7147  0.7147  0.4651  0.4651  0.1270  0.2809
  0.2809  0.3172  0.2329  0.2109

 Free energy of the ion-electron system (eV)
  ---------------------------------------------------
  alpha Z        PSCENC =      2023.78361127
  Ewald energy   TEWEN  =    124415.42098278
  -Hartree energ DENC   =   -174923.26035682
  -exchange      EXHF   =         0.00000000
  -V(xc)+E(xc)   XCENC  =       223.73523667
  PAW double counting   =     60608.26370433   -59011.91726159
  entropy T*S    EENTRO =         0.00000000
  eigenvalues    EBANDS =      -395.76986335
  atomic energy  EATOM  =     46688.37031544
  Solvation  Ediel_sol  =         0.00000000
  ---------------------------------------------------
  free energy    TOTEN  =      -371.37363128 eV

  energy without entropy =     -371.37363128  energy(sigma->0) =     -371.37363128


[...]
 
   4 f  =   10.589933 THz    66.538513 2PiTHz  353.242141 cm-1    43.796459 meV
             X         Y         Z           dx          dy          dz
     10.559976  0.000014  1.115846            0           0           0  
      2.639975  1.524219  3.550479            0           0           0  
      0.033544  3.052953  5.992470            0           0           0  
      0.003085  0.009816  8.392169            0           0           0  
      9.239976  2.286321  1.115846            0           0           0  
      1.319975  3.810527  3.550479            0           0           0  
      1.322866  0.792604  5.973879            0           0           0  
     -1.308077  2.286552  8.312878            0           0           0  
      1.319975  2.286321  1.115846            0           0           0  
     -1.320026  3.810527  3.550479            0           0           0  
      3.955413  0.779064  5.945997            0           0           0  
      1.301757  2.261420  8.813384            0           0           0  
      2.639975  0.000014  1.115846            0           0           0  
     -0.000025  1.524219  3.550479            0           0           0  
      2.633337  3.054373  6.030477            0           0           0  
      2.630881  0.012551  8.322109            0           0           0  
      5.279976  0.000014  1.115846            0           0           0  
      7.919974  1.524219  3.550479            0           0           0  
      5.265091  3.046357  5.946538            0           0           0  
      5.284202  0.001713  8.360348            0           0           0  
      3.959975  2.286321  1.115846            0           0           0  
      6.599974  3.810527  3.550479            0           0           0  
      6.603379  0.762637  5.943319            0           0           0  
      3.975956  2.282789  8.466210            0           0           0  
      6.599975  2.286321  1.115846            0           0           0  
      3.959974  3.810527  3.550479            0           0           0  
      9.255284  0.764077  5.931406            0           0           0  
      6.604532  2.288107  8.361719            0           0           0  
      7.919975  0.000014  1.115846            0           0           0  
      5.279974  1.524219  3.550479            0           0           0  
      7.926101  3.049571  5.928513            0           0           0  
      7.927287  0.001115  8.345201            0           0           0  
      7.919976  4.572628  1.115846            0           0           0  
     -0.000026  6.096834  3.550479            0           0           0  
     -2.633479  7.624017  5.929040            0           0           0  
      7.911149  4.577554  8.365843            0           0           0  
      6.599976  6.858935  1.115846            0           0           0  
     -1.320026  8.383141  3.550479            0           0           0  
     -1.292195  5.321341  5.973376            0           0           0  
      6.594051  6.868041  8.320545            0           0           0  
     -1.320025  6.858935  1.115846            0           0           0  
     -3.960026  8.383141  3.550479            0           0           0  
      1.334609  5.306844  5.992446            0           0           0  
     -1.324510  6.870382  8.366800            0           0           0  
     -0.000025  4.572628  1.115846            0           0           0  
     -2.640026  6.096834  3.550479            0           0           0  
      0.004086  7.618931  5.928220            0           0           0  
     -0.024169  4.591872  8.508967            0           0           0  
      2.639975  4.572628  1.115846            0           0           0  
      5.279975  6.096834  3.550479            0           0           0  
      2.648091  7.611154  5.932834            0           0           0  
      2.658315  4.610350  8.771282            0           0           0  
      1.319976  6.858935  1.115846            0           0           0  
      3.959974  8.383141  3.550479            0           0           0  
      3.937088  5.321025  5.973308            0           0           0  
      1.328990  6.856840  8.313601            0           0           0  
      3.959975  6.858935  1.115846            0           0           0  
      1.319974  8.383141  3.550479            0           0           0  
      6.603050  5.331344  5.928760            0           0           0  
      3.958253  6.860410  8.397276            0           0           0  
      5.279975  4.572628  1.115846            0           0           0  
      2.639974  6.096834  3.550479            0           0           0  
      5.279472  7.623568  5.942078            0           0           0  
      5.270943  4.581620  8.322083            0           0           0  
      1.016762  3.955166  9.714714     0.415376   -0.443236   -0.190556  
      2.939315  2.858149  9.705055     0.684916   -0.262406    0.238173  
 
   5 f/i=    6.536116 THz    41.067628 2PiTHz  218.021358 cm-1    27.031213 meV
             X         Y         Z           dx          dy          dz
     10.559976  0.000014  1.115846            0           0           0  
      2.639975  1.524219  3.550479            0           0           0  
      0.033544  3.052953  5.992470            0           0           0  
      0.003085  0.009816  8.392169            0           0           0  
      9.239976  2.286321  1.115846            0           0           0  
      1.319975  3.810527  3.550479            0           0           0  
      1.322866  0.792604  5.973879            0           0           0  
     -1.308077  2.286552  8.312878            0           0           0  
      1.319975  2.286321  1.115846            0           0           0  
     -1.320026  3.810527  3.550479            0           0           0  
      3.955413  0.779064  5.945997            0           0           0  
      1.301757  2.261420  8.813384            0           0           0  
      2.639975  0.000014  1.115846            0           0           0  
     -0.000025  1.524219  3.550479            0           0           0  
      2.633337  3.054373  6.030477            0           0           0  
      2.630881  0.012551  8.322109            0           0           0  
      5.279976  0.000014  1.115846            0           0           0  
      7.919974  1.524219  3.550479            0           0           0  
      5.265091  3.046357  5.946538            0           0           0  
      5.284202  0.001713  8.360348            0           0           0  
      3.959975  2.286321  1.115846            0           0           0  
      6.599974  3.810527  3.550479            0           0           0  
      6.603379  0.762637  5.943319            0           0           0  
      3.975956  2.282789  8.466210            0           0           0  
      6.599975  2.286321  1.115846            0           0           0  
      3.959974  3.810527  3.550479            0           0           0  
      9.255284  0.764077  5.931406            0           0           0  
      6.604532  2.288107  8.361719            0           0           0  
      7.919975  0.000014  1.115846            0           0           0  
      5.279974  1.524219  3.550479            0           0           0  
      7.926101  3.049571  5.928513            0           0           0  
      7.927287  0.001115  8.345201            0           0           0  
      7.919976  4.572628  1.115846            0           0           0  
     -0.000026  6.096834  3.550479            0           0           0  
     -2.633479  7.624017  5.929040            0           0           0  
      7.911149  4.577554  8.365843            0           0           0  
      6.599976  6.858935  1.115846            0           0           0  
     -1.320026  8.383141  3.550479            0           0           0  
     -1.292195  5.321341  5.973376            0           0           0  
      6.594051  6.868041  8.320545            0           0           0  
     -1.320025  6.858935  1.115846            0           0           0  
     -3.960026  8.383141  3.550479            0           0           0  
      1.334609  5.306844  5.992446            0           0           0  
     -1.324510  6.870382  8.366800            0           0           0  
     -0.000025  4.572628  1.115846            0           0           0  
     -2.640026  6.096834  3.550479            0           0           0  
      0.004086  7.618931  5.928220            0           0           0  
     -0.024169  4.591872  8.508967            0           0           0  
      2.639975  4.572628  1.115846            0           0           0  
      5.279975  6.096834  3.550479            0           0           0  
      2.648091  7.611154  5.932834            0           0           0  
      2.658315  4.610350  8.771282            0           0           0  
      1.319976  6.858935  1.115846            0           0           0  
      3.959974  8.383141  3.550479            0           0           0  
      3.937088  5.321025  5.973308            0           0           0  
      1.328990  6.856840  8.313601            0           0           0  
      3.959975  6.858935  1.115846            0           0           0  
      1.319974  8.383141  3.550479            0           0           0  
      6.603050  5.331344  5.928760            0           0           0  
      3.958253  6.860410  8.397276            0           0           0  
      5.279975  4.572628  1.115846            0           0           0  
      2.639974  6.096834  3.550479            0           0           0  
      5.279472  7.623568  5.942078            0           0           0  
      5.270943  4.581620  8.322083            0           0           0  
      1.016762  3.955166  9.714714     0.539256    0.702286   -0.064465  
      2.939315  2.858149  9.705055     0.256366    0.382253   -0.001191  
 
   6 f/i=    9.439641 THz    59.311011 2PiTHz  314.872508 cm-1    39.039230 meV
             X         Y         Z           dx          dy          dz
     10.559976  0.000014  1.115846            0           0           0  
      2.639975  1.524219  3.550479            0           0           0  
      0.033544  3.052953  5.992470            0           0           0  
      0.003085  0.009816  8.392169            0           0           0  
      9.239976  2.286321  1.115846            0           0           0  
      1.319975  3.810527  3.550479            0           0           0  
      1.322866  0.792604  5.973879            0           0           0  
     -1.308077  2.286552  8.312878            0           0           0  
      1.319975  2.286321  1.115846            0           0           0  
     -1.320026  3.810527  3.550479            0           0           0  
      3.955413  0.779064  5.945997            0           0           0  
      1.301757  2.261420  8.813384            0           0           0  
      2.639975  0.000014  1.115846            0           0           0  
     -0.000025  1.524219  3.550479            0           0           0  
      2.633337  3.054373  6.030477            0           0           0  
      2.630881  0.012551  8.322109            0           0           0  
      5.279976  0.000014  1.115846            0           0           0  
      7.919974  1.524219  3.550479            0           0           0  
      5.265091  3.046357  5.946538            0           0           0  
      5.284202  0.001713  8.360348            0           0           0  
      3.959975  2.286321  1.115846            0           0           0  
      6.599974  3.810527  3.550479            0           0           0  
      6.603379  0.762637  5.943319            0           0           0  
      3.975956  2.282789  8.466210            0           0           0  
      6.599975  2.286321  1.115846            0           0           0  
      3.959974  3.810527  3.550479            0           0           0  
      9.255284  0.764077  5.931406            0           0           0  
      6.604532  2.288107  8.361719            0           0           0  
      7.919975  0.000014  1.115846            0           0           0  
      5.279974  1.524219  3.550479            0           0           0  
      7.926101  3.049571  5.928513            0           0           0  
      7.927287  0.001115  8.345201            0           0           0  
      7.919976  4.572628  1.115846            0           0           0  
     -0.000026  6.096834  3.550479            0           0           0  
     -2.633479  7.624017  5.929040            0           0           0  
      7.911149  4.577554  8.365843            0           0           0  
      6.599976  6.858935  1.115846            0           0           0  
     -1.320026  8.383141  3.550479            0           0           0  
     -1.292195  5.321341  5.973376            0           0           0  
      6.594051  6.868041  8.320545            0           0           0  
     -1.320025  6.858935  1.115846            0           0           0  
     -3.960026  8.383141  3.550479            0           0           0  
      1.334609  5.306844  5.992446            0           0           0  
     -1.324510  6.870382  8.366800            0           0           0  
     -0.000025  4.572628  1.115846            0           0           0  
     -2.640026  6.096834  3.550479            0           0           0  
      0.004086  7.618931  5.928220            0           0           0  
     -0.024169  4.591872  8.508967            0           0           0  
      2.639975  4.572628  1.115846            0           0           0  
      5.279975  6.096834  3.550479            0           0           0  
      2.648091  7.611154  5.932834            0           0           0  
      2.658315  4.610350  8.771282            0           0           0  
      1.319976  6.858935  1.115846            0           0           0  
      3.959974  8.383141  3.550479            0           0           0  
      3.937088  5.321025  5.973308            0           0           0  
      1.328990  6.856840  8.313601            0           0           0  
      3.959975  6.858935  1.115846            0           0           0  
      1.319974  8.383141  3.550479            0           0           0  
      6.603050  5.331344  5.928760            0           0           0  
      3.958253  6.860410  8.397276            0           0           0  
      5.279975  4.572628  1.115846            0           0           0  
      2.639974  6.096834  3.550479            0           0           0  
      5.279472  7.623568  5.942078            0           0           0  
      5.270943  4.581620  8.322083            0           0           0  
      1.016762  3.955166  9.714714    -0.312399   -0.325549    0.048080  
      2.939315  2.858149  9.705055     0.328644    0.826337   -0.057219  
 
 Finite differences POTIM=  1.500000000000000E-002
  LATTYP: Found a hexagonal cell.
 ALAT       =    10.5600004196
 C/A-ratio  =     1.8939393187
  
  Lattice vectors:
  
 A1 = (  10.5600004196,   0.0000000000,   0.0000000000)
 A2 = (  -5.2800002098,   9.1452286274,   0.0000000000)
 A3 = (   0.0000000000,   0.0000000000,  20.0000000000)


Analysis of symmetry for initial positions (statically):
=====================================================================
 Subroutine PRICEL returns:
 Original cell was already a primitive cell.
 

 Routine SETGRP: Setting up the symmetry group for a 
 hexagonal supercell.


 Subroutine GETGRP returns: Found  1 space group operations
 (whereof  1 operations were pure point group operations)
 out of a pool of 24 trial point group operations.


The static configuration has the point symmetry C_1 .


Analysis of symmetry for dynamics (positions and initial velocities):
=====================================================================
 Subroutine PRICEL returns:
 Original cell was already a primitive cell.
 

 Routine SETGRP: Setting up the symmetry group for a 
 hexagonal supercell.


 Subroutine GETGRP returns: Found  1 space group operations
 (whereof  1 operations were pure point group operations)
 out of a pool of 24 trial point group operations.


The dynamic configuration has the point symmetry C_1 .


Analysis of constrained symmetry for selective dynamics:
=====================================================================
 Subroutine PRICEL returns:
 Original cell was already a primitive cell.
 

 Routine SETGRP: Setting up the symmetry group for a 
 hexagonal supercell.


 Subroutine GETGRP returns: Found  1 space group operations
 (whereof  1 operations were pure point group operations)
 out of a pool of 24 trial point group operations.


The constrained configuration has the point symmetry C_1 .


Analysis of structural, dynamic, and magnetic symmetry:
=====================================================================
 Subroutine PRICEL returns:
 Original cell was already a primitive cell.
 

 Routine SETGRP: Setting up the symmetry group for a 
 hexagonal supercell.


 Subroutine GETGRP returns: Found  1 space group operations
 (whereof  1 operations were pure point group operations)
 out of a pool of 24 trial point group operations.


The magnetic configuration has the point symmetry C_1 .


 Subroutine INISYM returns: Found  1 space group operations
 (whereof  1 operations are pure point group operations),
 and found     1 'primitive' translations

 
 KPOINTS: mesh auto                               

Automatic generation of k-mesh.
Space group operators:
 irot       det(A)        alpha          n_x          n_y          n_z        tau_x        tau_y        tau_z
    1     1.000000     0.000000     1.000000     0.000000     0.000000     0.000000     0.000000     0.000000
 
 Subroutine IBZKPT returns following result:
 ===========================================
 
 Found      4 irreducible k-points:
 
 Following reciprocal coordinates:
            Coordinates               Weight
  0.000000  0.000000  0.000000      1.000000
  0.500000 -0.000000  0.000000      1.000000
  0.000000  0.500000  0.000000      1.000000
  0.500000  0.500000  0.000000      1.000000
 
 Following cartesian coordinates:
            Coordinates               Weight
  0.000000  0.000000  0.000000      1.000000
  0.047348  0.027337  0.000000      1.000000
  0.000000  0.054673  0.000000      1.000000
  0.047348  0.082010  0.000000      1.000000
 
 TETIRR: Found     12 inequivalent tetrahedra from       24
     LOOP+:  cpu time  436.5877: real time  437.8703
    4ORBIT:  cpu time    0.0000: real time    0.0000
 BZINTS: Fermi energy:  2.718002;642.000000 electrons
         Band energy:-503.992817;  BLOECHL correction: -0.053264

 total amount of memory used by VASP MPI-rank0   328556. kBytes
=======================================================================

   base      :      30000. kBytes
   nonlr-proj:      89578. kBytes
   fftplans  :      13334. kBytes
   grid      :     112154. kBytes
   one-center:       2052. kBytes
   wavefun   :      81438. kBytes
 
  
  
 General timing and accounting informations for this job:
 ========================================================
  
                  Total CPU time used (sec):     6662.218
                            User time (sec):     6646.183
                          System time (sec):       16.035
                         Elapsed time (sec):     6681.851
  
                   Maximum memory used (kb):      983560.
                   Average memory used (kb):           0.
  
                          Minor page faults:      2265696
                          Major page faults:            0
                 Voluntary context switches:         5158
