 vasp.5.4.4.18Apr17-6-g9f103f2a35 (build Nov 30 2020 22:55:02) complex          
  
 executed on             LinuxIFC date 2023.07.30  09:05:08
 running on   40 total cores
 distrk:  each k-point on   40 cores,    1 groups
 distr:  one band on NCORES_PER_BAND=   4 cores,   10 groups


--------------------------------------------------------------------------------------------------------


 INCAR:
 POTCAR:    PAW_PBE Pt 04Feb2005                  
 POTCAR:    PAW_PBE Cu 22Jun2005                  
 POTCAR:    PAW_PBE Ni 02Aug2007                  
 POTCAR:    PAW_PBE Fe 06Sep2000                  
 POTCAR:    PAW_PBE Co 02Aug2007                  
 POTCAR:    PAW_PBE H 15Jun2001                   
 POTCAR:    PAW_PBE Pt 04Feb2005                  
   VRHFIN =Pt: s1d9                                                             
   LEXCH  = PE                                                                  
   EATOM  =   729.1176 eV,   53.5886 Ry                                         
                                                                                
   TITEL  = PAW_PBE Pt 04Feb2005                                                
   LULTRA =        F    use ultrasoft PP ?                                      
   IUNSCR =        1    unscreen: 0-lin 1-nonlin 2-no                           
   RPACOR =    2.330    partial core radius                                     
   POMASS =  195.080; ZVAL   =   10.000    mass and valenz                      
   RCORE  =    2.600    outmost cutoff radius                                   
   RWIGS  =    2.750; RWIGS  =    1.455    wigner-seitz radius (au A)           
   ENMAX  =  230.283; ENMIN  =  172.712 eV                                      
   ICORE  =        3    local potential                                         
   LCOR   =        T    correct aug charges                                     
   LPAW   =        T    paw PP                                                  
   EAUG   =  358.966                                                            
   DEXC   =    0.000                                                            
   RMAX   =    2.658    core radius for proj-oper                               
   RAUG   =    1.300    factor for augmentation sphere                          
   RDEP   =    2.761    radius for radial grids                                 
   RDEPT  =    2.203    core radius for aug-charge                              
                                                                                
   Atomic configuration                                                         
   16 entries                                                                   
     n  l   j            E        occ.                                          
     1  0  0.50    -78401.1885   2.0000                                         
     2  0  0.50    -13770.7750   2.0000                                         
     2  1  1.50    -11931.0468   6.0000                                         
     3  0  0.50     -3234.7234   2.0000                                         
     3  1  1.50     -2699.2216   6.0000                                         
     3  2  2.50     -2119.5714  10.0000                                         
     4  0  0.50      -695.1528   2.0000                                         
     4  1  1.50      -519.6034   6.0000                                         
     4  2  2.50      -306.6786  10.0000                                         
     4  3  3.50       -70.1041  14.0000                                         
     5  0  0.50      -101.7747   2.0000                                         
     5  1  1.50       -55.9873   6.0000                                         
     5  2  2.50        -6.1423   9.0000                                         
     6  0  0.50        -5.6573   1.0000                                         
     6  1  1.50        -6.8029   0.0000                                         
     5  3  2.50        -1.3606   0.0000                                         
   Description                                                                  
     l       E           TYP  RCUT    TYP  RCUT                                 
     2     -6.1423404     23  2.500                                             
     2     -7.5029230     23  2.500                                             
     0     -5.6573207     23  2.500                                             
     0      0.7416693     23  2.500                                             
     1     -2.7211652     23  2.600                                             
     1     20.4087390     23  2.600                                             
     3     -1.3605826     23  2.500                                             
  local pseudopotential read in
  partial core-charges read in
  partial kinetic energy density read in
  atomic valenz-charges read in
  non local Contribution for L=           2  read in
    real space projection operators read in
  non local Contribution for L=           2  read in
    real space projection operators read in
  non local Contribution for L=           0  read in
    real space projection operators read in
  non local Contribution for L=           0  read in
    real space projection operators read in
  non local Contribution for L=           1  read in
    real space projection operators read in
  non local Contribution for L=           1  read in
    real space projection operators read in
    PAW grid and wavefunctions read in
 
   number of l-projection  operators is LMAX  =           6
   number of lm-projection operators is LMMAX =          18
 
 POTCAR:    PAW_PBE Cu 22Jun2005                  
   VRHFIN =Cu: d10 p1                                                           
   LEXCH  = PE                                                                  
   EATOM  =  1390.9808 eV,  102.2342 Ry                                         
                                                                                
   TITEL  = PAW_PBE Cu 22Jun2005                                                
   LULTRA =        F    use ultrasoft PP ?                                      
   IUNSCR =        1    unscreen: 0-lin 1-nonlin 2-no                           
   RPACOR =    2.000    partial core radius                                     
   POMASS =   63.546; ZVAL   =   11.000    mass and valenz                      
   RCORE  =    2.300    outmost cutoff radius                                   
   RWIGS  =    2.200; RWIGS  =    1.164    wigner-seitz radius (au A)           
   ENMAX  =  295.446; ENMIN  =  221.585 eV                                      
   ICORE  =        3    local potential                                         
   LCOR   =        T    correct aug charges                                     
   LPAW   =        T    paw PP                                                  
   EAUG   =  586.980                                                            
   DEXC   =    0.000                                                            
   RMAX   =    2.344    core radius for proj-oper                               
   RAUG   =    1.300    factor for augmentation sphere                          
   RDEP   =    2.302    radius for radial grids                                 
   RDEPT  =    1.771    core radius for aug-charge                              
                                                                                
   Atomic configuration                                                         
    9 entries                                                                   
     n  l   j            E        occ.                                          
     1  0  0.50     -8850.2468   2.0000                                         
     2  0  0.50     -1062.3498   2.0000                                         
     2  1  1.50      -916.8226   6.0000                                         
     3  0  0.50      -114.6929   2.0000                                         
     3  1  1.50       -72.1325   6.0000                                         
     3  2  2.50        -5.0394  10.0000                                         
     4  0  0.50        -4.6097   1.0000                                         
     4  1  0.50        -4.0817   0.0000                                         
     4  3  2.50        -1.3606   0.0000                                         
   Description                                                                  
     l       E           TYP  RCUT    TYP  RCUT                                 
     2     -5.0393973     23  2.200                                             
     2     10.8846608     23  2.200                                             
     0     -4.6097109     23  2.200                                             
     0      8.2520465     23  2.200                                             
     1     -2.7211652     23  2.200                                             
     1     21.7055443     23  2.200                                             
     3      2.7211652     23  2.300                                             
  local pseudopotential read in
  partial core-charges read in
  partial kinetic energy density read in
  atomic valenz-charges read in
  non local Contribution for L=           2  read in
    real space projection operators read in
  non local Contribution for L=           2  read in
    real space projection operators read in
  non local Contribution for L=           0  read in
    real space projection operators read in
  non local Contribution for L=           0  read in
    real space projection operators read in
  non local Contribution for L=           1  read in
    real space projection operators read in
  non local Contribution for L=           1  read in
    real space projection operators read in
    PAW grid and wavefunctions read in
 
   number of l-projection  operators is LMAX  =           6
   number of lm-projection operators is LMMAX =          18
 
 POTCAR:    PAW_PBE Ni 02Aug2007                  
   VRHFIN =Ni:                                                                  
   LEXCH  = PE                                                                  
   EATOM  =  1077.6739 eV,   79.2068 Ry                                         
                                                                                
   TITEL  = PAW_PBE Ni 02Aug2007                                                
   LULTRA =        F    use ultrasoft PP ?                                      
   IUNSCR =        1    unscreen: 0-lin 1-nonlin 2-no                           
   RPACOR =    2.000    partial core radius                                     
   POMASS =   58.690; ZVAL   =   10.000    mass and valenz                      
   RCORE  =    2.300    outmost cutoff radius                                   
   RWIGS  =    2.430; RWIGS  =    1.286    wigner-seitz radius (au A)           
   ENMAX  =  269.532; ENMIN  =  202.149 eV                                      
   RCLOC  =    1.201    cutoff for local pot                                    
   LCOR   =        T    correct aug charges                                     
   LPAW   =        T    paw PP                                                  
   EAUG   =  544.565                                                            
   DEXC   =    0.000                                                            
   RMAX   =    2.357    core radius for proj-oper                               
   RAUG   =    1.300    factor for augmentation sphere                          
   RDEP   =    2.390    radius for radial grids                                 
   RDEPT  =    1.838    core radius for aug-charge                              
                                                                                
   Atomic configuration                                                         
    9 entries                                                                   
     n  l   j            E        occ.                                          
     1  0  0.50     -8206.4253   2.0000                                         
     2  0  0.50      -976.1748   2.0000                                         
     2  1  1.50      -839.0571   6.0000                                         
     3  0  0.50      -105.9991   2.0000                                         
     3  1  1.50       -66.4603   6.0000                                         
     3  2  2.50        -4.6458   9.0000                                         
     4  0  0.50        -4.4926   1.0000                                         
     4  1  1.50        -4.0817   0.0000                                         
     4  3  2.50        -1.3606   0.0000                                         
   Description                                                                  
     l       E           TYP  RCUT    TYP  RCUT                                 
     2     -4.6457903     23  2.300                                             
     2     -6.0063729     23  2.300                                             
     0     -4.4925590     23  2.300                                             
     0      5.0102601     23  2.300                                             
     1     -2.7211652     23  2.300                                             
     1     16.5183231     23  2.300                                             
  local pseudopotential read in
  partial core-charges read in
  partial kinetic energy density read in
  atomic valenz-charges read in
  non local Contribution for L=           2  read in
    real space projection operators read in
  non local Contribution for L=           2  read in
    real space projection operators read in
  non local Contribution for L=           0  read in
    real space projection operators read in
  non local Contribution for L=           0  read in
    real space projection operators read in
  non local Contribution for L=           1  read in
    real space projection operators read in
  non local Contribution for L=           1  read in
    real space projection operators read in
    PAW grid and wavefunctions read in
 
   number of l-projection  operators is LMAX  =           6
   number of lm-projection operators is LMMAX =          18
 
 POTCAR:    PAW_PBE Fe 06Sep2000                  
   VRHFIN =Fe:  d7 s1                                                           
   LEXCH  = PE                                                                  
   EATOM  =   594.3153 eV,   43.6809 Ry                                         
                                                                                
   TITEL  = PAW_PBE Fe 06Sep2000                                                
   LULTRA =        F    use ultrasoft PP ?                                      
   IUNSCR =        1    unscreen: 0-lin 1-nonlin 2-no                           
   RPACOR =    2.000    partial core radius                                     
   POMASS =   55.847; ZVAL   =    8.000    mass and valenz                      
   RCORE  =    2.300    outmost cutoff radius                                   
   RWIGS  =    2.460; RWIGS  =    1.302    wigner-seitz radius (au A)           
   ENMAX  =  267.882; ENMIN  =  200.911 eV                                      
   RCLOC  =    1.701    cutoff for local pot                                    
   LCOR   =        T    correct aug charges                                     
   LPAW   =        T    paw PP                                                  
   EAUG   =  511.368                                                            
   DEXC   =    0.000                                                            
   RMAX   =    2.356    core radius for proj-oper                               
   RAUG   =    1.300    factor for augmentation sphere                          
   RDEP   =    2.442    radius for radial grids                                 
   RDEPT  =    1.890    core radius for aug-charge                              
                                                                                
   Atomic configuration                                                         
    9 entries                                                                   
     n  l   j            E        occ.                                          
     1  0  0.50     -6993.8440   2.0000                                         
     2  0  0.50      -814.6047   2.0000                                         
     2  1  1.50      -693.3689   6.0000                                         
     3  0  0.50       -89.4732   2.0000                                         
     3  1  1.50       -55.6373   6.0000                                         
     3  2  2.50        -3.8151   7.0000                                         
     4  0  0.50        -4.2551   1.0000                                         
     4  1  1.50        -3.4015   0.0000                                         
     4  3  2.50        -1.3606   0.0000                                         
   Description                                                                  
     l       E           TYP  RCUT    TYP  RCUT                                 
     2     -3.8151135     23  2.300                                             
     2     -5.1756961     23  2.300                                             
     0     -4.2550963     23  2.300                                             
     0      7.2035603     23  2.300                                             
     1     -2.7211652     23  2.300                                             
     1     18.4316424     23  2.300                                             
  local pseudopotential read in
  partial core-charges read in
  partial kinetic energy density read in
  atomic valenz-charges read in
  non local Contribution for L=           2  read in
    real space projection operators read in
  non local Contribution for L=           2  read in
    real space projection operators read in
  non local Contribution for L=           0  read in
    real space projection operators read in
  non local Contribution for L=           0  read in
    real space projection operators read in
  non local Contribution for L=           1  read in
    real space projection operators read in
  non local Contribution for L=           1  read in
    real space projection operators read in
    PAW grid and wavefunctions read in
 
   number of l-projection  operators is LMAX  =           6
   number of lm-projection operators is LMMAX =          18
 
 POTCAR:    PAW_PBE Co 02Aug2007                  
   VRHFIN =Co: d8 s1                                                            
   LEXCH  = PE                                                                  
   EATOM  =   813.3670 eV,   59.7808 Ry                                         
                                                                                
   TITEL  = PAW_PBE Co 02Aug2007                                                
   LULTRA =        F    use ultrasoft PP ?                                      
   IUNSCR =        1    unscreen: 0-lin 1-nonlin 2-no                           
   RPACOR =    2.000    partial core radius                                     
   POMASS =   58.933; ZVAL   =    9.000    mass and valenz                      
   RCORE  =    2.300    outmost cutoff radius                                   
   RWIGS  =    2.460; RWIGS  =    1.302    wigner-seitz radius (au A)           
   ENMAX  =  267.968; ENMIN  =  200.976 eV                                      
   RCLOC  =    1.203    cutoff for local pot                                    
   LCOR   =        T    correct aug charges                                     
   LPAW   =        T    paw PP                                                  
   EAUG   =  477.818                                                            
   DEXC   =    0.000                                                            
   RMAX   =    2.360    core radius for proj-oper                               
   RAUG   =    1.300    factor for augmentation sphere                          
   RDEP   =    2.393    radius for radial grids                                 
   RDEPT  =    1.864    core radius for aug-charge                              
                                                                                
   Atomic configuration                                                         
    9 entries                                                                   
     n  l   j            E        occ.                                          
     1  0  0.50     -7587.6674   2.0000                                         
     2  0  0.50      -893.6084   2.0000                                         
     2  1  1.50      -764.5805   6.0000                                         
     3  0  0.50       -97.5973   2.0000                                         
     3  1  1.50       -60.9648   6.0000                                         
     3  2  2.50        -4.2382   8.0000                                         
     4  0  0.50        -4.3746   1.0000                                         
     4  1  1.50        -4.0817   0.0000                                         
     4  3  2.50        -1.3606   0.0000                                         
   Description                                                                  
     l       E           TYP  RCUT    TYP  RCUT                                 
     2     -4.2382362     23  2.300                                             
     2     -5.5988188     23  2.300                                             
     0     -4.3745797     23  2.300                                             
     0      5.7660125     23  2.300                                             
     1     -2.7211652     23  2.300                                             
     1     16.9860234     23  2.300                                             
  local pseudopotential read in
  partial core-charges read in
  partial kinetic energy density read in
  atomic valenz-charges read in
  non local Contribution for L=           2  read in
    real space projection operators read in
  non local Contribution for L=           2  read in
    real space projection operators read in
  non local Contribution for L=           0  read in
    real space projection operators read in
  non local Contribution for L=           0  read in
    real space projection operators read in
  non local Contribution for L=           1  read in
    real space projection operators read in
  non local Contribution for L=           1  read in
    real space projection operators read in
    PAW grid and wavefunctions read in
 
   number of l-projection  operators is LMAX  =           6
   number of lm-projection operators is LMMAX =          18
 
 POTCAR:    PAW_PBE H 15Jun2001                   
   VRHFIN =H: ultrasoft test                                                    
   LEXCH  = PE                                                                  
   EATOM  =    12.4884 eV,    0.9179 Ry                                         
                                                                                
   TITEL  = PAW_PBE H 15Jun2001                                                 
   LULTRA =        F    use ultrasoft PP ?                                      
   IUNSCR =        0    unscreen: 0-lin 1-nonlin 2-no                           
   RPACOR =    0.000    partial core radius                                     
   POMASS =    1.000; ZVAL   =    1.000    mass and valenz                      
   RCORE  =    1.100    outmost cutoff radius                                   
   RWIGS  =    0.700; RWIGS  =    0.370    wigner-seitz radius (au A)           
   ENMAX  =  250.000; ENMIN  =  200.000 eV                                      
   RCLOC  =    0.701    cutoff for local pot                                    
   LCOR   =        T    correct aug charges                                     
   LPAW   =        T    paw PP                                                  
   EAUG   =  400.000                                                            
   RMAX   =    1.123    core radius for proj-oper                               
   RAUG   =    1.200    factor for augmentation sphere                          
   RDEP   =    1.112    radius for radial grids                                 
   RDEPT  =    0.926    core radius for aug-charge                              
                                                                                
   Atomic configuration                                                         
    2 entries                                                                   
     n  l   j            E        occ.                                          
     1  0  0.50        -6.4927   1.0000                                         
     2  1  0.50        -3.4015   0.0000                                         
   Description                                                                  
     l       E           TYP  RCUT    TYP  RCUT                                 
     0     -6.4927494     23  1.100                                             
     0      6.8029130     23  1.100                                             
     1     -4.0817478     23  1.100                                             
  local pseudopotential read in
  atomic valenz-charges read in
  non local Contribution for L=           0  read in
    real space projection operators read in
  non local Contribution for L=           0  read in
    real space projection operators read in
  non local Contribution for L=           1  read in
    real space projection operators read in
    PAW grid and wavefunctions read in
 
   number of l-projection  operators is LMAX  =           3
   number of lm-projection operators is LMMAX =           5
 
 Optimization of the real space projectors (new method)

 maximal supplied QI-value         = 14.36
 optimisation between [QCUT,QGAM] = [ 11.92, 23.98] = [ 39.79,161.09] Ry 
 Optimized for a Real-space Cutoff    1.49 Angstroem

   l    n(q)    QCUT    max X(q) W(low)/X(q) W(high)/X(q)  e(spline) 
   2     10    11.920    66.195    0.79E-04    0.18E-03    0.24E-06
   2     10    11.920    64.643    0.81E-04    0.19E-03    0.24E-06
   0     11    11.920    95.520    0.28E-04    0.54E-04    0.18E-06
   0     11    11.920    63.403    0.27E-04    0.52E-04    0.17E-06
   1     10    11.920    19.961    0.18E-04    0.11E-03    0.23E-06
   1     10    11.920    13.289    0.25E-04    0.87E-04    0.19E-06
 Optimization of the real space projectors (new method)

 maximal supplied QI-value         = 16.25
 optimisation between [QCUT,QGAM] = [ 11.86, 23.89] = [ 39.41,159.82] Ry 
 Optimized for a Real-space Cutoff    1.49 Angstroem

   l    n(q)    QCUT    max X(q) W(low)/X(q) W(high)/X(q)  e(spline) 
   2     10    11.864     4.610    0.10E-03    0.20E-03    0.29E-06
   2     10    11.864     8.522    0.17E-03    0.33E-03    0.50E-06
   0     11    11.864    51.609    0.52E-04    0.55E-04    0.33E-06
   0     11    11.864    27.747    0.46E-04    0.52E-04    0.31E-06
   1     10    11.864    20.408    0.54E-04    0.25E-04    0.21E-06
   1     10    11.864    13.425    0.48E-04    0.22E-04    0.18E-06
 Optimization of the real space projectors (new method)

 maximal supplied QI-value         = 16.25
 optimisation between [QCUT,QGAM] = [ 11.86, 23.89] = [ 39.41,159.82] Ry 
 Optimized for a Real-space Cutoff    1.33 Angstroem

   l    n(q)    QCUT    max X(q) W(low)/X(q) W(high)/X(q)  e(spline) 
   2      9    11.864    60.317    0.21E-03    0.51E-03    0.25E-06
   2      9    11.864    55.921    0.21E-03    0.51E-03    0.26E-06
   0      9    11.864    51.690    0.22E-03    0.30E-04    0.17E-06
   0      9    11.864    30.015    0.20E-03    0.28E-04    0.15E-06
   1      9    11.864    18.849    0.76E-04    0.33E-03    0.17E-06
   1      9    11.864    14.624    0.60E-04    0.28E-03    0.15E-06
 Optimization of the real space projectors (new method)

 maximal supplied QI-value         = 16.25
 optimisation between [QCUT,QGAM] = [ 11.86, 23.89] = [ 39.41,159.82] Ry 
 Optimized for a Real-space Cutoff    1.49 Angstroem

   l    n(q)    QCUT    max X(q) W(low)/X(q) W(high)/X(q)  e(spline) 
   2     10    11.864    80.901    0.13E-03    0.23E-03    0.37E-06
   2     10    11.864    75.754    0.13E-03    0.23E-03    0.38E-06
   0     11    11.864    58.752    0.44E-04    0.11E-04    0.20E-06
   0     11    11.864    30.679    0.36E-04    0.10E-04    0.18E-06
   1     10    11.864    17.977    0.31E-04    0.45E-04    0.10E-06
   1     10    11.864    13.559    0.25E-04    0.37E-04    0.89E-07
 Optimization of the real space projectors (new method)

 maximal supplied QI-value         = 16.25
 optimisation between [QCUT,QGAM] = [ 11.86, 23.89] = [ 39.41,159.82] Ry 
 Optimized for a Real-space Cutoff    1.33 Angstroem

   l    n(q)    QCUT    max X(q) W(low)/X(q) W(high)/X(q)  e(spline) 
   2      9    11.864    65.824    0.22E-03    0.53E-03    0.26E-06
   2      9    11.864    61.429    0.22E-03    0.53E-03    0.26E-06
   0      9    11.864    56.174    0.21E-03    0.32E-04    0.15E-06
   0      9    11.864    31.263    0.19E-03    0.30E-04    0.14E-06
   1      9    11.864    19.828    0.63E-04    0.30E-03    0.16E-06
   1      9    11.864    15.139    0.49E-04    0.25E-03    0.13E-06
 Optimization of the real space projectors (new method)

 maximal supplied QI-value         = 34.20
 optimisation between [QCUT,QGAM] = [ 11.97, 23.94] = [ 40.13,160.53] Ry 
 Optimized for a Real-space Cutoff    1.18 Angstroem

   l    n(q)    QCUT    max X(q) W(low)/X(q) W(high)/X(q)  e(spline) 
   0      8    11.971    19.460    0.15E-03    0.31E-03    0.25E-06
   0      8    11.971    12.209    0.13E-03    0.29E-03    0.25E-06
   1      8    11.971     4.655    0.22E-03    0.24E-03    0.21E-06
  PAW_PBE Pt 04Feb2005                  :
 energy of atom  1       EATOM= -729.1176
 kinetic energy error for atom=    0.0021 (will be added to EATOM!!)
  PAW_PBE Cu 22Jun2005                  :
 energy of atom  2       EATOM=-1390.9808
 kinetic energy error for atom=    0.0036 (will be added to EATOM!!)
  PAW_PBE Ni 02Aug2007                  :
 energy of atom  3       EATOM=-1077.6739
 kinetic energy error for atom=    0.0027 (will be added to EATOM!!)
  PAW_PBE Fe 06Sep2000                  :
 energy of atom  4       EATOM= -594.3153
 kinetic energy error for atom=    0.0024 (will be added to EATOM!!)
  PAW_PBE Co 02Aug2007                  :
 energy of atom  5       EATOM= -813.3670
 kinetic energy error for atom=    0.0026 (will be added to EATOM!!)
  PAW_PBE H 15Jun2001                   :
 energy of atom  6       EATOM=  -12.4884
 kinetic energy error for atom=    0.0008 (will be added to EATOM!!)
 
 
 POSCAR: 10.56                                   
  positions in direct lattice
  velocities in cartesian coordinates
 exchange correlation table for  LEXCH =        8
   RHO(1)=    0.500       N(1)  =     2000
   RHO(2)=  100.500       N(2)  =     4000
 


--------------------------------------------------------------------------------------------------------


 ion  position               nearest neighbor table
   1  0.789  0.876  0.317-  49 2.57  59 2.58  19 2.62  61 2.65  60 2.66  33 2.67  29 2.67  28 2.71
                             2 2.72   4 2.82  12 2.84  11 2.90
   2  0.044  0.880  0.316-  79 2.55  77 2.57  60 2.61  30 2.64  22 2.65  28 2.66  52 2.68   1 2.72
                            33 2.73   6 2.76   4 2.82  16 2.87
   3  0.288  0.375  0.321-  39 2.60  64 2.61  33 2.61  68 2.65  31 2.66  19 2.67  43 2.68  30 2.72
                             5 2.76  18 2.78  25 2.81  13 2.91
   4  0.879  0.957  0.424-  16 2.63  12 2.65   6 2.65  17 2.65  11 2.65   9 2.65  60 2.70   2 2.82
                             1 2.82
   5  0.127  0.457  0.427-  13 2.62   7 2.63  10 2.63  12 2.63  16 2.65  25 2.65   3 2.76  39 2.79
                            33 2.79
   6  0.128  0.958  0.422-   8 2.61  10 2.63  14 2.64   4 2.65   9 2.65  16 2.65   2 2.76  52 2.82
                            22 2.88
   7  0.878  0.457  0.423-   9 2.63   5 2.63  15 2.63  10 2.63  12 2.63  27 2.66  39 2.70  29 2.73
                            75 2.77
   8  0.376  0.956  0.417-  81 1.95   6 2.61  14 2.62  43 2.62  27 2.63  10 2.65  52 2.65  61 2.66
                            11 2.67  13 2.69
   9  0.877  0.209  0.422-  17 2.62   7 2.63  15 2.64  10 2.64   6 2.65   4 2.65  60 2.65  75 2.72
                            22 2.83
  10  0.127  0.208  0.423-   6 2.63  13 2.63   7 2.63   5 2.63   9 2.64   8 2.65  43 2.73  39 2.73
                            22 2.82
  11  0.628  0.957  0.430-  81 1.81  12 2.64  27 2.64   4 2.65  17 2.67  13 2.67   8 2.67   1 2.90
                            19 2.93  61 2.94
  12  0.877  0.707  0.425-   5 2.63   7 2.63  16 2.64  11 2.64   4 2.65  27 2.65  33 2.75  29 2.82
                             1 2.84
  13  0.375  0.209  0.434-   5 2.62  10 2.63  25 2.66  11 2.67   8 2.69  17 2.69   3 2.91  43 2.97
                            19 3.00
  14  0.378  0.708  0.427-  27 2.62   8 2.62  25 2.63   6 2.64  15 2.64  16 2.65  44 2.76  30 2.79
                            52 2.88
  15  0.628  0.459  0.424-  27 2.62   7 2.63  17 2.64   9 2.64  14 2.64  25 2.65  44 2.76  18 2.78
                            75 2.80
  16  0.127  0.708  0.425-   4 2.63  25 2.63  12 2.64   5 2.65  14 2.65   6 2.65  33 2.77  30 2.78
                             2 2.87
  17  0.629  0.209  0.424-   9 2.62  15 2.64   4 2.65  25 2.66  11 2.67  60 2.68  13 2.69  18 2.76
                            19 2.88
  18  0.554  0.370  0.318-  67 2.53  75 2.55  60 2.57  68 2.60  44 2.68  26 2.68  19 2.73  30 2.75
                            17 2.76   3 2.78  15 2.78  25 2.91
  19  0.538  0.120  0.316-  59 2.55  80 2.55  68 2.57  43 2.59  61 2.61   1 2.62   3 2.67  18 2.73
                            60 2.74  17 2.88  11 2.93  13 3.00
  20  0.547  0.122  0.038-  57 2.54  37 2.59  48 2.60  62 2.60  47 2.60  34 2.65  45 2.68  63 2.71
                            56 2.75
  21  0.124  0.462  0.127-  36 2.55  47 2.57  40 2.58  58 2.61  42 2.61  64 2.63  31 2.66  69 2.66
                            50 2.67  74 2.69  70 2.69  57 2.69
  22  0.041  0.134  0.313-  65 2.47  75 2.54  55 2.54  77 2.57  39 2.59  43 2.59  60 2.65   2 2.65
                            52 2.74  10 2.82   9 2.83   6 2.88
  23  0.032  0.135  0.034-  70 2.57  62 2.59  40 2.59  41 2.60  76 2.63  45 2.70  24 2.70  35 2.71
                            53 2.86
  24  0.127  0.955  0.132-  79 2.52  55 2.55  53 2.61  35 2.62  77 2.62  58 2.62  73 2.64  70 2.65
                            38 2.67  66 2.68  23 2.70  41 2.74
  25  0.376  0.460  0.427-  16 2.63  14 2.63  15 2.65   5 2.65  17 2.66  13 2.66   3 2.81  30 2.84
                            18 2.91
  26  0.458  0.546  0.220-  73 2.50  74 2.51  51 2.53  79 2.60  64 2.61  30 2.65  68 2.66  18 2.68
                            32 2.69  44 2.70  78 2.71  67 2.74
  27  0.626  0.708  0.424-  14 2.62  15 2.62   8 2.63  11 2.64  12 2.65   7 2.66  44 2.70  29 2.75
                            61 2.78
  28  0.964  0.793  0.218-  66 2.54  50 2.56  58 2.58  77 2.63  42 2.64  64 2.65   2 2.66  79 2.68
                            59 2.70   1 2.71  49 2.75  33 2.75
  29  0.790  0.622  0.319-  42 2.59  44 2.60  32 2.61  39 2.61  75 2.64  61 2.65  33 2.66  49 2.66
                             1 2.67   7 2.73  27 2.75  12 2.82
  30  0.294  0.630  0.319-  79 2.57  64 2.60  44 2.61  52 2.62   2 2.64  26 2.65  33 2.70   3 2.72
                            18 2.75  16 2.78  14 2.79  25 2.84
  31  0.211  0.284  0.223-  57 2.55  70 2.55  65 2.59  43 2.61  55 2.61  80 2.64  21 2.66  39 2.66
                             3 2.66  68 2.67  42 2.71  64 2.72
  32  0.717  0.537  0.221-  69 2.51  54 2.56  51 2.57  65 2.60  29 2.61  42 2.61  67 2.64  75 2.64
                            49 2.68  26 2.69  44 2.74  78 2.78
  33  0.042  0.623  0.321-  42 2.57  39 2.59   3 2.61  64 2.63  29 2.66   1 2.67  30 2.70   2 2.73
                            12 2.75  28 2.75  16 2.77   5 2.79
  34  0.797  0.870  0.037-  50 2.48  66 2.50  36 2.54  48 2.61  35 2.62  63 2.64  71 2.65  20 2.65
                            62 2.72
  35  0.044  0.872  0.035-  58 2.56  36 2.57  66 2.61  24 2.62  34 2.62  72 2.70  23 2.71  62 2.72
                            53 2.74
  36  0.039  0.631  0.035-  58 2.54  34 2.54  21 2.55  35 2.57  50 2.59  40 2.68  71 2.72  72 2.76
                            47 2.78
  37  0.626  0.214  0.133-  68 2.52  59 2.52  67 2.52  41 2.56  51 2.57  56 2.58  66 2.59  20 2.59
                            74 2.60  62 2.60  57 2.64  48 2.76
  38  0.376  0.961  0.131-  80 2.47  53 2.51  55 2.53  78 2.53  63 2.53  45 2.55  54 2.58  48 2.61
                            57 2.62  24 2.67  70 2.69  73 2.69
  39  0.041  0.378  0.321-  33 2.59  22 2.59   3 2.60  42 2.60  29 2.61  75 2.63  31 2.66  65 2.66
                             7 2.70  43 2.70  10 2.73   5 2.79
  40  0.040  0.377  0.033-  69 2.55  21 2.58  23 2.59  76 2.61  70 2.61  45 2.66  71 2.67  36 2.68
                            47 2.81
  41  0.868  0.215  0.131-  67 2.47  65 2.53  76 2.53  77 2.53  37 2.56  51 2.56  62 2.57  69 2.59
                            23 2.60  70 2.61  66 2.63  24 2.74
  42  0.960  0.545  0.225-  33 2.57  29 2.59  39 2.60  50 2.61  32 2.61  21 2.61  28 2.64  64 2.65
                            69 2.68  65 2.69  49 2.70  31 2.71
  43  0.293  0.119  0.319-  52 2.54  55 2.57  22 2.59  19 2.59  31 2.61  61 2.61   8 2.62  80 2.64
                             3 2.68  39 2.70  10 2.73  13 2.97
  44  0.541  0.630  0.321-  61 2.56  52 2.56  29 2.60  30 2.61  78 2.64  18 2.68  27 2.70  26 2.70
                            75 2.73  32 2.74  15 2.76  14 2.76
  45  0.292  0.126  0.037-  38 2.55  57 2.57  70 2.59  40 2.66  53 2.66  20 2.68  23 2.70  47 2.70
                            63 2.74
  46  0.545  0.626  0.042-  73 2.43  51 2.44  54 2.47  71 2.53  53 2.54  76 2.54  63 2.55  72 2.56
                            56 2.56
  47  0.307  0.374  0.039-  74 2.45  57 2.52  56 2.54  21 2.57  20 2.60  72 2.62  45 2.70  36 2.78
                            40 2.81
  48  0.628  0.952  0.133-  49 2.43  80 2.48  59 2.50  63 2.52  50 2.54  54 2.54  20 2.60  34 2.61
                            66 2.61  38 2.61  57 2.66  37 2.76
  49  0.701  0.798  0.223-  48 2.43  54 2.51  80 2.51  61 2.55  78 2.56   1 2.57  50 2.57  59 2.60
                            29 2.66  32 2.68  42 2.70  28 2.75
  50  0.866  0.710  0.128-  71 2.42  34 2.48  48 2.54  28 2.56  49 2.57  54 2.58  36 2.59  42 2.61
                            69 2.64  21 2.67  66 2.71  58 2.84
  51  0.625  0.458  0.128-  56 2.42  76 2.43  46 2.44  26 2.53  41 2.56  37 2.57  32 2.57  74 2.58
                            73 2.62  69 2.63  67 2.64  54 2.70
  52  0.301  0.875  0.316-  78 2.46  55 2.50  79 2.50  61 2.51  43 2.54  44 2.56  30 2.62   8 2.65
                             2 2.68  22 2.74   6 2.82  14 2.88
  53  0.306  0.867  0.039-  73 2.44  38 2.51  46 2.54  63 2.56  72 2.59  24 2.61  45 2.66  35 2.74
                            23 2.86
  54  0.619  0.716  0.132-  63 2.41  71 2.47  46 2.47  49 2.51  78 2.53  48 2.54  32 2.56  38 2.58
                            50 2.58  73 2.61  51 2.70  69 2.72
  55  0.216  0.035  0.224-  52 2.50  78 2.50  79 2.52  38 2.53  22 2.54  24 2.55  43 2.57  80 2.59
                            31 2.61  70 2.62  65 2.68  77 2.79
  56  0.541  0.385  0.039-  51 2.42  74 2.47  72 2.50  47 2.54  46 2.56  37 2.58  76 2.61  62 2.65
                            20 2.75
  57  0.379  0.208  0.130-  47 2.52  20 2.54  31 2.55  68 2.55  80 2.56  45 2.57  38 2.62  37 2.64
                            74 2.66  48 2.66  21 2.69  70 2.75
  58  0.140  0.700  0.126-  72 2.40  74 2.53  36 2.54  73 2.54  35 2.56  28 2.58  21 2.61  64 2.62
                            24 2.62  79 2.68  50 2.84  66 2.84
  59  0.703  0.043  0.222-  48 2.50  37 2.52  19 2.55  66 2.57  77 2.58   1 2.58  49 2.60  80 2.61
                            68 2.61  67 2.65  28 2.70  60 2.73
  60  0.795  0.125  0.323-  18 2.57  77 2.58  75 2.59   2 2.61  67 2.63  22 2.65   9 2.65   1 2.66
                            17 2.68   4 2.70  59 2.73  19 2.74
  61  0.540  0.872  0.317-  78 2.46  52 2.51  49 2.55  44 2.56  80 2.57  43 2.61  19 2.61  29 2.65
                             1 2.65   8 2.66  27 2.78  11 2.94
  62  0.789  0.132  0.036-  66 2.52  41 2.57  23 2.59  20 2.60  37 2.60  56 2.65  76 2.70  35 2.72
                            34 2.72
  63  0.550  0.865  0.041-  54 2.41  71 2.50  48 2.52  38 2.53  46 2.55  53 2.56  34 2.64  20 2.71
                            45 2.74
  64  0.213  0.540  0.225-  74 2.59  30 2.60  68 2.60   3 2.61  26 2.61  58 2.62  21 2.63  33 2.63
                            42 2.65  28 2.65  79 2.71  31 2.72
  65  0.963  0.290  0.222-  70 2.46  22 2.47  41 2.53  69 2.59  31 2.59  32 2.60  67 2.61  75 2.62
                            77 2.63  39 2.66  55 2.68  42 2.69
  66  0.867  0.966  0.127-  34 2.50  62 2.52  28 2.54  59 2.57  77 2.58  37 2.59  35 2.61  48 2.61
                            41 2.63  24 2.68  50 2.71  58 2.84
  67  0.718  0.287  0.225-  77 2.44  41 2.47  37 2.52  18 2.53  75 2.54  65 2.61  60 2.63  51 2.64
                            32 2.64  59 2.65  68 2.70  26 2.74
  68  0.459  0.293  0.224-  37 2.52  57 2.55  19 2.57  74 2.58  18 2.60  64 2.60  59 2.61   3 2.65
                            26 2.66  31 2.67  67 2.70  80 2.73
  69  0.874  0.457  0.127-  76 2.36  71 2.40  32 2.51  40 2.55  65 2.59  70 2.59  41 2.59  51 2.63
                            50 2.64  21 2.66  42 2.68  54 2.72
  70  0.117  0.210  0.130-  65 2.46  31 2.55  23 2.57  69 2.59  45 2.59  41 2.61  40 2.61  55 2.62
                            24 2.65  38 2.69  21 2.69  57 2.75
  71  0.785  0.626  0.043-  69 2.40  50 2.42  54 2.47  76 2.50  63 2.50  46 2.53  34 2.65  40 2.67
                            36 2.72
  72  0.304  0.623  0.041-  73 2.38  58 2.40  74 2.44  56 2.50  46 2.56  53 2.59  47 2.62  35 2.70
                            36 2.76
  73  0.377  0.706  0.128-  72 2.38  46 2.43  53 2.44  26 2.50  58 2.54  74 2.59  79 2.60  54 2.61
                            51 2.62  24 2.64  78 2.68  38 2.69
  74  0.379  0.460  0.129-  72 2.44  47 2.45  56 2.47  26 2.51  58 2.53  51 2.58  68 2.58  73 2.59
                            64 2.59  37 2.60  57 2.66  21 2.69
  75  0.797  0.369  0.318-  67 2.54  22 2.54  18 2.55  60 2.59  65 2.62  39 2.63  29 2.64  32 2.64
                             9 2.72  44 2.73   7 2.77  15 2.80
  76  0.788  0.388  0.041-  69 2.36  51 2.43  71 2.50  41 2.53  46 2.54  40 2.61  56 2.61  23 2.63
                            62 2.70
  77  0.944  0.051  0.223-  67 2.44  41 2.53  22 2.57   2 2.57  66 2.58  60 2.58  59 2.58  24 2.62
                            65 2.63  28 2.63  55 2.79  79 2.79
  78  0.457  0.803  0.225-  52 2.46  61 2.46  80 2.47  55 2.50  38 2.53  54 2.53  49 2.56  79 2.58
                            44 2.64  73 2.68  26 2.71  32 2.78
  79  0.216  0.795  0.225-  52 2.50  24 2.52  55 2.52   2 2.55  30 2.57  78 2.58  73 2.60  26 2.60
                            58 2.68  28 2.68  64 2.71  77 2.79
  80  0.461  0.034  0.222-  78 2.47  38 2.47  48 2.48  49 2.51  19 2.55  57 2.56  61 2.57  55 2.59
                            59 2.61  31 2.64  43 2.64  68 2.73
  81  0.498  0.955  0.484-  11 1.81   8 1.95
 
  LATTYP: Found a hexagonal cell.
 ALAT       =    10.5600004196
 C/A-ratio  =     2.0833332505
  
  Lattice vectors:
  
 A1 = (   5.2800002098,  -9.1452286274,   0.0000000000)
 A2 = ( -10.5600004196,   0.0000000000,   0.0000000000)
 A3 = (   0.0000000000,   0.0000000000, -22.0000000000)


Analysis of symmetry for initial positions (statically):
=====================================================================
 Subroutine PRICEL returns:
 Original cell was already a primitive cell.
 

 Routine SETGRP: Setting up the symmetry group for a 
 hexagonal supercell.


 Subroutine GETGRP returns: Found  1 space group operations
 (whereof  1 operations were pure point group operations)
 out of a pool of 24 trial point group operations.


The static configuration has the point symmetry C_1 .


Analysis of symmetry for dynamics (positions and initial velocities):
=====================================================================
 Subroutine PRICEL returns:
 Original cell was already a primitive cell.
 

 Routine SETGRP: Setting up the symmetry group for a 
 hexagonal supercell.


 Subroutine GETGRP returns: Found  1 space group operations
 (whereof  1 operations were pure point group operations)
 out of a pool of 24 trial point group operations.


The dynamic configuration has the point symmetry C_1 .


Analysis of constrained symmetry for selective dynamics:
=====================================================================
 Subroutine PRICEL returns:
 Original cell was already a primitive cell.
 

 Routine SETGRP: Setting up the symmetry group for a 
 hexagonal supercell.


 Subroutine GETGRP returns: Found  1 space group operations
 (whereof  1 operations were pure point group operations)
 out of a pool of 24 trial point group operations.


The constrained configuration has the point symmetry C_1 .


Analysis of structural, dynamic, and magnetic symmetry:
=====================================================================
 Subroutine PRICEL returns:
 Original cell was already a primitive cell.
 

 Routine SETGRP: Setting up the symmetry group for a 
 hexagonal supercell.


 Subroutine GETGRP returns: Found  1 space group operations
 (whereof  1 operations were pure point group operations)
 out of a pool of 24 trial point group operations.


The magnetic configuration has the point symmetry C_1 .


 Subroutine INISYM returns: Found  1 space group operations
 (whereof  1 operations are pure point group operations),
 and found     1 'primitive' translations

 
 
 KPOINTS: mesh auto                               

Automatic generation of k-mesh.
Space group operators:
 irot       det(A)        alpha          n_x          n_y          n_z        tau_x        tau_y        tau_z
    1     1.000000     0.000001     1.000000     0.000000     0.000000     0.000000     0.000000     0.000000
 
 Subroutine IBZKPT returns following result:
 ===========================================
 
 Found      4 irreducible k-points:
 
 Following reciprocal coordinates:
            Coordinates               Weight
  0.000000  0.000000  0.000000      1.000000
  0.500000  0.000000  0.000000      1.000000
  0.000000  0.500000  0.000000      1.000000
  0.500000  0.500000  0.000000      1.000000
 
 Following cartesian coordinates:
            Coordinates               Weight
  0.000000  0.000000  0.000000      1.000000
  0.047348 -0.027337  0.000000      1.000000
  0.000000  0.054673  0.000000      1.000000
  0.047348  0.027337  0.000000      1.000000
 


--------------------------------------------------------------------------------------------------------




 Dimension of arrays:
   k-points           NKPTS =      4   k-points in BZ     NKDIM =      4   number of bands    NBANDS=    590
   number of dos      NEDOS =    301   number of ions     NIONS =     81
   non local maximal  LDIM  =      6   non local SUM 2l+1 LMDIM =     18
   total plane-waves  NPLWV = ******
   max r-space proj   IRMAX =   7802   max aug-charges    IRDMAX=  33988
   dimension x,y,z NGX =    84 NGY =   84 NGZ =  168
   dimension x,y,z NGXF=   168 NGYF=  168 NGZF=  336
   support grid    NGXF=   168 NGYF=  168 NGZF=  336
   ions per type =              32  13  10  13  12   1
   NGX,Y,Z   is equivalent  to a cutoff of  13.22, 13.22, 12.70 a.u.
   NGXF,Y,Z  is equivalent  to a cutoff of  26.45, 26.45, 25.39 a.u.

 SYSTEM =  Pt111                                   
 POSCAR =  10.56                                   

 Startparameter for this run:
   NWRITE =      2    write-flag & timer
   PREC   = accura    normal or accurate (medium, high low for compatibility)
   ISTART =      0    job   : 0-new  1-cont  2-samecut
   ICHARG =      2    charge: 1-file 2-atom 10-const
   ISPIN  =      2    spin polarized calculation?
   LNONCOLLINEAR =      F non collinear calculations
   LSORBIT =      F    spin-orbit coupling
   INIWAV =      1    electr: 0-lowe 1-rand  2-diag
   LASPH  =      F    aspherical Exc in radial PAW
   METAGGA=      F    non-selfconsistent MetaGGA calc.

 Electronic Relaxation 1
   ENCUT  =  550.0 eV  40.42 Ry    6.36 a.u.  20.19 20.19 42.07*2*pi/ulx,y,z
   ENINI  =  550.0     initial cutoff
   ENAUG  =  587.0 eV  augmentation charge cutoff
   NELM   =    200;   NELMIN=  2; NELMDL= -5     # of ELM steps 
   EDIFF  = 0.1E-04   stopping-criterion for ELM
   LREAL  =      T    real-space projection
   NLSPLINE    = F    spline interpolate recip. space projectors
   LCOMPAT=      F    compatible to vasp.4.4
   GGA_COMPAT  = T    GGA compatible to vasp.4.4-vasp.4.6
   LMAXPAW     = -100 max onsite density
   LMAXMIX     =    2 max onsite mixed and CHGCAR
   VOSKOWN=      0    Vosko Wilk Nusair interpolation
   ROPT   =   -0.00025  -0.00025  -0.00025  -0.00025
   ROPT   =   -0.00025  -0.00025
 Ionic relaxation
   EDIFFG = -.5E-01   stopping-criterion for IOM
   NSW    =    300    number of steps for IOM
   NBLOCK =      1;   KBLOCK =    300    inner block; outer block 
   IBRION =      2    ionic relax: 0-MD 1-quasi-New 2-CG
   NFREE  =      1    steps in history (QN), initial steepest desc. (CG)
   ISIF   =      2    stress and relaxation
   IWAVPR =     11    prediction:  0-non 1-charg 2-wave 3-comb
   ISYM   =      2    0-nonsym 1-usesym 2-fastsym
   LCORR  =      T    Harris-Foulkes like correction to forces

   POTIM  = 0.5000    time-step for ionic-motion
   TEIN   =    0.0    initial temperature
   TEBEG  =    0.0;   TEEND  =   0.0 temperature during run
   SMASS  =  -3.00    Nose mass-parameter (am)
   estimated Nose-frequenzy (Omega)   =  0.10E-29 period in steps =****** mass=  -0.255E-26a.u.
   SCALEE = 1.0000    scale energy and forces
   NPACO  =    256;   APACO  = 16.0  distance and # of slots for P.C.
   PSTRESS=    0.0 pullay stress

  Mass of Ions in am
   POMASS = 195.08 63.55 58.69 55.85 58.93  1.00
  Ionic Valenz
   ZVAL   =  10.00 11.00 10.00  8.00  9.00  1.00
  Atomic Wigner-Seitz radii
   RWIGS  =  -1.00 -1.00 -1.00 -1.00 -1.00 -1.00
  virtual crystal weights 
   VCA    =   1.00  1.00  1.00  1.00  1.00  1.00
   NELECT =     776.0000    total number of electrons
   NUPDOWN=      -1.0000    fix difference up-down

 DOS related values:
   EMIN   =  10.00;   EMAX   =-10.00  energy-range for DOS
   EFERMI =   0.00
   ISMEAR =     1;   SIGMA  =   0.10  broadening in eV -4-tet -1-fermi 0-gaus

 Electronic relaxation 2 (details)
   IALGO  =     68    algorithm
   LDIAG  =      T    sub-space diagonalisation (order eigenvalues)
   LSUBROT=      F    optimize rotation matrix (better conditioning)
   TURBO    =      0    0=normal 1=particle mesh
   IRESTART =      0    0=no restart 2=restart with 2 vectors
   NREBOOT  =      0    no. of reboots
   NMIN     =      0    reboot dimension
   EREF     =   0.00    reference energy to select bands
   IMIX   =      4    mixing-type and parameters
     AMIX     =   0.40;   BMIX     =  1.00
     AMIX_MAG =   1.60;   BMIX_MAG =  1.00
     AMIN     =   0.10
     WC   =   100.;   INIMIX=   1;  MIXPRE=   1;  MAXMIX= -45

 Intra band minimization:
   WEIMIN = 0.0010     energy-eigenvalue tresh-hold
   EBREAK =  0.42E-08  absolut break condition
   DEPER  =   0.30     relativ break condition  

   TIME   =   0.40     timestep for ELM

  volume/ion in A,a.u.               =      26.23       177.01
  Fermi-wavevector in a.u.,A,eV,Ry     =   1.170222  2.211399 18.632091  1.369420
  Thomas-Fermi vector in A             =   2.306684
 
 Write flags
   LWAVE        =      F    write WAVECAR
   LDOWNSAMPLE  =      F    k-point downsampling of WAVECAR
   LCHARG       =      F    write CHGCAR
   LVTOT        =      F    write LOCPOT, total local potential
   LVHAR        =      F    write LOCPOT, Hartree potential only
   LELF         =      F    write electronic localiz. function (ELF)
   LORBIT       =      0    0 simple, 1 ext, 2 COOP (PROOUT), +10 PAW based schemes


 Dipole corrections
   LMONO  =      F    monopole corrections only (constant potential shift)
   LDIPOL =      F    correct potential (dipole corrections)
   IDIPOL =      0    1-x, 2-y, 3-z, 4-all directions 
   EPSILON=  1.0000000 bulk dielectric constant

 Exchange correlation treatment:
   GGA     =    --    GGA type
   LEXCH   =     8    internal setting for exchange type
   VOSKOWN=      0    Vosko Wilk Nusair interpolation
   LHFCALC =     F    Hartree Fock is set to
   LHFONE  =     F    Hartree Fock one center treatment
   AEXX    =    0.0000 exact exchange contribution

 Linear response parameters
   LEPSILON=     F    determine dielectric tensor
   LRPA    =     F    only Hartree local field effects (RPA)
   LNABLA  =     F    use nabla operator in PAW spheres
   LVEL    =     F    velocity operator in full k-point grid
   LINTERFAST=   F  fast interpolation
   KINTER  =     0    interpolate to denser k-point grid
   CSHIFT  =0.1000    complex shift for real part using Kramers Kronig
   OMEGAMAX=  -1.0    maximum frequency
   DEG_THRESHOLD= 0.2000000E-02 threshold for treating states as degnerate
   RTIME   =   -0.100 relaxation time in fs
  (WPLASMAI=    0.000 imaginary part of plasma frequency in eV, 0.658/RTIME)
   DFIELD  = 0.0000000 0.0000000 0.0000000 field for delta impulse in time
 
 Orbital magnetization related:
   ORBITALMAG=     F  switch on orbital magnetization
   LCHIMAG   =     F  perturbation theory with respect to B field
   DQ        =  0.001000  dq finite difference perturbation B field
   LLRAUG    =     F  two centre corrections for induced B field



--------------------------------------------------------------------------------------------------------


 conjugate gradient relaxation of ions
   using selective dynamics as specified on POSCAR
 charge density and potential will be updated during run
 spin polarized calculation
 RMM-DIIS sequential band-by-band and
  variant of blocked Davidson during initial phase
 perform sub-space diagonalisation
    before iterative eigenvector-optimisation
 modified Broyden-mixing scheme, WC =      100.0
 initial mixing is a Kerker type mixing with AMIX =  0.4000 and BMIX =      1.0000
 Hartree-type preconditioning will be used
 using additional bands          202
 real space projection scheme for non local part
 use partial core corrections
 calculate Harris-corrections to forces 
   (improved forces if not selfconsistent)
 use gradient corrections 
 use of overlap-Matrix (Vanderbilt PP)
 Methfessel and Paxton  Order N= 1 SIGMA  =   0.10


--------------------------------------------------------------------------------------------------------


  energy-cutoff  :      550.00
  volume of cell :     2124.62
      direct lattice vectors                 reciprocal lattice vectors
    10.560000420  0.000000000  0.000000000     0.094696966 -0.054673319  0.000000000
     5.280000210  9.145228627  0.000000000     0.000000000  0.109346638  0.000000000
     0.000000000  0.000000000 22.000000000     0.000000000  0.000000000  0.045454545

  length of vectors
    10.560000420 10.560000420 22.000000000     0.109346638  0.109346638  0.045454545


 
 k-points in units of 2pi/SCALE and weight: mesh auto                               
   0.00000000  0.00000000  0.00000000       0.250
   0.04734848 -0.02733666  0.00000000       0.250
   0.00000000  0.05467332  0.00000000       0.250
   0.04734848  0.02733666  0.00000000       0.250
 
 k-points in reciprocal lattice and weights: mesh auto                               
   0.00000000  0.00000000  0.00000000       0.250
   0.50000000  0.00000000  0.00000000       0.250
   0.00000000  0.50000000  0.00000000       0.250
   0.50000000  0.50000000  0.00000000       0.250
 
 position of ions in fractional coordinates (direct lattice) 
   0.78913511  0.87589419  0.31707907
   0.04443017  0.88039310  0.31609593
   0.28848172  0.37530856  0.32119295
   0.87865111  0.95655658  0.42404766
   0.12663411  0.45706700  0.42710110
   0.12849459  0.95803029  0.42197377
   0.87785239  0.45699516  0.42251564
   0.37645654  0.95599041  0.41724226
   0.87697341  0.20862855  0.42230537
   0.12717619  0.20762717  0.42253081
   0.62776223  0.95664343  0.43043835
   0.87746247  0.70655250  0.42535157
   0.37456264  0.20910149  0.43400826
   0.37776600  0.70815003  0.42679109
   0.62780822  0.45867640  0.42438985
   0.12698805  0.70756033  0.42498952
   0.62886664  0.20859463  0.42359459
   0.55440270  0.36961331  0.31754170
   0.53809724  0.12009676  0.31580071
   0.54745577  0.12241455  0.03835403
   0.12360644  0.46198687  0.12740666
   0.04067324  0.13352848  0.31326808
   0.03235129  0.13482511  0.03441534
   0.12671306  0.95484959  0.13162708
   0.37644213  0.45964110  0.42704494
   0.45779299  0.54562474  0.22008560
   0.62565076  0.70782843  0.42351706
   0.96413863  0.79272622  0.21761397
   0.79049871  0.62204445  0.31892329
   0.29367838  0.62999481  0.31923927
   0.21123592  0.28374023  0.22269626
   0.71709822  0.53685317  0.22058810
   0.04163063  0.62317142  0.32077232
   0.79720004  0.86975892  0.03740235
   0.04406258  0.87221915  0.03450723
   0.03926108  0.63118460  0.03512204
   0.62574752  0.21423502  0.13267817
   0.37608349  0.96104394  0.13055742
   0.04107834  0.37819662  0.32052007
   0.03961706  0.37680314  0.03348892
   0.86761936  0.21521963  0.13097207
   0.95962679  0.54542694  0.22473188
   0.29291009  0.11922694  0.31940194
   0.54086036  0.62958722  0.32126805
   0.29178315  0.12606023  0.03725420
   0.54545151  0.62597825  0.04206242
   0.30678791  0.37356804  0.03912988
   0.62788283  0.95185769  0.13263039
   0.70142059  0.79820208  0.22280830
   0.86633517  0.71047377  0.12834734
   0.62467538  0.45773867  0.12814478
   0.30116215  0.87460182  0.31587091
   0.30615091  0.86696452  0.03949459
   0.61892989  0.71603521  0.13157826
   0.21580132  0.03462027  0.22396955
   0.54130035  0.38549347  0.03924212
   0.37935969  0.20774149  0.13048593
   0.13970060  0.70042731  0.12601187
   0.70329280  0.04306983  0.22237866
   0.79517618  0.12479579  0.32326843
   0.53971500  0.87226411  0.31739051
   0.78866377  0.13163117  0.03568706
   0.55002307  0.86477454  0.04096764
   0.21334288  0.54014670  0.22460931
   0.96280137  0.28964998  0.22158834
   0.86740749  0.96641026  0.12740667
   0.71753219  0.28687300  0.22453182
   0.45915719  0.29304584  0.22376919
   0.87387308  0.45689803  0.12677291
   0.11726506  0.21049175  0.13008946
   0.78478084  0.62565658  0.04309165
   0.30446760  0.62284293  0.04138738
   0.37746416  0.70582480  0.12774454
   0.37902910  0.46003850  0.12899471
   0.79653178  0.36886525  0.31834255
   0.78782398  0.38752064  0.04111567
   0.94385566  0.05104212  0.22344851
   0.45702340  0.80263442  0.22502694
   0.21629647  0.79533135  0.22474012
   0.46108857  0.03393525  0.22161390
   0.49833894  0.95534535  0.48385905
 
 position of ions in cartesian coordinates  (Angst):
  12.95798865  8.01025264  6.97573950
   5.11765837  8.05139616  6.95411039
   5.02799636  3.43228258  7.06624489
  14.32917503  8.74792858  9.32904857
   3.75057010  4.17998224  9.39622426
   6.41530310  8.76140608  9.28342291
  11.68305615  4.17932523  9.29534411
   9.02301079  8.74275083  9.17932968
  10.36239833  1.90795581  9.29071812
   2.43925210  1.89879792  9.29567772
  11.68024692  8.74872289  9.46964363
  12.99660139  6.46158419  9.35773450
   5.05943758  1.91228095  9.54818171
   7.72824148  6.47619394  9.38940403
   9.05146653  4.19470052  9.33657679
   5.07691252  6.47080101  9.34976940
   7.74221166  1.90764554  9.31908098
   7.80605108  3.38019819  6.98591741
   6.31641796  1.09831234  6.94761560
   6.42748199  1.11950902  0.84378857
   3.74457485  4.22497551  2.80294662
   1.13453985  1.22114847  6.89189780
   1.05350625  1.23300646  0.75713746
   6.37969601  8.73231780  2.89579587
   6.40213416  4.20352295  9.39498877
   7.71519296  4.98986301  4.84188323
  10.34420649  6.47325281  9.31737539
  14.36689896  7.24966250  4.78750741
  11.63206156  5.68873872  7.01631229
   6.42761657  5.76144660  7.02326391
   3.72879985  2.59486929  4.89931774
  10.40714241  4.90964500  4.85293829
   3.72996475  5.69904513  7.05699107
  13.01076010  7.95414421  0.82285169
   5.07061818  7.97664351  0.75915899
   3.74725186  5.77232751  0.77268479
   7.73905501  1.95922823  2.91891969
   9.04575401  8.78896659  2.87226322
   2.43066551  3.45869453  7.05144163
   2.40787681  3.44595088  0.73675630
  10.29842047  1.96823277  2.88138548
  13.01351367  4.98805409  4.94410139
   3.72264894  1.09035760  7.02684268
   9.03570629  5.75771904  7.06789700
   3.74682824  1.15284966  0.81959249
   9.06513349  5.72471418  0.92537331
   5.21211980  3.41636512  0.86085731
  11.65625177  8.70495616  2.91786869
  11.62150883  7.29974048  4.90178269
  12.89980144  6.49744505  2.82364142
   9.01343253  4.18612478  2.81918506
   7.79817026  7.99843358  6.94916002
   7.81052654  7.92858872  0.86888091
  10.31656596  6.54830568  2.89472164
   2.46165709  0.31661030  4.92733016
   7.75153750  3.52542591  0.86332671
   5.10291361  1.89984346  2.87069041
   5.17349471  6.40556785  2.77226120
   7.65418102  0.39388344  4.89233061
   9.05598255  1.14128600  7.11190551
  10.30494533  7.97705472  6.98259132
   9.02330237  1.20379713  0.78511532
  10.37425363  7.90856090  0.90128811
   5.10487562  4.93976509  4.94140483
  11.69653478  2.64891530  4.87494337
  14.26246981  8.83804282  2.80294666
   9.09182970  2.62351917  4.93970002
   6.39598222  2.67997121  4.92292219
  11.64052176  4.17843690  2.78900405
   2.34971562  1.92499520  2.86196808
  11.59075286  5.72177244  0.94801637
   6.50378879  5.69604102  0.91052233
   7.71277679  6.45492912  2.81037998
   6.43155077  4.20715724  2.83788366
  10.35898459  3.37335706  7.00353606
  10.36553066  3.54396488  0.90454481
  10.23661853  0.46679185  4.91586728
   9.06407717  7.34027527  4.95059278
   6.48344052  7.27348698  4.94428261
   5.04827358  0.31034563  4.87550584
  10.30668303  8.73685161 10.64489913
 


--------------------------------------------------------------------------------------------------------


 k-point  1 :   0.0000 0.0000 0.0000  plane waves:   62167
 k-point  2 :   0.5000 0.0000 0.0000  plane waves:   62242
 k-point  3 :   0.0000 0.5000 0.0000  plane waves:   62242
 k-point  4 :   0.5000 0.5000 0.0000  plane waves:   62242

 maximum and minimum number of plane-waves per node :     15586    15521

 maximum number of plane-waves:     62242
 maximum index in each direction: 
   IXMAX=   20   IYMAX=   20   IZMAX=   42
   IXMIN=  -20   IYMIN=  -20   IZMIN=  -42


 real space projection operators:
  total allocation   :      77802.15 KBytes
  max/ min on nodes  :      19465.05      19426.96


 parallel 3D FFT for wavefunctions:
    minimum data exchange during FFTs selected (reduces bandwidth)
 parallel 3D FFT for charge:
    minimum data exchange during FFTs selected (reduces bandwidth)


 total amount of memory used by VASP MPI-rank0   259142. kBytes
=======================================================================

   base      :      30000. kBytes
   nonlr-proj:      34688. kBytes
   fftplans  :      17962. kBytes
   grid      :      55536. kBytes
   one-center:        653. kBytes
   wavefun   :     120303. kBytes
 
     INWAV:  cpu time    0.0000: real time    0.0000
 Broyden mixing: mesh for mixing (old mesh)
   NGX = 41   NGY = 41   NGZ = 85
  (NGX  =168   NGY  =168   NGZ  =336)
  gives a total of 142885 points

 initial charge density was supplied:
 charge density of overlapping atoms calculated
 number of electron     776.0000000 magnetization     233.0000000
 keeping initial charge density in first step


--------------------------------------------------------------------------------------------------------


 Maximum index for non-local projection operator         1903
 Maximum index for augmentation-charges         2130 (set IRDMAX)


--------------------------------------------------------------------------------------------------------


 First call to EWALD:  gamma=   0.138
 Maximum number of real-space cells 4x 4x 2
 Maximum number of reciprocal cells 2x 2x 4

    FEWALD:  cpu time    0.0039: real time    0.0039


--------------------------------------- Iteration      1(   1)  ---------------------------------------


    POTLOK:  cpu time    0.4234: real time    0.4552
    SETDIJ:  cpu time    0.0508: real time    0.0513
     EDDAV:  cpu time   67.9794: real time   68.4305
       DOS:  cpu time    0.0018: real time    0.0018
    --------------------------------------------
      LOOP:  cpu time   68.4553: real time   68.9388

 eigenvalue-minimisations  :  9440
 total energy-change (2. order) : 0.7882771E+04  (-0.3281215E+05)
 number of electron     776.0000000 magnetization     233.0000000
 augmentation part      776.0000000 magnetization     233.0000000

 Free energy of the ion-electron system (eV)
  ---------------------------------------------------
  alpha Z        PSCENC =      2230.33460859
  Ewald energy   TEWEN  =    216877.01574513
  -Hartree energ DENC   =   -288606.09984736
  -exchange      EXHF   =         0.00000000
  -V(xc)+E(xc)   XCENC  =      1359.37337759
  PAW double counting   =     63651.30740739   -65525.53323748
  entropy T*S    EENTRO =         0.00673718
  eigenvalues    EBANDS =      8206.32525230
  atomic energy  EATOM  =     69690.04112127
  Solvation  Ediel_sol  =         0.00000000
  ---------------------------------------------------
  free energy    TOTEN  =      7882.77116463 eV

  energy without entropy =     7882.76442745  energy(sigma->0) =     7882.76891890


--------------------------------------------------------------------------------------------------------




--------------------------------------- Iteration      1(   2)  ---------------------------------------


     EDDAV:  cpu time   68.3425: real time   68.8342
       DOS:  cpu time    0.0018: real time    0.0018
    --------------------------------------------
      LOOP:  cpu time   68.3443: real time   68.8360

 eigenvalue-minimisations  :  9440
 total energy-change (2. order) :-0.7039638E+04  (-0.6288243E+04)
 number of electron     776.0000000 magnetization     233.0000000
 augmentation part      776.0000000 magnetization     233.0000000

 Free energy of the ion-electron system (eV)
  ---------------------------------------------------
  alpha Z        PSCENC =      2230.33460859
  Ewald energy   TEWEN  =    216877.01574513
  -Hartree energ DENC   =   -288606.09984736
  -exchange      EXHF   =         0.00000000
  -V(xc)+E(xc)   XCENC  =      1359.37337759
  PAW double counting   =     63651.30740739   -65525.53323748
  entropy T*S    EENTRO =         0.00642166
  eigenvalues    EBANDS =      1166.68779299
  atomic energy  EATOM  =     69690.04112127
  Solvation  Ediel_sol  =         0.00000000
  ---------------------------------------------------
  free energy    TOTEN  =       843.13338980 eV

  energy without entropy =      843.12696813  energy(sigma->0) =      843.13124924


--------------------------------------------------------------------------------------------------------




--------------------------------------- Iteration      1(   3)  ---------------------------------------


     EDDAV:  cpu time   67.5014: real time   67.7659
       DOS:  cpu time    0.0022: real time    0.0021
    --------------------------------------------
      LOOP:  cpu time   67.5036: real time   67.7680

 eigenvalue-minimisations  :  9440
 total energy-change (2. order) :-0.1220887E+04  (-0.9873089E+03)
 number of electron     776.0000000 magnetization     233.0000000
 augmentation part      776.0000000 magnetization     233.0000000

 Free energy of the ion-electron system (eV)
  ---------------------------------------------------
  alpha Z        PSCENC =      2230.33460859
  Ewald energy   TEWEN  =    216877.01574513
  -Hartree energ DENC   =   -288606.09984736
  -exchange      EXHF   =         0.00000000
  -V(xc)+E(xc)   XCENC  =      1359.37337759
  PAW double counting   =     63651.30740739   -65525.53323748
  entropy T*S    EENTRO =         0.00242369
  eigenvalues    EBANDS =       -54.19486492
  atomic energy  EATOM  =     69690.04112127
  Solvation  Ediel_sol  =         0.00000000
  ---------------------------------------------------
  free energy    TOTEN  =      -377.75326608 eV

  energy without entropy =     -377.75568977  energy(sigma->0) =     -377.75407398


--------------------------------------------------------------------------------------------------------




--------------------------------------- Iteration      1(   4)  ---------------------------------------


     EDDAV:  cpu time   80.9501: real time   81.5144
       DOS:  cpu time    0.0021: real time    0.0021
    --------------------------------------------
      LOOP:  cpu time   80.9522: real time   81.5165

 eigenvalue-minimisations  : 11750
 total energy-change (2. order) :-0.1171620E+03  (-0.1077372E+03)
 number of electron     776.0000000 magnetization     233.0000000
 augmentation part      776.0000000 magnetization     233.0000000

 Free energy of the ion-electron system (eV)
  ---------------------------------------------------
  alpha Z        PSCENC =      2230.33460859
  Ewald energy   TEWEN  =    216877.01574513
  -Hartree energ DENC   =   -288606.09984736
  -exchange      EXHF   =         0.00000000
  -V(xc)+E(xc)   XCENC  =      1359.37337759
  PAW double counting   =     63651.30740739   -65525.53323748
  entropy T*S    EENTRO =         0.00101213
  eigenvalues    EBANDS =      -171.35548043
  atomic energy  EATOM  =     69690.04112127
  Solvation  Ediel_sol  =         0.00000000
  ---------------------------------------------------
  free energy    TOTEN  =      -494.91529316 eV

  energy without entropy =     -494.91630529  energy(sigma->0) =     -494.91563053


--------------------------------------------------------------------------------------------------------




--------------------------------------- Iteration      1(   5)  ---------------------------------------


     EDDAV:  cpu time   76.5391: real time   76.7691
       DOS:  cpu time    0.0021: real time    0.0021
    CHARGE:  cpu time    4.2442: real time    4.2560
    MIXING:  cpu time    0.0091: real time    0.0098
    --------------------------------------------
      LOOP:  cpu time   80.7945: real time   81.0370

 eigenvalue-minimisations  : 11140
 total energy-change (2. order) :-0.4415711E+01  (-0.4382596E+01)
 number of electron     776.0000022 magnetization     218.1290307
 augmentation part      332.9904682 magnetization     187.1275169

 Broyden mixing:
  rms(total) = 0.11815E+02    rms(broyden)= 0.11815E+02
  rms(prec ) = 0.12119E+02
  weight for this iteration     100.00

 Free energy of the ion-electron system (eV)
  ---------------------------------------------------
  alpha Z        PSCENC =      2230.33460859
  Ewald energy   TEWEN  =    216877.01574513
  -Hartree energ DENC   =   -288606.09984736
  -exchange      EXHF   =         0.00000000
  -V(xc)+E(xc)   XCENC  =      1359.37337759
  PAW double counting   =     63651.30740739   -65525.53323748
  entropy T*S    EENTRO =         0.00096984
  eigenvalues    EBANDS =      -175.77114907
  atomic energy  EATOM  =     69690.04112127
  Solvation  Ediel_sol  =         0.00000000
  ---------------------------------------------------
  free energy    TOTEN  =      -499.33100409 eV

  energy without entropy =     -499.33197393  energy(sigma->0) =     -499.33132737


--------------------------------------------------------------------------------------------------------




--------------------------------------- Iteration      1(   6)  ---------------------------------------


    POTLOK:  cpu time    0.4076: real time    0.4090
    SETDIJ:  cpu time    0.0319: real time    0.0320
    EDDIAG:  cpu time   11.8041: real time   11.8497
  RMM-DIIS:  cpu time   41.2223: real time   41.4521
    ORTHCH:  cpu time    1.3245: real time    1.3280
       DOS:  cpu time    0.0018: real time    0.0018
    CHARGE:  cpu time    4.1430: real time    4.1544
    MIXING:  cpu time    0.0099: real time    0.0102
    --------------------------------------------
      LOOP:  cpu time   58.9452: real time   59.2371

 eigenvalue-minimisations  :  9545
 total energy-change (2. order) :-0.1387746E+03  (-0.8729651E+02)
 number of electron     776.0000030 magnetization     213.9119880
 augmentation part      401.7150667 magnetization     180.2250302

 Broyden mixing:
  rms(total) = 0.18280E+02    rms(broyden)= 0.18280E+02
  rms(prec ) = 0.24318E+02
  weight for this iteration     100.00

 eigenvalues of (default mixing * dielectric matrix)
  average eigenvalue GAMMA=   0.2527
  0.2527

 Free energy of the ion-electron system (eV)
  ---------------------------------------------------
  alpha Z        PSCENC =      2230.33460859
  Ewald energy   TEWEN  =    216877.01574513
  -Hartree energ DENC   =   -287026.47644496
  -exchange      EXHF   =         0.00000000
  -V(xc)+E(xc)   XCENC  =      1312.19324162
  PAW double counting   =     68760.70300454   -70425.09588141
  entropy T*S    EENTRO =         0.00879122
  eigenvalues    EBANDS =     -2056.82978044
  atomic energy  EATOM  =     69690.04112127
  Solvation  Ediel_sol  =         0.00000000
  ---------------------------------------------------
  free energy    TOTEN  =      -638.10559443 eV

  energy without entropy =     -638.11438566  energy(sigma->0) =     -638.10852484


--------------------------------------------------------------------------------------------------------




--------------------------------------- Iteration      1(   7)  ---------------------------------------


    POTLOK:  cpu time    0.4110: real time    0.4123
    SETDIJ:  cpu time    0.0322: real time    0.0322
    EDDIAG:  cpu time   11.7547: real time   11.7872
  RMM-DIIS:  cpu time   40.5859: real time   40.6977
    ORTHCH:  cpu time    1.3225: real time    1.3264
       DOS:  cpu time    0.0020: real time    0.0020
    CHARGE:  cpu time    4.2243: real time    4.2358
    MIXING:  cpu time    0.0111: real time    0.0111
    --------------------------------------------
      LOOP:  cpu time   58.3437: real time   58.5047

 eigenvalue-minimisations  :  9457
 total energy-change (2. order) : 0.9084796E+02  (-0.1629303E+02)
 number of electron     776.0000023 magnetization     208.1918860
 augmentation part      360.8926784 magnetization     164.3885699

 Broyden mixing:
  rms(total) = 0.15133E+02    rms(broyden)= 0.15133E+02
  rms(prec ) = 0.20083E+02
  weight for this iteration     100.00

 eigenvalues of (default mixing * dielectric matrix)
  average eigenvalue GAMMA=   0.3160
  0.4806  0.1514

 Free energy of the ion-electron system (eV)
  ---------------------------------------------------
  alpha Z        PSCENC =      2230.33460859
  Ewald energy   TEWEN  =    216877.01574513
  -Hartree energ DENC   =   -287781.57347350
  -exchange      EXHF   =         0.00000000
  -V(xc)+E(xc)   XCENC  =      1331.02651961
  PAW double counting   =     69857.88056342   -71689.35375232
  entropy T*S    EENTRO =         0.00807494
  eigenvalues    EBANDS =     -1062.63704584
  atomic energy  EATOM  =     69690.04112127
  Solvation  Ediel_sol  =         0.00000000
  ---------------------------------------------------
  free energy    TOTEN  =      -547.25763870 eV

  energy without entropy =     -547.26571364  energy(sigma->0) =     -547.26033034


--------------------------------------------------------------------------------------------------------




--------------------------------------- Iteration      1(   8)  ---------------------------------------


    POTLOK:  cpu time    0.4093: real time    0.4103
    SETDIJ:  cpu time    0.0322: real time    0.0323
    EDDIAG:  cpu time   11.7342: real time   11.7671
  RMM-DIIS:  cpu time   40.9407: real time   41.1527
    ORTHCH:  cpu time    1.3518: real time    1.3626
       DOS:  cpu time    0.0020: real time    0.0020
    CHARGE:  cpu time    4.2352: real time    4.2743
    MIXING:  cpu time    0.0098: real time    0.0099
    --------------------------------------------
      LOOP:  cpu time   58.7152: real time   59.0111

 eigenvalue-minimisations  :  9459
 total energy-change (2. order) : 0.4237576E+02  (-0.1219728E+02)
 number of electron     776.0000028 magnetization     202.2379639
 augmentation part      365.6214508 magnetization     160.7101308

 Broyden mixing:
  rms(total) = 0.16639E+02    rms(broyden)= 0.16638E+02
  rms(prec ) = 0.19500E+02
  weight for this iteration     100.00

 eigenvalues of (default mixing * dielectric matrix)
  average eigenvalue GAMMA=   0.3180
  0.6263  0.2381  0.0896

 Free energy of the ion-electron system (eV)
  ---------------------------------------------------
  alpha Z        PSCENC =      2230.33460859
  Ewald energy   TEWEN  =    216877.01574513
  -Hartree energ DENC   =   -288054.68026579
  -exchange      EXHF   =         0.00000000
  -V(xc)+E(xc)   XCENC  =      1338.46805982
  PAW double counting   =     71401.89919532   -73322.87114374
  entropy T*S    EENTRO =        -0.00818677
  eigenvalues    EBANDS =      -665.08101252
  atomic energy  EATOM  =     69690.04112127
  Solvation  Ediel_sol  =         0.00000000
  ---------------------------------------------------
  free energy    TOTEN  =      -504.88187869 eV

  energy without entropy =     -504.87369192  energy(sigma->0) =     -504.87914977


--------------------------------------------------------------------------------------------------------




--------------------------------------- Iteration      1(   9)  ---------------------------------------


    POTLOK:  cpu time    0.4202: real time    0.4232
    SETDIJ:  cpu time    0.0324: real time    0.0326
    EDDIAG:  cpu time   11.7821: real time   11.8589
  RMM-DIIS:  cpu time   41.1313: real time   41.2444
    ORTHCH:  cpu time    1.3226: real time    1.3263
       DOS:  cpu time    0.0022: real time    0.0022
    CHARGE:  cpu time    4.1677: real time    4.1790
    MIXING:  cpu time    0.0117: real time    0.0117
    --------------------------------------------
      LOOP:  cpu time   58.8701: real time   59.0782

 eigenvalue-minimisations  :  9480
 total energy-change (2. order) : 0.1162526E+03  (-0.1266272E+02)
 number of electron     776.0000021 magnetization     194.8247521
 augmentation part      368.3967375 magnetization     152.5505945

 Broyden mixing:
  rms(total) = 0.12950E+02    rms(broyden)= 0.12950E+02
  rms(prec ) = 0.15116E+02
  weight for this iteration     100.00

 eigenvalues of (default mixing * dielectric matrix)
  average eigenvalue GAMMA=   0.3799
  0.9615  0.3239  0.1022  0.1321

 Free energy of the ion-electron system (eV)
  ---------------------------------------------------
  alpha Z        PSCENC =      2230.33460859
  Ewald energy   TEWEN  =    216877.01574513
  -Hartree energ DENC   =   -287703.61350089
  -exchange      EXHF   =         0.00000000
  -V(xc)+E(xc)   XCENC  =      1353.88901480
  PAW double counting   =     72666.80615703   -74624.48934292
  entropy T*S    EENTRO =        -0.00371515
  eigenvalues    EBANDS =      -878.60934201
  atomic energy  EATOM  =     69690.04112127
  Solvation  Ediel_sol  =         0.00000000
  ---------------------------------------------------
  free energy    TOTEN  =      -388.62925415 eV

  energy without entropy =     -388.62553900  energy(sigma->0) =     -388.62801577


[...]
   -.200E+01 -.182E+02 -.286E+04   0.179E+01 0.184E+02 0.286E+04   0.210E+00 -.185E+00 0.113E+01   0.540E-02 -.328E-03 -.716E-02
   -.241E+02 -.574E+01 -.296E+04   0.240E+02 0.569E+01 0.296E+04   0.314E-02 0.124E+00 0.925E+00   -.514E-02 -.295E-01 -.104E-01
   0.474E+02 -.642E+01 -.288E+04   -.471E+02 0.622E+01 0.287E+04   -.349E+00 0.150E+00 0.956E+00   0.347E-01 0.122E-02 -.347E-01
   0.317E+02 0.293E+01 -.292E+04   -.316E+02 -.309E+01 0.292E+04   -.161E-01 0.144E+00 0.114E+01   0.671E-02 -.139E-01 -.423E-01
   -.110E+01 0.517E+01 -.290E+04   0.542E+00 -.542E+01 0.290E+04   0.568E+00 0.275E+00 0.944E+00   -.995E-02 0.104E-01 -.596E-01
   0.249E+02 0.258E+02 -.288E+04   -.253E+02 -.256E+02 0.288E+04   0.279E+00 -.243E+00 0.164E+01   0.166E-01 0.221E-01 -.136E-01
   0.284E+02 0.141E+02 -.293E+04   -.284E+02 -.140E+02 0.293E+04   0.106E+00 -.666E-01 0.751E+00   0.207E-01 0.941E-02 -.409E-01
   -.506E+02 -.122E+02 -.288E+04   0.499E+02 0.122E+02 0.288E+04   0.689E+00 -.594E-01 -.111E+01   -.731E-02 0.415E-02 0.226E-01
   0.719E+01 -.429E+02 -.291E+04   -.678E+01 0.426E+02 0.291E+04   -.380E+00 0.351E+00 0.903E+00   -.314E-01 -.289E-01 0.497E-02
   -.503E+02 0.453E+00 -.290E+04   0.502E+02 0.621E+00 0.290E+04   0.941E-01 -.111E+01 0.109E+01   -.204E-01 0.523E-02 0.775E-02
   0.237E+02 0.673E+01 -.294E+04   -.238E+02 -.681E+01 0.294E+04   0.129E+00 0.777E-01 0.950E+00   0.768E-02 0.839E-02 -.968E-02
   0.124E+02 0.358E+02 -.290E+04   -.123E+02 -.359E+02 0.290E+04   -.838E-02 0.347E-01 0.105E+01   -.413E-03 -.346E-02 -.293E-01
   -.636E+01 -.269E+02 -.290E+04   0.641E+01 0.268E+02 0.290E+04   -.760E-01 0.106E+00 0.777E+00   0.192E-01 -.158E-01 -.231E-01
   0.131E+01 0.115E+02 -.285E+04   -.785E+00 -.115E+02 0.285E+04   -.538E+00 -.467E-01 0.122E+01   -.238E-01 0.288E-01 -.138E-02
   0.483E+02 0.489E+02 -.141E+04   -.465E+02 -.500E+02 0.141E+04   -.175E+01 0.112E+01 0.280E+01   -.129E-01 0.205E-02 -.744E-01
   -.904E+02 -.301E+02 -.142E+04   0.900E+02 0.289E+02 0.142E+04   0.327E+00 0.117E+01 0.352E+01   -.206E-01 0.508E-03 -.620E-01
   -.227E+02 -.236E+02 0.300E+04   0.227E+02 0.239E+02 -.299E+04   -.955E-02 -.269E+00 -.198E+01   -.920E-02 -.757E-02 0.291E-01
   -.729E+02 0.229E+02 0.148E+04   0.735E+02 -.224E+02 -.148E+04   -.572E+00 -.352E+00 -.724E-01   0.166E-02 -.529E-02 0.133E-01
   0.997E+02 0.260E+02 -.139E+04   -.100E+03 -.248E+02 0.139E+04   0.573E+00 -.111E+01 0.321E+01   0.161E-01 0.535E-03 -.899E-01
   0.348E+02 0.501E+02 0.303E+04   -.354E+02 -.489E+02 -.303E+04   0.650E+00 -.118E+01 -.217E+01   0.183E-01 -.142E-01 0.377E-01
   0.901E+02 0.294E+01 0.147E+04   -.903E+02 -.419E+01 -.147E+04   0.823E-01 0.127E+01 -.117E+01   0.603E-02 -.115E-02 0.250E-01
   -.169E+02 0.197E+02 -.289E+04   0.168E+02 -.197E+02 0.289E+04   0.175E+00 -.881E-01 0.694E+00   -.281E-02 -.599E-02 -.264E-01
   0.532E+02 0.621E+02 0.247E+02   -.543E+02 -.621E+02 -.264E+02   0.107E+01 -.674E-01 0.168E+01   -.105E-01 0.146E-01 -.328E-01
   -.263E+02 -.999E+01 -.289E+04   0.260E+02 0.951E+01 0.289E+04   0.341E+00 0.519E+00 0.158E+01   -.142E-01 -.280E-02 -.396E-01
   -.628E+02 -.417E+02 0.114E+03   0.632E+02 0.416E+02 -.116E+03   -.432E+00 -.767E-01 0.175E+01   0.151E-01 0.105E-01 -.454E-01
   0.183E+02 -.437E+02 -.149E+04   -.186E+02 0.437E+02 0.148E+04   0.376E+00 -.323E-01 0.230E+01   -.838E-02 -.115E-01 -.668E-01
   0.363E+02 0.562E+02 -.145E+04   -.364E+02 -.554E+02 0.145E+04   0.382E-01 -.758E+00 0.273E+01   0.522E-02 -.870E-02 -.837E-01
   -.812E+02 -.439E+02 0.772E+02   0.813E+02 0.432E+02 -.782E+02   -.154E+00 0.640E+00 0.110E+01   -.316E-03 -.106E-01 -.435E-01
   0.480E+02 0.516E+02 0.137E+02   -.473E+02 -.526E+02 -.145E+02   -.807E+00 0.103E+01 0.848E+00   -.453E-02 0.683E-02 -.265E-01
   -.734E+02 -.732E+02 -.162E+04   0.733E+02 0.729E+02 0.162E+04   0.846E-01 0.482E+00 0.104E+01   0.566E-02 -.202E-01 -.872E-01
   0.103E+02 -.908E+02 0.332E+04   -.107E+02 0.909E+02 -.331E+04   0.309E+00 -.515E-02 -.236E+01   -.495E-03 0.120E-02 0.369E-01
   -.330E+02 -.508E+02 0.329E+04   0.324E+02 0.505E+02 -.328E+04   0.700E+00 0.442E+00 -.292E+01   0.215E-02 -.480E-02 0.367E-01
   -.547E+02 0.438E+02 0.331E+04   0.548E+02 -.435E+02 -.331E+04   -.148E+00 -.353E+00 -.355E+01   0.709E-02 0.633E-02 0.344E-01
   0.522E+02 0.294E+02 0.158E+04   -.521E+02 -.294E+02 -.158E+04   -.700E-01 -.813E-02 -.138E+01   -.107E-01 -.168E-01 0.287E-01
   0.213E+02 -.664E+02 0.167E+04   -.207E+02 0.662E+02 -.167E+04   -.636E+00 0.150E+00 -.909E+00   -.786E-02 0.165E-02 0.188E-01
   0.113E+02 0.203E+02 -.162E+04   -.117E+02 -.207E+02 0.162E+04   0.407E+00 0.321E+00 0.123E+01   -.634E-03 -.123E-01 -.656E-01
   -.320E+02 0.391E+01 0.335E+04   0.304E+02 -.422E+01 -.335E+04   0.157E+01 0.350E+00 -.325E+01   0.227E-01 -.163E-01 0.357E-01
   0.374E+01 0.820E+02 0.162E+04   -.405E+01 -.816E+02 -.162E+04   0.343E+00 -.405E+00 -.112E+01   0.152E-01 -.308E-01 0.370E-01
   -.585E+02 0.170E+02 0.417E+02   0.583E+02 -.167E+02 -.418E+02   0.200E+00 -.438E+00 -.648E-01   0.766E-02 -.225E-02 -.447E-01
   -.739E+02 -.329E+02 -.165E+04   0.738E+02 0.320E+02 0.164E+04   0.168E+00 0.990E+00 0.165E+01   -.306E-02 -.633E-03 -.653E-01
   0.130E+02 0.711E+02 -.162E+04   -.130E+02 -.702E+02 0.162E+04   -.358E-01 -.107E+01 0.880E+00   -.345E-02 0.601E-02 -.723E-01
   -.374E+02 -.231E+01 0.330E+04   0.379E+02 0.182E+01 -.330E+04   -.449E+00 0.476E+00 -.279E+01   -.409E-02 -.609E-03 0.425E-01
   0.206E+02 0.214E+02 0.304E+04   -.204E+02 -.213E+02 -.304E+04   -.114E+00 -.123E+00 -.597E+00   -.144E-01 0.247E-01 0.308E-01
   -.198E+02 0.598E+01 0.297E+04   0.214E+02 -.608E+01 -.297E+04   -.167E+01 0.115E+00 -.216E+01   -.725E-02 -.492E-02 0.250E-01
   -.662E+02 -.115E+03 0.148E+04   0.663E+02 0.115E+03 -.148E+04   -.844E-01 0.536E+00 -.953E+00   -.205E-02 -.997E-03 0.122E-01
   -.655E+02 -.212E+02 -.569E+02   0.649E+02 0.218E+02 0.564E+02   0.738E+00 -.677E+00 0.634E+00   -.769E-02 0.113E-01 -.472E-01
   -.110E+03 -.115E+01 0.148E+04   0.110E+03 0.154E+01 -.148E+04   0.387E-01 -.427E+00 -.430E+00   0.689E-02 0.134E-01 0.128E-01
   0.424E+02 0.330E+02 0.148E+04   -.423E+02 -.326E+02 -.148E+04   -.582E-01 -.375E+00 0.275E-01   -.134E-01 0.109E-01 0.266E-01
   0.665E+02 0.211E+02 -.148E+04   -.661E+02 -.212E+02 0.148E+04   -.509E+00 0.141E+00 0.162E+01   0.602E-02 0.449E-02 -.793E-01
   0.455E+02 -.351E+02 0.303E+04   -.448E+02 0.338E+02 -.303E+04   -.800E+00 0.131E+01 -.200E+01   0.898E-04 0.322E-02 0.387E-01
   0.175E+02 0.349E+02 0.146E+04   -.170E+02 -.348E+02 -.146E+04   -.435E+00 -.156E+00 -.375E+00   -.834E-02 0.239E-01 0.186E-01
   0.766E+02 -.478E+02 0.391E+02   -.764E+02 0.475E+02 -.389E+02   -.161E+00 0.305E+00 -.166E+00   -.603E-02 -.523E-02 -.472E-01
   0.877E+01 0.565E+02 0.244E+04   -.844E+01 -.560E+02 -.244E+04   -.333E+00 -.539E+00 -.280E+01   -.138E-01 -.469E-03 0.158E-01
   -.198E+02 -.494E+02 0.116E+04   0.198E+02 0.498E+02 -.116E+04   -.828E-01 -.320E+00 -.762E+00   -.813E-02 -.659E-02 0.122E-01
   0.216E+02 -.153E+02 0.117E+04   -.212E+02 0.150E+02 -.117E+04   -.412E+00 0.347E+00 -.727E+00   0.477E-02 0.815E-02 0.152E-01
   -.508E+02 -.437E+02 -.248E+02   0.509E+02 0.440E+02 0.245E+02   -.190E+00 -.470E+00 0.294E+00   0.143E-02 0.198E-02 -.409E-01
   0.441E+02 0.147E+02 -.118E+04   -.439E+02 -.145E+02 0.118E+04   -.202E+00 -.220E+00 0.113E+01   0.472E-02 0.807E-02 -.788E-01
   -.777E+02 -.193E+02 -.121E+04   0.776E+02 0.195E+02 0.121E+04   0.216E+00 -.196E+00 0.163E+01   -.127E-01 0.427E-02 -.609E-01
   0.160E+02 -.145E+02 0.243E+04   -.163E+02 0.149E+02 -.243E+04   0.250E+00 -.362E+00 -.325E+01   -.415E-02 -.143E-01 0.212E-01
   -.136E+02 -.510E+02 0.245E+04   0.134E+02 0.499E+02 -.245E+04   0.104E+00 0.117E+01 -.279E+01   -.143E-02 0.866E-02 0.268E-01
   -.335E+02 0.588E+01 0.302E+02   0.340E+02 -.599E+01 -.303E+02   -.563E+00 0.458E-01 0.438E-01   0.626E-02 0.326E-02 -.338E-01
   0.264E+02 0.638E+01 0.339E+02   -.269E+02 -.695E+01 -.339E+02   0.486E+00 0.570E+00 -.227E-01   0.442E-02 -.180E-01 -.287E-01
   -.379E+02 0.564E+01 0.120E+04   0.376E+02 -.538E+01 -.120E+04   0.213E+00 -.262E+00 -.109E+01   0.242E-02 -.501E-02 0.191E-01
   0.508E+02 0.202E+02 -.680E+02   -.507E+02 -.209E+02 0.688E+02   -.120E+00 0.815E+00 -.774E+00   -.762E-03 -.117E-01 -.284E-01
   -.394E+01 -.108E+02 -.813E+01   0.410E+01 0.103E+02 0.774E+01   -.158E+00 0.388E+00 0.457E+00   -.220E-02 -.295E-02 -.307E-01
   -.407E+02 0.288E+02 0.135E+04   0.406E+02 -.287E+02 -.135E+04   0.126E-01 -.119E-01 -.101E+00   0.194E-01 -.565E-02 0.235E-01
   -.241E+02 -.684E+01 0.134E+04   0.244E+02 0.741E+01 -.133E+04   -.247E+00 -.560E+00 -.983E+00   0.719E-02 -.135E-01 0.119E-01
   -.670E+01 -.113E+01 0.272E+04   0.551E+01 0.159E+01 -.271E+04   0.113E+01 -.462E+00 -.241E+01   0.953E-02 0.213E-01 0.268E-01
   0.348E+02 0.197E+02 0.270E+04   -.339E+02 -.201E+02 -.269E+04   -.857E+00 0.306E+00 -.277E+01   -.359E-02 0.103E-01 0.296E-01
   0.711E+02 0.217E+01 0.132E+04   -.714E+02 -.238E+01 -.132E+04   0.267E+00 0.242E+00 0.191E-02   -.507E-02 0.175E-01 0.216E-01
   0.639E+02 0.295E+02 0.130E+04   -.641E+02 -.293E+02 -.130E+04   0.221E+00 -.131E+00 -.103E+00   -.831E-02 0.647E-02 0.183E-01
   0.558E+02 0.291E+02 -.129E+04   -.561E+02 -.296E+02 0.129E+04   0.298E+00 0.545E+00 0.116E+01   0.810E-02 0.596E-02 -.581E-01
   0.499E+02 0.558E+02 0.274E+04   -.506E+02 -.552E+02 -.274E+04   0.649E+00 -.576E+00 -.183E+01   0.280E-02 -.673E-02 0.198E-01
   0.494E+02 0.303E+02 -.118E+01   -.500E+02 -.298E+02 0.118E+01   0.606E+00 -.578E+00 -.260E-01   0.860E-02 -.695E-02 -.419E-01
   0.210E+02 0.714E+02 -.187E+02   -.209E+02 -.705E+02 0.190E+02   -.653E-01 -.101E+01 -.394E+00   -.960E-02 0.703E-02 -.413E-01
   0.989E+02 0.438E+02 0.309E+02   -.984E+02 -.436E+02 -.311E+02   -.551E+00 -.226E+00 0.143E+00   0.242E-02 0.717E-02 -.443E-01
   -.766E+02 -.105E+03 0.709E+01   0.771E+02 0.105E+03 -.723E+01   -.451E+00 0.349E+00 0.174E+00   -.465E-02 -.194E-02 -.379E-01
   0.540E+01 -.250E-01 -.348E+03   -.602E+01 0.782E-01 0.350E+03   0.649E+00 -.174E-01 -.196E+01   0.471E-03 0.104E-02 0.227E-02
 -----------------------------------------------------------------------------------------------
   -.185E+01 0.819E-01 -.968E-03   0.884E-12 0.273E-12 0.779E-11   0.189E+01 -.318E-01 0.133E+01   -.217E-01 -.483E-01 -.133E+01
 
 
 POSITION                                       TOTAL-FORCE (eV/Angst)
 -----------------------------------------------------------------------------------
     12.96156      8.01834      6.97317         0.001608      0.006195     -0.006615
      5.11648      8.05823      6.95241         0.000017     -0.003953      0.000314
      5.02949      3.45077      7.04205         0.009569      0.007188     -0.006215
     14.31950      8.75228      9.32416        -0.001692      0.002753      0.005027
      3.75126      4.18171      9.40589         0.012116      0.006497     -0.022884
      6.42590      8.76395      9.26608        -0.005265     -0.008559      0.021975
     11.68343      4.18108      9.29856        -0.003104      0.012962      0.010128
      9.02161      8.75525      9.31179        -0.016322     -0.006732     -0.001713
     10.36120      1.91130      9.28104        -0.000496      0.009110     -0.002369
      2.43805      1.90725      9.29204         0.007210      0.005115      0.014293
     11.68476      8.75116      9.46447         0.004360     -0.000015     -0.024102
     13.01123      6.44963      9.35559        -0.013788     -0.000601     -0.015344
      5.06543      1.92346      9.38002        -0.004394      0.001469      0.005581
      7.71809      6.47354      9.38241         0.004474      0.008127     -0.015927
      9.04435      4.19345      9.33580         0.028635     -0.009928      0.000946
      5.07975      6.47230      9.35146         0.017855      0.008306      0.010823
      7.73092      1.90290      9.34496        -0.014253      0.012320     -0.024925
      7.81048      3.38371      6.98711         0.006541      0.005243     -0.002233
      6.31756      1.10565      6.94233        -0.002239      0.008592     -0.000761
      6.42748      1.11951      0.84379        -0.004272      0.034117      0.004587
      3.74457      4.22498      2.80295         0.012842      0.013070     -0.031819
      1.13747      1.22485      6.88970         0.005589      0.006915     -0.000333
      1.05351      1.23301      0.75714         0.002606      0.006387      0.000036
      6.37970      8.73232      2.89580        -0.006269      0.022658      0.022697
      6.40192      4.19792      9.39686        -0.001273     -0.003676      0.001317
      7.71519      4.98986      4.84188        -0.000615     -0.035146     -0.021387
     10.34093      6.45954      9.28375         0.000294     -0.000760      0.018887
     14.36690      7.24966      4.78751        -0.041440     -0.010349     -0.118206
     11.64128      5.69259      7.00813        -0.001688     -0.003518      0.012241
      6.43251      5.77007      7.02150        -0.000844      0.002748     -0.007769
      3.72880      2.59487      4.89932         0.019227     -0.058040      0.009263
     10.40714      4.90964      4.85294        -0.006303     -0.016215      0.001657
      3.73250      5.70752      7.05926         0.005596      0.007388     -0.007687
     13.01076      7.95414      0.82285        -0.010865      0.028248     -0.010293
      5.07062      7.97664      0.75916         0.000762      0.015565     -0.004239
      3.74725      5.77233      0.77268         0.000812      0.004982     -0.007359
      7.73906      1.95923      2.91892         0.010549      0.003933     -0.009266
      9.04575      8.78897      2.87226        -0.002468     -0.009839      0.008234
      2.43358      3.46269      7.04841        -0.002098     -0.001070      0.005995
      2.40788      3.44595      0.73676        -0.012220      0.026134      0.000021
     10.29842      1.96823      2.88139         0.020700     -0.008722     -0.008679
     13.01351      4.98805      4.94410         0.034478     -0.024984     -0.058823
      3.72246      1.07621      7.04733         0.005035      0.003332     -0.012457
      9.03682      5.76289      7.05747         0.012015      0.003890      0.003013
      3.74683      1.15285      0.81959         0.000952      0.002480      0.009086
      9.06513      5.72471      0.92537        -0.011225      0.021318     -0.006522
      5.21212      3.41637      0.86086        -0.002639      0.011281     -0.005858
     11.65625      8.70496      2.91787        -0.022290     -0.009654      0.010113
     11.62151      7.29974      4.90178         0.054307      0.028038      0.058098
     12.89980      6.49745      2.82364         0.017594     -0.014252      0.004026
      9.01343      4.18612      2.81919         0.000100      0.003946     -0.014406
      7.80061      8.00567      6.97080         0.011791      0.005180     -0.000274
      7.81053      7.92859      0.86888        -0.021062     -0.001658      0.009967
     10.31657      6.54831      2.89472         0.017823      0.015356     -0.006976
      2.46166      0.31661      4.92733         0.026766     -0.040376      0.014229
      7.75154      3.52543      0.86333         0.001249      0.007150      0.011557
      5.10291      1.89984      2.87069        -0.011772      0.011165      0.006068
      5.17349      6.40557      2.77226        -0.014153      0.023256      0.049533
      7.65418      0.39388      4.89233        -0.030206     -0.045569      0.070056
      9.05535      1.14986      7.11406         0.004329      0.002582     -0.005760
     10.30276      7.98356      7.01299         0.002771      0.003596     -0.013408
      9.02330      1.20380      0.78512        -0.014570     -0.008874      0.017973
     10.37425      7.90856      0.90129        -0.040326      0.009786      0.004843
      5.10488      4.93977      4.94140         0.010117     -0.019048     -0.006365
     11.69653      2.64892      4.87494        -0.017525     -0.011731     -0.012190
     14.26247      8.83804      2.80295        -0.025923      0.014159     -0.025209
      9.09183      2.62352      4.93970        -0.007237     -0.020049      0.011367
      6.39598      2.67997      4.92292        -0.002353     -0.063692      0.025224
     11.64052      4.17844      2.78900        -0.009393      0.015841      0.007782
      2.34972      1.92500      2.86197         0.006247      0.010470     -0.023117
     11.59075      5.72177      0.94802        -0.027518      0.000750     -0.009140
      6.50379      5.69604      0.91052        -0.003414      0.007883      0.003139
      7.71278      6.45493      2.81038        -0.007615      0.015541      0.048160
      6.43155      4.20716      2.83788         0.010060     -0.017735     -0.008992
     10.36155      3.37848      7.01145         0.007138     -0.000433     -0.005474
     10.36553      3.54396      0.90454        -0.013900      0.007963     -0.022557
     10.23662      0.46679      4.91587        -0.034501     -0.019752      0.005711
      9.06408      7.34028      4.95059         0.006343     -0.008288      0.040329
      6.48344      7.27349      4.94428         0.033391     -0.044857     -0.048022
      5.04827      0.31035      4.87551         0.008455     -0.001332      0.060009
     10.39182      8.78065     10.55031         0.027204      0.038425      0.011374
 -----------------------------------------------------------------------------------
    total drift:                                0.015705      0.001799     -0.003077


--------------------------------------------------------------------------------------------------------



  FREE ENERGIE OF THE ION-ELECTRON SYSTEM (eV)
  ---------------------------------------------------
  free  energy   TOTEN  =      -514.72775093 eV

  energy  without entropy=     -514.72671749  energy(sigma->0) =     -514.72740645
 
 d Force = 0.1653789E-02[ 0.719E-03, 0.259E-02]  d Energy = 0.1731928E-02-0.781E-04
 d Force =-0.3803421E+02[-0.380E+02,-0.380E+02]  d Ewald  =-0.3803420E+02-0.412E-05


--------------------------------------------------------------------------------------------------------


    POTLOK:  cpu time    0.4478: real time    0.4518


--------------------------------------------------------------------------------------------------------


 Conjugate gradient step on ions:
 trial-energy change:   -0.001732  1 .order   -0.001654   -0.002589   -0.000719
  (g-gl).g = 0.182E-02      g.g   = 0.186E-02  gl.gl    = 0.587E-02
 g(Force)  = 0.186E-02   g(Stress)= 0.000E+00 ortho     =-0.305E-03
 gamma     =   0.31055
 trial     =   1.46391
 opt step  =   1.88920  (harmonic =   2.02683) maximal distance =0.00634331
 next E    =  -514.727857   (d E  =  -0.00184)


--------------------------------------------------------------------------------------------------------


  
 reached required accuracy - stopping structural energy minimisation
     LOOP+:  cpu time  828.5031: real time  833.2217
    4ORBIT:  cpu time    0.0000: real time    0.0000

 total amount of memory used by VASP MPI-rank0   259142. kBytes
=======================================================================

   base      :      30000. kBytes
   nonlr-proj:      34688. kBytes
   fftplans  :      17962. kBytes
   grid      :      55536. kBytes
   one-center:        653. kBytes
   wavefun   :     120303. kBytes
 
  
  
 General timing and accounting informations for this job:
 ========================================================
  
                  Total CPU time used (sec):    16717.906
                            User time (sec):    16476.344
                          System time (sec):      241.563
                         Elapsed time (sec):    16798.021
  
                   Maximum memory used (kb):      992424.
                   Average memory used (kb):           0.
  
                          Minor page faults:      2799927
                          Major page faults:            0
                 Voluntary context switches:         6306
