 vasp.5.4.4.18Apr17-6-g9f103f2a35 (build Nov 30 2020 22:55:02) complex          
  
 executed on             LinuxIFC date 2023.06.13  08:51:50
 running on   40 total cores
 distrk:  each k-point on   40 cores,    1 groups
 distr:  one band on NCORES_PER_BAND=   4 cores,   10 groups


--------------------------------------------------------------------------------------------------------


 INCAR:
 POTCAR:    PAW_PBE Pt 04Feb2005                  
 POTCAR:    PAW_PBE H 15Jun2001                   
 POTCAR:    PAW_PBE Pt 04Feb2005                  
   VRHFIN =Pt: s1d9                                                             
   LEXCH  = PE                                                                  
   EATOM  =   729.1176 eV,   53.5886 Ry                                         
                                                                                
   TITEL  = PAW_PBE Pt 04Feb2005                                                
   LULTRA =        F    use ultrasoft PP ?                                      
   IUNSCR =        1    unscreen: 0-lin 1-nonlin 2-no                           
   RPACOR =    2.330    partial core radius                                     
   POMASS =  195.080; ZVAL   =   10.000    mass and valenz                      
   RCORE  =    2.600    outmost cutoff radius                                   
   RWIGS  =    2.750; RWIGS  =    1.455    wigner-seitz radius (au A)           
   ENMAX  =  230.283; ENMIN  =  172.712 eV                                      
   ICORE  =        3    local potential                                         
   LCOR   =        T    correct aug charges                                     
   LPAW   =        T    paw PP                                                  
   EAUG   =  358.966                                                            
   DEXC   =    0.000                                                            
   RMAX   =    2.658    core radius for proj-oper                               
   RAUG   =    1.300    factor for augmentation sphere                          
   RDEP   =    2.761    radius for radial grids                                 
   RDEPT  =    2.203    core radius for aug-charge                              
                                                                                
   Atomic configuration                                                         
   16 entries                                                                   
     n  l   j            E        occ.                                          
     1  0  0.50    -78401.1885   2.0000                                         
     2  0  0.50    -13770.7750   2.0000                                         
     2  1  1.50    -11931.0468   6.0000                                         
     3  0  0.50     -3234.7234   2.0000                                         
     3  1  1.50     -2699.2216   6.0000                                         
     3  2  2.50     -2119.5714  10.0000                                         
     4  0  0.50      -695.1528   2.0000                                         
     4  1  1.50      -519.6034   6.0000                                         
     4  2  2.50      -306.6786  10.0000                                         
     4  3  3.50       -70.1041  14.0000                                         
     5  0  0.50      -101.7747   2.0000                                         
     5  1  1.50       -55.9873   6.0000                                         
     5  2  2.50        -6.1423   9.0000                                         
     6  0  0.50        -5.6573   1.0000                                         
     6  1  1.50        -6.8029   0.0000                                         
     5  3  2.50        -1.3606   0.0000                                         
   Description                                                                  
     l       E           TYP  RCUT    TYP  RCUT                                 
     2     -6.1423404     23  2.500                                             
     2     -7.5029230     23  2.500                                             
     0     -5.6573207     23  2.500                                             
     0      0.7416693     23  2.500                                             
     1     -2.7211652     23  2.600                                             
     1     20.4087390     23  2.600                                             
     3     -1.3605826     23  2.500                                             
  local pseudopotential read in
  partial core-charges read in
  partial kinetic energy density read in
  atomic valenz-charges read in
  non local Contribution for L=           2  read in
    real space projection operators read in
  non local Contribution for L=           2  read in
    real space projection operators read in
  non local Contribution for L=           0  read in
    real space projection operators read in
  non local Contribution for L=           0  read in
    real space projection operators read in
  non local Contribution for L=           1  read in
    real space projection operators read in
  non local Contribution for L=           1  read in
    real space projection operators read in
    PAW grid and wavefunctions read in
 
   number of l-projection  operators is LMAX  =           6
   number of lm-projection operators is LMMAX =          18
 
 POTCAR:    PAW_PBE H 15Jun2001                   
   VRHFIN =H: ultrasoft test                                                    
   LEXCH  = PE                                                                  
   EATOM  =    12.4884 eV,    0.9179 Ry                                         
                                                                                
   TITEL  = PAW_PBE H 15Jun2001                                                 
   LULTRA =        F    use ultrasoft PP ?                                      
   IUNSCR =        0    unscreen: 0-lin 1-nonlin 2-no                           
   RPACOR =    0.000    partial core radius                                     
   POMASS =    1.000; ZVAL   =    1.000    mass and valenz                      
   RCORE  =    1.100    outmost cutoff radius                                   
   RWIGS  =    0.700; RWIGS  =    0.370    wigner-seitz radius (au A)           
   ENMAX  =  250.000; ENMIN  =  200.000 eV                                      
   RCLOC  =    0.701    cutoff for local pot                                    
   LCOR   =        T    correct aug charges                                     
   LPAW   =        T    paw PP                                                  
   EAUG   =  400.000                                                            
   RMAX   =    1.123    core radius for proj-oper                               
   RAUG   =    1.200    factor for augmentation sphere                          
   RDEP   =    1.112    radius for radial grids                                 
   RDEPT  =    0.926    core radius for aug-charge                              
                                                                                
   Atomic configuration                                                         
    2 entries                                                                   
     n  l   j            E        occ.                                          
     1  0  0.50        -6.4927   1.0000                                         
     2  1  0.50        -3.4015   0.0000                                         
   Description                                                                  
     l       E           TYP  RCUT    TYP  RCUT                                 
     0     -6.4927494     23  1.100                                             
     0      6.8029130     23  1.100                                             
     1     -4.0817478     23  1.100                                             
  local pseudopotential read in
  atomic valenz-charges read in
  non local Contribution for L=           0  read in
    real space projection operators read in
  non local Contribution for L=           0  read in
    real space projection operators read in
  non local Contribution for L=           1  read in
    real space projection operators read in
    PAW grid and wavefunctions read in
 
   number of l-projection  operators is LMAX  =           3
   number of lm-projection operators is LMMAX =           5
 
 Optimization of the real space projectors (new method)

 maximal supplied QI-value         = 14.36
 optimisation between [QCUT,QGAM] = [ 11.92, 23.98] = [ 39.79,161.09] Ry 
 Optimized for a Real-space Cutoff    1.49 Angstroem

   l    n(q)    QCUT    max X(q) W(low)/X(q) W(high)/X(q)  e(spline) 
   2     10    11.920    66.195    0.79E-04    0.18E-03    0.24E-06
   2     10    11.920    64.643    0.81E-04    0.19E-03    0.24E-06
   0     11    11.920    95.520    0.28E-04    0.54E-04    0.18E-06
   0     11    11.920    63.403    0.27E-04    0.52E-04    0.17E-06
   1     10    11.920    19.961    0.18E-04    0.11E-03    0.23E-06
   1     10    11.920    13.289    0.25E-04    0.87E-04    0.19E-06
 Optimization of the real space projectors (new method)

 maximal supplied QI-value         = 34.20
 optimisation between [QCUT,QGAM] = [ 11.97, 23.94] = [ 40.13,160.53] Ry 
 Optimized for a Real-space Cutoff    1.18 Angstroem

   l    n(q)    QCUT    max X(q) W(low)/X(q) W(high)/X(q)  e(spline) 
   0      8    11.971    19.460    0.15E-03    0.31E-03    0.25E-06
   0      8    11.971    12.209    0.13E-03    0.29E-03    0.25E-06
   1      8    11.971     4.655    0.22E-03    0.24E-03    0.21E-06
  PAW_PBE Pt 04Feb2005                  :
 energy of atom  1       EATOM= -729.1176
 kinetic energy error for atom=    0.0021 (will be added to EATOM!!)
  PAW_PBE H 15Jun2001                   :
 energy of atom  2       EATOM=  -12.4884
 kinetic energy error for atom=    0.0008 (will be added to EATOM!!)
 
 
 POSCAR: Pt111                                   
  positions in direct lattice
  velocities in cartesian coordinates
 exchange correlation table for  LEXCH =        8
   RHO(1)=    0.500       N(1)  =     2000
   RHO(2)=  100.500       N(2)  =     4000
 


--------------------------------------------------------------------------------------------------------


 ion  position               nearest neighbor table
   1  0.785  0.869  0.327-  71 2.74  20 2.74  55 2.74  35 2.79  27 2.79  34 2.80  43 2.81  73 2.81
                            56 2.81  72 2.81   2 2.81   3 2.81
   2  0.035  0.869  0.327-  65 2.74  55 2.74  68 2.74  39 2.78  29 2.79  27 2.80  23 2.80  47 2.81
                            72 2.81   3 2.81   1 2.81  57 2.81
   3  0.035  0.619  0.327-  12 2.74  55 2.74  76 2.74  39 2.78  28 2.79  35 2.80  15 2.80   9 2.81
                            56 2.81   2 2.81   1 2.81  57 2.81
   4  0.786  0.868  0.023-  21 2.79  78 2.79  19 2.80  44 2.80  75 2.81  74 2.81  58 2.81   5 2.81
                             6 2.81
   5  0.036  0.868  0.023-  49 2.79  70 2.79  78 2.79  48 2.80   6 2.80  24 2.81  59 2.81   4 2.81
                            74 2.81
   6  0.036  0.618  0.023-  46 2.79  70 2.79  21 2.79  10 2.80   5 2.80  18 2.81  59 2.81   4 2.81
                            58 2.81
   7  0.619  0.202  0.126-  71 2.74  79 2.74  80 2.74  42 2.79  44 2.79  74 2.80  53 2.80  61 2.80
                            11 2.80  22 2.80  19 2.81  78 2.81
   8  0.369  0.952  0.126-  26 2.74  66 2.74  69 2.74  16 2.79  24 2.79  75 2.79  25 2.80  60 2.81
                            19 2.81  49 2.81  54 2.81  53 2.81
   9  0.035  0.369  0.327-  12 2.73  77 2.74  62 2.74  28 2.79  33 2.79  30 2.79  13 2.80   3 2.81
                            47 2.81  56 2.81  15 2.81  63 2.81
  10  0.036  0.369  0.023-  54 2.78  46 2.79  45 2.80  58 2.80   6 2.80  18 2.81  64 2.81  16 2.81
                            48 2.81
  11  0.869  0.202  0.126-  77 2.74  65 2.74  79 2.74  64 2.79  74 2.79  48 2.79   7 2.80  22 2.81
                            78 2.81  45 2.81  54 2.81  49 2.81
  12  0.952  0.536  0.226-   9 2.73   3 2.74  21 2.74  45 2.74  56 2.74  46 2.74  20 2.80  55 2.80
                            77 2.81  62 2.81  67 2.81  76 2.81
  13  0.285  0.119  0.327-  62 2.74  26 2.74  69 2.74  31 2.79  36 2.79  33 2.79   9 2.80  47 2.80
                            73 2.81  43 2.81  15 2.81  23 2.81
  14  0.535  0.619  0.328-  51 2.74  66 2.75  67 2.76  52 2.79  57 2.80  41 2.80  63 2.80  23 2.80
                            56 2.81  73 2.81  38 2.82  37 2.82
  15  0.285  0.369  0.327-  76 2.74  80 2.74  62 2.75  50 2.79  36 2.79  28 2.79  41 2.80  57 2.80
                             3 2.80  43 2.81  13 2.81   9 2.81
  16  0.287  0.118  0.023-  54 2.79   8 2.79  53 2.79  75 2.80  44 2.80  24 2.81  18 2.81  10 2.81
                            48 2.81
  17  0.536  0.618  0.023-  25 2.79  22 2.79  60 2.80  42 2.80  64 2.80  59 2.80  58 2.81  75 2.81
                            24 2.81
  18  0.286  0.368  0.023-  53 2.79  46 2.79  61 2.79  59 2.80  42 2.81   6 2.81  44 2.81  10 2.81
                            16 2.81
  19  0.619  0.952  0.126-  20 2.74  71 2.74  69 2.74  44 2.79  75 2.79   4 2.80  21 2.80  78 2.80
                             8 2.81  53 2.81  25 2.81   7 2.81
  20  0.702  0.785  0.226-  25 2.74  56 2.74  19 2.74   1 2.74  73 2.74  21 2.74  12 2.80  69 2.81
                            67 2.81  66 2.81  55 2.81  71 2.81
  21  0.869  0.702  0.126-  12 2.74  55 2.74  20 2.74  58 2.79   4 2.79   6 2.79  78 2.80  19 2.80
                            46 2.81  45 2.81  70 2.81  25 2.81
  22  0.619  0.452  0.126-  79 2.74  67 2.74  51 2.75  17 2.79  42 2.79  64 2.80  61 2.80  60 2.80
                             7 2.80  25 2.80  11 2.81  45 2.81
  23  0.285  0.869  0.327-  68 2.74  66 2.74  26 2.75  37 2.79  31 2.79  29 2.79  57 2.80  14 2.80
                             2 2.80  73 2.81  47 2.81  13 2.81
  24  0.286  0.868  0.023-   8 2.79  60 2.79  49 2.79  59 2.80   5 2.81  17 2.81  48 2.81  75 2.81
                            16 2.81
  25  0.619  0.702  0.126-  20 2.74  67 2.74  66 2.74  17 2.79  75 2.79  58 2.80   8 2.80  45 2.80
                            60 2.80  22 2.80  19 2.81  21 2.81
  26  0.202  0.036  0.226-  49 2.74  13 2.74   8 2.74  54 2.74  47 2.74  23 2.75  62 2.80  77 2.80
                            69 2.81  65 2.81  66 2.81  68 2.81
  27  0.868  0.953  0.430-  39 2.78  40 2.78   1 2.79  72 2.79   2 2.80  29 2.80  32 2.80  35 2.81
                            34 2.81
  28  0.117  0.453  0.430-  50 2.77   9 2.79  30 2.79   3 2.79  15 2.79  33 2.80  35 2.80  39 2.81
                            36 2.81
  29  0.117  0.954  0.430-  37 2.77  47 2.79  32 2.79   2 2.79  23 2.79  33 2.80  27 2.80  39 2.81
                            31 2.81
  30  0.869  0.453  0.430-  38 2.77  28 2.79  56 2.79  63 2.79   9 2.79  33 2.80  35 2.80  52 2.81
                            32 2.81
  31  0.368  0.953  0.430-  37 2.77  13 2.79  36 2.79  23 2.79  73 2.80  34 2.80  33 2.80  52 2.81
                            29 2.81
  32  0.869  0.202  0.430-  38 2.77  63 2.79  29 2.79  72 2.79  47 2.79  33 2.80  27 2.80  40 2.81
                            30 2.81
  33  0.118  0.203  0.430-   9 2.79  47 2.79  13 2.79  32 2.80  30 2.80  29 2.80  28 2.80  36 2.80
                            31 2.80
  34  0.618  0.953  0.430-  52 2.78  40 2.78  43 2.79  73 2.79   1 2.80  31 2.80  36 2.80  27 2.81
                            35 2.81
  35  0.868  0.703  0.430-  39 2.78  52 2.78   1 2.79  56 2.79   3 2.80  28 2.80  30 2.80  27 2.81
                            34 2.81
  36  0.368  0.202  0.430-  50 2.77  13 2.79  15 2.79  31 2.79  43 2.80  33 2.80  34 2.80  40 2.81
                            28 2.81
  37  0.365  0.708  0.432-  81 1.86  31 2.77  29 2.77  23 2.79  57 2.82  14 2.82  39 2.83  52 2.83
                            38 2.89  50 2.89
  38  0.623  0.450  0.432-  81 1.86  32 2.77  30 2.77  63 2.79  14 2.82  41 2.82  52 2.83  40 2.83
                            50 2.89  37 2.89
  39  0.115  0.704  0.430-  35 2.78  27 2.78   2 2.78   3 2.78  57 2.80  28 2.81  29 2.81  37 2.83
                            50 2.83
  40  0.619  0.200  0.430-  34 2.78  27 2.78  43 2.78  72 2.79  41 2.79  36 2.81  32 2.81  50 2.83
                            38 2.83
  41  0.535  0.369  0.328-  51 2.74  80 2.75  79 2.76  40 2.79  14 2.80  57 2.80  63 2.80  15 2.80
                            72 2.81  43 2.81  38 2.82  50 2.82
  42  0.536  0.368  0.023-   7 2.79  22 2.79  61 2.80  59 2.80  17 2.80  64 2.80  18 2.81  74 2.81
                            44 2.81
  43  0.535  0.119  0.327-  80 2.73  69 2.74  71 2.74  40 2.78  34 2.79  36 2.80  15 2.81   1 2.81
                            73 2.81  72 2.81  13 2.81  41 2.81
  44  0.536  0.118  0.023-  19 2.79   7 2.79  53 2.79  16 2.80  74 2.80   4 2.80  18 2.81  42 2.81
                            75 2.81
  45  0.869  0.452  0.126-  77 2.73  12 2.74  67 2.74  58 2.79  64 2.79  10 2.80  25 2.80  21 2.81
                            22 2.81  11 2.81  54 2.81  46 2.81
  46  0.119  0.452  0.126-  62 2.73  76 2.74  12 2.74   6 2.79  10 2.79  18 2.79  70 2.80  21 2.81
                            61 2.81  53 2.81  54 2.81  45 2.81
  47  0.035  0.119  0.327-  65 2.74  77 2.74  26 2.74  29 2.79  33 2.79  32 2.79  13 2.80   2 2.81
                             9 2.81  72 2.81  23 2.81  63 2.81
  48  0.036  0.118  0.023-  54 2.78  49 2.79  11 2.79  74 2.80   5 2.80  24 2.81  64 2.81  16 2.81
                            10 2.81
  49  0.119  0.952  0.126-  26 2.74  68 2.74  65 2.74  48 2.79   5 2.79  24 2.79  70 2.80  78 2.81
                            60 2.81   8 2.81  54 2.81  11 2.81
  50  0.365  0.450  0.432-  81 1.86  36 2.77  28 2.77  15 2.79  57 2.82  41 2.82  40 2.83  39 2.83
                            38 2.89  37 2.89
  51  0.452  0.536  0.227-  41 2.74  14 2.74  60 2.74  61 2.74  57 2.75  22 2.75  68 2.80  76 2.80
                            80 2.80  66 2.80  67 2.80  79 2.80
  52  0.619  0.704  0.430-  34 2.78  35 2.78  73 2.78  56 2.79  14 2.79  31 2.81  30 2.81  37 2.83
                            38 2.83
  53  0.369  0.202  0.126-  69 2.74  62 2.74  80 2.74  18 2.79  16 2.79  44 2.79   7 2.80  61 2.81
                            19 2.81  46 2.81  54 2.81   8 2.81
  54  0.119  0.202  0.125-  26 2.74  62 2.74  77 2.75  10 2.78  48 2.78  16 2.79  45 2.81  11 2.81
                            46 2.81  49 2.81  53 2.81   8 2.81
  55  0.952  0.786  0.226-   3 2.74  78 2.74   2 2.74  21 2.74  70 2.74   1 2.74  12 2.80  65 2.81
                            20 2.81  71 2.81  68 2.81  76 2.81
  56  0.785  0.619  0.327-  67 2.74  20 2.74  12 2.74  52 2.79  30 2.79  35 2.79  63 2.81   9 2.81
                             1 2.81  73 2.81   3 2.81  14 2.81
  57  0.285  0.619  0.328-  51 2.75  68 2.75  76 2.75  39 2.80  14 2.80  41 2.80  23 2.80  15 2.80
                             2 2.81   3 2.81  50 2.82  37 2.82
  58  0.786  0.618  0.023-  45 2.79  21 2.79  25 2.80  10 2.80  75 2.80  17 2.81   4 2.81  64 2.81
                             6 2.81
  59  0.286  0.618  0.023-  61 2.79  60 2.79  70 2.79  42 2.80  17 2.80  18 2.80  24 2.80   5 2.81
                             6 2.81
  60  0.369  0.702  0.126-  66 2.74  68 2.74  51 2.74  59 2.79  24 2.79  17 2.80  22 2.80  61 2.80
                            25 2.80  70 2.80   8 2.81  49 2.81
  61  0.369  0.452  0.126-  80 2.74  76 2.74  51 2.74  59 2.79  18 2.79  42 2.80  22 2.80  60 2.80
                             7 2.80  70 2.80  53 2.81  46 2.81
  62  0.202  0.285  0.226-  46 2.73  13 2.74  53 2.74   9 2.74  54 2.74  15 2.75  26 2.80  77 2.80
                            69 2.81  12 2.81  76 2.81  80 2.81
  63  0.784  0.369  0.327-  67 2.74  79 2.74  77 2.76  32 2.79  38 2.79  30 2.79  41 2.80  14 2.80
                            72 2.81  56 2.81   9 2.81  47 2.81
  64  0.786  0.368  0.023-  11 2.79  45 2.79  22 2.80  42 2.80  17 2.80  74 2.81  58 2.81  48 2.81
                            10 2.81
  65  0.952  0.036  0.226-  47 2.74   2 2.74  11 2.74  78 2.74  72 2.74  49 2.74  71 2.80  55 2.81
                            77 2.81  26 2.81  79 2.81  68 2.81
  66  0.452  0.785  0.227-  73 2.73  60 2.74   8 2.74  23 2.74  25 2.74  14 2.75  68 2.80  51 2.80
                            67 2.81  20 2.81  69 2.81  26 2.81
  67  0.702  0.535  0.227-  56 2.74  63 2.74  22 2.74  25 2.74  45 2.74  14 2.76  79 2.80  51 2.80
                            66 2.81  20 2.81  12 2.81  77 2.81
  68  0.202  0.785  0.227-  23 2.74   2 2.74  49 2.74  70 2.74  60 2.74  57 2.75  66 2.80  51 2.80
                            76 2.81  55 2.81  65 2.81  26 2.81
  69  0.452  0.036  0.226-  73 2.74  43 2.74  53 2.74   8 2.74  13 2.74  19 2.74  71 2.81  62 2.81
                            26 2.81  20 2.81  80 2.81  66 2.81
  70  0.119  0.702  0.126-  76 2.74  68 2.74  55 2.74   5 2.79   6 2.79  59 2.79  46 2.80  49 2.80
                            61 2.80  60 2.80  21 2.81  78 2.81
  71  0.702  0.036  0.226-   7 2.74  72 2.74   1 2.74  19 2.74  43 2.74  78 2.74  65 2.80  69 2.81
                            79 2.81  80 2.81  55 2.81  20 2.81
  72  0.785  0.119  0.327-  79 2.73  71 2.74  65 2.74  40 2.79  32 2.79  27 2.79  63 2.81  47 2.81
                            43 2.81   1 2.81   2 2.81  41 2.81
  73  0.535  0.869  0.327-  66 2.73  69 2.74  20 2.74  52 2.78  34 2.79  31 2.80  23 2.81  43 2.81
                            13 2.81   1 2.81  56 2.81  14 2.81
  74  0.786  0.118  0.023-  78 2.79  11 2.79   7 2.80  48 2.80  44 2.80  64 2.81   4 2.81  42 2.81
                             5 2.81
  75  0.536  0.868  0.023-  19 2.79  25 2.79   8 2.79  16 2.80  58 2.80   4 2.81  17 2.81  24 2.81
                            44 2.81
  76  0.202  0.535  0.227-  15 2.74   3 2.74  70 2.74  46 2.74  61 2.74  57 2.75  80 2.80  51 2.80
                            68 2.81  55 2.81  12 2.81  62 2.81
  77  0.952  0.285  0.226-  45 2.73  11 2.74  47 2.74   9 2.74  54 2.75  63 2.76  26 2.80  62 2.80
                            65 2.81  12 2.81  67 2.81  79 2.81
  78  0.869  0.952  0.126-  55 2.74  65 2.74  71 2.74  74 2.79   4 2.79   5 2.79  21 2.80  19 2.80
                            49 2.81  11 2.81  70 2.81   7 2.81
  79  0.702  0.286  0.227-  72 2.73  22 2.74  63 2.74   7 2.74  11 2.74  41 2.76  67 2.80  51 2.80
                            80 2.81  71 2.81  65 2.81  77 2.81
  80  0.452  0.286  0.227-  43 2.73  61 2.74  15 2.74  53 2.74   7 2.74  41 2.75  76 2.80  51 2.80
                            79 2.81  71 2.81  69 2.81  62 2.81
  81  0.451  0.536  0.470-  50 1.86  37 1.86  38 1.86
 
  LATTYP: Found a hexagonal cell.
 ALAT       =    11.2227001190
 C/A-ratio  =     1.9603125600
  
  Lattice vectors:
  
 A1 = (   5.6113500595,  -9.7191434021,   0.0000000000)
 A2 = ( -11.2227001190,   0.0000000000,   0.0000000000)
 A3 = (   0.0000000000,   0.0000000000, -22.0000000000)


Analysis of symmetry for initial positions (statically):
=====================================================================
 Subroutine PRICEL returns:
 Original cell was already a primitive cell.
 

 Routine SETGRP: Setting up the symmetry group for a 
 hexagonal supercell.


 Subroutine GETGRP returns: Found  1 space group operations
 (whereof  1 operations were pure point group operations)
 out of a pool of 24 trial point group operations.


The static configuration has the point symmetry C_1 .


Analysis of symmetry for dynamics (positions and initial velocities):
=====================================================================
 Subroutine PRICEL returns:
 Original cell was already a primitive cell.
 

 Routine SETGRP: Setting up the symmetry group for a 
 hexagonal supercell.


 Subroutine GETGRP returns: Found  1 space group operations
 (whereof  1 operations were pure point group operations)
 out of a pool of 24 trial point group operations.


The dynamic configuration has the point symmetry C_1 .


Analysis of structural, dynamic, and magnetic symmetry:
=====================================================================
 Subroutine PRICEL returns:
 Original cell was already a primitive cell.
 

 Routine SETGRP: Setting up the symmetry group for a 
 hexagonal supercell.


 Subroutine GETGRP returns: Found  1 space group operations
 (whereof  1 operations were pure point group operations)
 out of a pool of 24 trial point group operations.


The magnetic configuration has the point symmetry C_1 .


 Subroutine INISYM returns: Found  1 space group operations
 (whereof  1 operations are pure point group operations),
 and found     1 'primitive' translations

 
 
 KPOINTS: mesh auto                               

Automatic generation of k-mesh.
Space group operators:
 irot       det(A)        alpha          n_x          n_y          n_z        tau_x        tau_y        tau_z
    1     1.000000     0.000000     1.000000     0.000000     0.000000     0.000000     0.000000     0.000000
 
 Subroutine IBZKPT returns following result:
 ===========================================
 
 Found      5 irreducible k-points:
 
 Following reciprocal coordinates:
            Coordinates               Weight
  0.000000  0.000000  0.000000      1.000000
  0.333333 -0.000000  0.000000      2.000000
  0.000000  0.333333  0.000000      2.000000
  0.333333  0.333333  0.000000      2.000000
 -0.333333  0.333333  0.000000      2.000000
 
 Following cartesian coordinates:
            Coordinates               Weight
  0.000000  0.000000  0.000000      1.000000
  0.029702 -0.017148  0.000000      2.000000
  0.000000  0.034297  0.000000      2.000000
  0.029702  0.017148  0.000000      2.000000
 -0.029702  0.051445  0.000000      2.000000
 


--------------------------------------------------------------------------------------------------------




 Dimension of arrays:
   k-points           NKPTS =      5   k-points in BZ     NKDIM =      5   number of bands    NBANDS=    530
   number of dos      NEDOS =    301   number of ions     NIONS =     81
   non local maximal  LDIM  =      6   non local SUM 2l+1 LMDIM =     18
   total plane-waves  NPLWV = ******
   max r-space proj   IRMAX =   7929   max aug-charges    IRDMAX=  34542
   dimension x,y,z NGX =    90 NGY =   90 NGZ =  168
   dimension x,y,z NGXF=   180 NGYF=  180 NGZF=  336
   support grid    NGXF=   180 NGYF=  180 NGZF=  336
   ions per type =              80   1
   NGX,Y,Z   is equivalent  to a cutoff of  13.33, 13.33, 12.70 a.u.
   NGXF,Y,Z  is equivalent  to a cutoff of  26.66, 26.66, 25.39 a.u.

 SYSTEM =  Pt111                                   
 POSCAR =  Pt111                                   

 Startparameter for this run:
   NWRITE =      2    write-flag & timer
   PREC   = accura    normal or accurate (medium, high low for compatibility)
   ISTART =      0    job   : 0-new  1-cont  2-samecut
   ICHARG =      2    charge: 1-file 2-atom 10-const
   ISPIN  =      2    spin polarized calculation?
   LNONCOLLINEAR =      F non collinear calculations
   LSORBIT =      F    spin-orbit coupling
   INIWAV =      1    electr: 0-lowe 1-rand  2-diag
   LASPH  =      F    aspherical Exc in radial PAW
   METAGGA=      F    non-selfconsistent MetaGGA calc.

 Electronic Relaxation 1
   ENCUT  =  550.0 eV  40.42 Ry    6.36 a.u.  21.46 21.46 42.07*2*pi/ulx,y,z
   ENINI  =  550.0     initial cutoff
   ENAUG  =  400.0 eV  augmentation charge cutoff
   NELM   =    200;   NELMIN=  2; NELMDL= -5     # of ELM steps 
   EDIFF  = 0.1E-05   stopping-criterion for ELM
   LREAL  =      T    real-space projection
   NLSPLINE    = F    spline interpolate recip. space projectors
   LCOMPAT=      F    compatible to vasp.4.4
   GGA_COMPAT  = T    GGA compatible to vasp.4.4-vasp.4.6
   LMAXPAW     = -100 max onsite density
   LMAXMIX     =    2 max onsite mixed and CHGCAR
   VOSKOWN=      0    Vosko Wilk Nusair interpolation
   ROPT   =   -0.00025  -0.00025
 Ionic relaxation
   EDIFFG = -.1E-01   stopping-criterion for IOM
   NSW    =    300    number of steps for IOM
   NBLOCK =      1;   KBLOCK =    300    inner block; outer block 
   IBRION =      2    ionic relax: 0-MD 1-quasi-New 2-CG
   NFREE  =      1    steps in history (QN), initial steepest desc. (CG)
   ISIF   =      2    stress and relaxation
   IWAVPR =     11    prediction:  0-non 1-charg 2-wave 3-comb
   ISYM   =      2    0-nonsym 1-usesym 2-fastsym
   LCORR  =      T    Harris-Foulkes like correction to forces

   POTIM  = 0.0100    time-step for ionic-motion
   TEIN   =    0.0    initial temperature
   TEBEG  =    0.0;   TEEND  =   0.0 temperature during run
   SMASS  =  -3.00    Nose mass-parameter (am)
   estimated Nose-frequenzy (Omega)   =  0.10E-29 period in steps =****** mass=  -0.288E-26a.u.
   SCALEE = 1.0000    scale energy and forces
   NPACO  =    256;   APACO  = 16.0  distance and # of slots for P.C.
   PSTRESS=    0.0 pullay stress

  Mass of Ions in am
   POMASS = 195.08  1.00
  Ionic Valenz
   ZVAL   =  10.00  1.00
  Atomic Wigner-Seitz radii
   RWIGS  =  -1.00 -1.00
  virtual crystal weights 
   VCA    =   1.00  1.00
   NELECT =     801.0000    total number of electrons
   NUPDOWN=      -1.0000    fix difference up-down

 DOS related values:
   EMIN   =  10.00;   EMAX   =-10.00  energy-range for DOS
   EFERMI =   0.00
   ISMEAR =     1;   SIGMA  =   0.10  broadening in eV -4-tet -1-fermi 0-gaus

 Electronic relaxation 2 (details)
   IALGO  =     68    algorithm
   LDIAG  =      T    sub-space diagonalisation (order eigenvalues)
   LSUBROT=      F    optimize rotation matrix (better conditioning)
   TURBO    =      0    0=normal 1=particle mesh
   IRESTART =      0    0=no restart 2=restart with 2 vectors
   NREBOOT  =      0    no. of reboots
   NMIN     =      0    reboot dimension
   EREF     =   0.00    reference energy to select bands
   IMIX   =      4    mixing-type and parameters
     AMIX     =   0.40;   BMIX     =  1.00
     AMIX_MAG =   1.60;   BMIX_MAG =  1.00
     AMIN     =   0.10
     WC   =   100.;   INIMIX=   1;  MIXPRE=   1;  MAXMIX= -45

 Intra band minimization:
   WEIMIN = 0.0010     energy-eigenvalue tresh-hold
   EBREAK =  0.47E-09  absolut break condition
   DEPER  =   0.30     relativ break condition  

   TIME   =   0.40     timestep for ELM

  volume/ion in A,a.u.               =      29.63       199.92
  Fermi-wavevector in a.u.,A,eV,Ry     =   1.135629  2.146027 17.546785  1.289652
  Thomas-Fermi vector in A             =   2.272333
 
 Write flags
   LWAVE        =      F    write WAVECAR
   LDOWNSAMPLE  =      F    k-point downsampling of WAVECAR
   LCHARG       =      F    write CHGCAR
   LVTOT        =      F    write LOCPOT, total local potential
   LVHAR        =      F    write LOCPOT, Hartree potential only
   LELF         =      F    write electronic localiz. function (ELF)
   LORBIT       =      0    0 simple, 1 ext, 2 COOP (PROOUT), +10 PAW based schemes


 Dipole corrections
   LMONO  =      F    monopole corrections only (constant potential shift)
   LDIPOL =      F    correct potential (dipole corrections)
   IDIPOL =      0    1-x, 2-y, 3-z, 4-all directions 
   EPSILON=  1.0000000 bulk dielectric constant

 Exchange correlation treatment:
   GGA     =    --    GGA type
   LEXCH   =     8    internal setting for exchange type
   VOSKOWN=      0    Vosko Wilk Nusair interpolation
   LHFCALC =     F    Hartree Fock is set to
   LHFONE  =     F    Hartree Fock one center treatment
   AEXX    =    0.0000 exact exchange contribution

 Linear response parameters
   LEPSILON=     F    determine dielectric tensor
   LRPA    =     F    only Hartree local field effects (RPA)
   LNABLA  =     F    use nabla operator in PAW spheres
   LVEL    =     F    velocity operator in full k-point grid
   LINTERFAST=   F  fast interpolation
   KINTER  =     0    interpolate to denser k-point grid
   CSHIFT  =0.1000    complex shift for real part using Kramers Kronig
   OMEGAMAX=  -1.0    maximum frequency
   DEG_THRESHOLD= 0.2000000E-02 threshold for treating states as degnerate
   RTIME   =   -0.100 relaxation time in fs
  (WPLASMAI=    0.000 imaginary part of plasma frequency in eV, 0.658/RTIME)
   DFIELD  = 0.0000000 0.0000000 0.0000000 field for delta impulse in time
 
 Orbital magnetization related:
   ORBITALMAG=     F  switch on orbital magnetization
   LCHIMAG   =     F  perturbation theory with respect to B field
   DQ        =  0.001000  dq finite difference perturbation B field
   LLRAUG    =     F  two centre corrections for induced B field



--------------------------------------------------------------------------------------------------------


 conjugate gradient relaxation of ions
 charge density and potential will be updated during run
 spin polarized calculation
 RMM-DIIS sequential band-by-band and
  variant of blocked Davidson during initial phase
 perform sub-space diagonalisation
    before iterative eigenvector-optimisation
 modified Broyden-mixing scheme, WC =      100.0
 initial mixing is a Kerker type mixing with AMIX =  0.4000 and BMIX =      1.0000
 Hartree-type preconditioning will be used
 using additional bands          129
 real space projection scheme for non local part
 use partial core corrections
 calculate Harris-corrections to forces 
   (improved forces if not selfconsistent)
 use gradient corrections 
 use of overlap-Matrix (Vanderbilt PP)
 Methfessel and Paxton  Order N= 1 SIGMA  =   0.10


--------------------------------------------------------------------------------------------------------


  energy-cutoff  :      550.00
  volume of cell :     2399.65
      direct lattice vectors                 reciprocal lattice vectors
    11.222700119  0.000000000  0.000000000     0.089105116 -0.051444863  0.000000000
     5.611350060  9.719143402  0.000000000     0.000000000  0.102889726  0.000000000
     0.000000000  0.000000000 22.000000000     0.000000000  0.000000000  0.045454545

  length of vectors
    11.222700119 11.222700119 22.000000000     0.102889726  0.102889726  0.045454545


 
 k-points in units of 2pi/SCALE and weight: mesh auto                               
   0.00000000  0.00000000  0.00000000       0.111
   0.02970171 -0.01714829  0.00000000       0.222
   0.00000000  0.03429658  0.00000000       0.222
   0.02970171  0.01714829  0.00000000       0.222
  -0.02970171  0.05144486  0.00000000       0.222
 
 k-points in reciprocal lattice and weights: mesh auto                               
   0.00000000  0.00000000  0.00000000       0.111
   0.33333333 -0.00000000  0.00000000       0.222
   0.00000000  0.33333333  0.00000000       0.222
   0.33333333  0.33333333  0.00000000       0.222
  -0.33333333  0.33333333  0.00000000       0.222
 
 position of ions in fractional coordinates (direct lattice) 
   0.78485128  0.86918798  0.32683689
   0.03495064  0.86919166  0.32678503
   0.03496814  0.61909495  0.32678474
   0.78628007  0.86823023  0.02256706
   0.03643843  0.86806091  0.02268562
   0.03642284  0.61822022  0.02268058
   0.61897582  0.20209799  0.12608852
   0.36931403  0.95162418  0.12604596
   0.03489914  0.36915667  0.32664316
   0.03617886  0.36857821  0.02270881
   0.86884714  0.20202943  0.12605216
   0.95192646  0.53565475  0.22643499
   0.28481786  0.11923349  0.32667457
   0.53470552  0.61899291  0.32780424
   0.28518828  0.36946124  0.32710570
   0.28666481  0.11802724  0.02275130
   0.53636746  0.61813417  0.02280227
   0.28639154  0.36823190  0.02273335
   0.61919697  0.95184519  0.12597283
   0.70196762  0.78548360  0.22639848
   0.86913708  0.70196502  0.12594632
   0.61885956  0.45202590  0.12626107
   0.28513422  0.86865036  0.32708929
   0.28634552  0.86812949  0.02272382
   0.61902727  0.70182230  0.12609777
   0.20185012  0.03587126  0.22618029
   0.86784408  0.95272126  0.43033274
   0.11718892  0.45265758  0.43014337
   0.11715336  0.95351409  0.43015926
   0.86851443  0.45270399  0.43018205
   0.36774880  0.95345426  0.43018738
   0.86851382  0.20212424  0.43016813
   0.11773776  0.20279170  0.43004562
   0.61771429  0.95277924  0.43031613
   0.86787883  0.70270531  0.43031039
   0.36768624  0.20217069  0.43018550
   0.36524055  0.70788096  0.43201353
   0.62285075  0.45024185  0.43201573
   0.11469495  0.70430690  0.43012678
   0.61933632  0.19954815  0.43020098
   0.53474576  0.36948962  0.32781076
   0.53629996  0.36833304  0.02280434
   0.53487100  0.11918441  0.32680659
   0.53640731  0.11820116  0.02269461
   0.86884881  0.45209246  0.12604359
   0.11921317  0.45208638  0.12604492
   0.03492760  0.11915516  0.32663435
   0.03616421  0.11798663  0.02272790
   0.11922023  0.95163170  0.12605543
   0.36533674  0.45020429  0.43201255
   0.45194653  0.53560106  0.22705430
   0.61937257  0.70437869  0.43015772
   0.36931314  0.20198871  0.12605659
   0.11903315  0.20198196  0.12546580
   0.95204677  0.78553062  0.22639385
   0.78485619  0.61915237  0.32680349
   0.28524123  0.61902714  0.32778997
   0.78630148  0.61822153  0.02269578
   0.28648479  0.61812172  0.02282905
   0.36925839  0.70168542  0.12623186
   0.36925694  0.45197883  0.12625555
   0.20185895  0.28541849  0.22619303
   0.78428027  0.36946790  0.32712127
   0.78621882  0.36823465  0.02273493
   0.95192416  0.03553581  0.22642826
   0.45186488  0.78549483  0.22661437
   0.70189110  0.53545629  0.22663019
   0.20221178  0.78542954  0.22661353
   0.45201532  0.03558639  0.22644307
   0.11929592  0.70180471  0.12610483
   0.70195736  0.03565993  0.22639753
   0.78487344  0.11922958  0.32681792
   0.53481968  0.86920317  0.32678047
   0.78628714  0.11822383  0.02271717
   0.53639853  0.86811131  0.02269142
   0.20219652  0.53544026  0.22663066
   0.95220672  0.28545316  0.22620348
   0.86912935  0.95184785  0.12594816
   0.70189816  0.28572778  0.22662234
   0.45188830  0.28578221  0.22663526
   0.45101654  0.53617999  0.46971071
 
 position of ions in cartesian coordinates  (Angst):
  13.68546863  8.44776267  7.19041162
   5.26957920  8.44779839  7.18927061
   3.86639545  6.01707255  7.18926434
  13.69612925  8.43845415  0.49647528
   5.27993121  8.43680849  0.49908358
   3.87781270  6.00857098  0.49897285
   8.08062263  1.96421938  2.77394741
   9.48459702  9.24897184  2.77301107
   2.46312992  3.58788658  7.18614952
   2.47424586  3.58226448  0.49959384
  10.88446880  1.96355304  2.77314760
  13.68893150  5.20610528  4.98156976
   3.86548628  1.15884741  7.18684062
   9.47422559  6.01608089  7.21169327
   5.27375886  3.59084675  7.19632546
   3.87944532  1.14712366  0.50052862
   9.48805833  6.00773462  0.50164991
   5.28036449  3.57889863  0.50013371
  12.29019845  9.25111994  2.77140222
  12.28559552  7.63422774  4.98076648
  13.69303627  6.82249873  2.77081914
   9.48175084  4.39330450  2.77774351
   8.07427708  8.44253740  7.19596449
   8.08494834  8.43747501  0.49992405
  10.88532805  6.82111160  2.77415099
   2.46658953  0.34863787  4.97596642
  15.08560634  9.25963458  9.46732031
   3.85519627  4.39944389  9.46315407
   6.66527835  9.26734016  9.46350380
  12.28735750  4.39989499  9.46400502
   9.47730008  9.26675869  9.46412226
  10.88126004  1.96447449  9.46369880
   2.45927087  1.97096165  9.46100368
  12.27880013  9.26019808  9.46695484
  13.68306935  6.82969369  9.46682860
   5.26088295  1.96492594  9.46408110
   8.07115300  6.87999654  9.50429763
   9.51653185  4.37596512  9.50434601
   5.23929962  6.84525975  9.46278912
   8.07036031  1.93943712  9.46442163
   8.07462691  3.59112259  7.21183682
   8.08557924  3.57988161  0.50169538
   6.67148229  1.15837035  7.18974500
   6.68320651  1.14881404  0.49928147
  12.28767862  4.39395141  2.77295906
   3.87470863  4.39389234  2.77298830
   1.06060327  1.15808607  7.18595561
   1.06792438  1.14672897  0.50001384
   6.67791147  9.24904496  2.77321950
   6.62631854  4.37560010  9.50427611
   8.07750542  5.20558348  4.99519460
  10.90354808  6.84595751  9.46346992
   5.27811995  1.96315727  2.77324501
   2.46926482  1.96309165  2.76024766
  15.09242267  7.63468479  4.98066467
  12.28248640  6.01763072  7.18967684
   6.67475476  6.01641357  7.21137939
  12.29348308  6.00858369  0.49930726
   6.68363028  6.00761364  0.50223913
   8.08147875  6.81978121  2.77710096
   6.68027130  4.39284709  2.77762202
   3.86698549  2.77402321  4.97624671
  10.87495596  3.59091149  7.19666792
  10.88979155  3.57892538  0.50016845
  10.88256329  0.34537763  4.98142163
   9.47883058  7.63433694  4.98551614
  10.88174600  5.20417650  4.98586429
   6.67668222  7.63370233  4.98549773
   5.27252015  0.34586927  4.98174751
   5.27689430  6.82094065  2.77430621
   8.07795734  0.34658396  4.98074575
   9.47743819  1.15880943  7.18999414
  10.87952416  8.44791023  7.18917026
   9.48766005  1.14903439  0.49977774
  10.89111631  8.43729834  0.49921132
   5.27373367  5.20402063  4.98587441
  12.28810805  2.77436019  4.97647658
  15.09512961  9.25114580  2.77085941
   9.48051109  2.77702924  4.98569155
   6.67503088  2.77755827  4.98597580
   8.07031702  5.21121017 10.33363571
 


--------------------------------------------------------------------------------------------------------


 k-point  1 :   0.0000 0.0000 0.0000  plane waves:   70321
 k-point  2 :   0.3333-0.0000 0.0000  plane waves:   70285
 k-point  3 :   0.0000 0.3333 0.0000  plane waves:   70285
 k-point  4 :   0.3333 0.3333 0.0000  plane waves:   70285
 k-point  5 :  -0.3333 0.3333 0.0000  plane waves:   70206

 maximum and minimum number of plane-waves per node :     17602    17546

 maximum number of plane-waves:     70321
 maximum index in each direction: 
   IXMAX=   21   IYMAX=   21   IZMAX=   42
   IXMIN=  -21   IYMIN=  -21   IZMIN=  -42


 real space projection operators:
  total allocation   :      86155.74 KBytes
  max/ min on nodes  :      22026.89      21059.03


 parallel 3D FFT for wavefunctions:
    minimum data exchange during FFTs selected (reduces bandwidth)
 parallel 3D FFT for charge:
    minimum data exchange during FFTs selected (reduces bandwidth)


 total amount of memory used by VASP MPI-rank0   293552. kBytes
=======================================================================

   base      :      30000. kBytes
   nonlr-proj:      37951. kBytes
   fftplans  :      20284. kBytes
   grid      :      52194. kBytes
   one-center:        653. kBytes
   wavefun   :     152470. kBytes
 
     INWAV:  cpu time    0.0000: real time    0.0000
 Broyden mixing: mesh for mixing (old mesh)
   NGX = 43   NGY = 43   NGZ = 85
  (NGX  =180   NGY  =180   NGZ  =336)
  gives a total of 157165 points

 initial charge density was supplied:
 charge density of overlapping atoms calculated
 number of electron     801.0000000 magnetization      81.0000000
 keeping initial charge density in first step


--------------------------------------------------------------------------------------------------------


 Maximum index for non-local projection operator         2101
 Maximum index for augmentation-charges         1773 (set IRDMAX)


--------------------------------------------------------------------------------------------------------


 First call to EWALD:  gamma=   0.132
 Maximum number of real-space cells 4x 4x 2
 Maximum number of reciprocal cells 2x 2x 4

    FEWALD:  cpu time    0.0040: real time    0.0040


--------------------------------------- Iteration      1(   1)  ---------------------------------------


    POTLOK:  cpu time    0.4658: real time    0.4946
    SETDIJ:  cpu time    0.0400: real time    0.0404
     EDDAV:  cpu time   85.0700: real time   85.3035
       DOS:  cpu time    0.0022: real time    0.0023
    --------------------------------------------
      LOOP:  cpu time   85.5781: real time   85.8407

 eigenvalue-minimisations  : 10600
 total energy-change (2. order) : 0.5489395E+04  (-0.3886684E+05)
 number of electron     801.0000000 magnetization      81.0000000
 augmentation part      801.0000000 magnetization      81.0000000

 Free energy of the ion-electron system (eV)
  ---------------------------------------------------
  alpha Z        PSCENC =      2539.23836485
  Ewald energy   TEWEN  =    178066.26963929
  -Hartree energ DENC   =   -242142.72286846
  -exchange      EXHF   =         0.00000000
  -V(xc)+E(xc)   XCENC  =       289.02919493
  PAW double counting   =     55685.49641431   -53423.17961727
  entropy T*S    EENTRO =        -0.00272122
  eigenvalues    EBANDS =      6133.53513038
  atomic energy  EATOM  =     58341.73154849
  Solvation  Ediel_sol  =         0.00000000
  ---------------------------------------------------
  free energy    TOTEN  =      5489.39508531 eV

  energy without entropy =     5489.39780653  energy(sigma->0) =     5489.39599238


--------------------------------------------------------------------------------------------------------




--------------------------------------- Iteration      1(   2)  ---------------------------------------


     EDDAV:  cpu time   92.8590: real time   93.0815
       DOS:  cpu time    0.0024: real time    0.0024
    --------------------------------------------
      LOOP:  cpu time   92.8614: real time   93.0839

 eigenvalue-minimisations  : 11870
 total energy-change (2. order) :-0.5677247E+04  (-0.5200893E+04)
 number of electron     801.0000000 magnetization      81.0000000
 augmentation part      801.0000000 magnetization      81.0000000

 Free energy of the ion-electron system (eV)
  ---------------------------------------------------
  alpha Z        PSCENC =      2539.23836485
  Ewald energy   TEWEN  =    178066.26963929
  -Hartree energ DENC   =   -242142.72286846
  -exchange      EXHF   =         0.00000000
  -V(xc)+E(xc)   XCENC  =       289.02919493
  PAW double counting   =     55685.49641431   -53423.17961727
  entropy T*S    EENTRO =         0.00025055
  eigenvalues    EBANDS =       456.28522226
  atomic energy  EATOM  =     58341.73154849
  Solvation  Ediel_sol  =         0.00000000
  ---------------------------------------------------
  free energy    TOTEN  =      -187.85185104 eV

  energy without entropy =     -187.85210159  energy(sigma->0) =     -187.85193456


--------------------------------------------------------------------------------------------------------




--------------------------------------- Iteration      1(   3)  ---------------------------------------


     EDDAV:  cpu time   93.5544: real time   93.7840
       DOS:  cpu time    0.0024: real time    0.0024
    --------------------------------------------
      LOOP:  cpu time   93.5569: real time   93.7865

 eigenvalue-minimisations  : 11980
 total energy-change (2. order) :-0.2989738E+03  (-0.2752357E+03)
 number of electron     801.0000000 magnetization      81.0000000
 augmentation part      801.0000000 magnetization      81.0000000

 Free energy of the ion-electron system (eV)
  ---------------------------------------------------
  alpha Z        PSCENC =      2539.23836485
  Ewald energy   TEWEN  =    178066.26963929
  -Hartree energ DENC   =   -242142.72286846
  -exchange      EXHF   =         0.00000000
  -V(xc)+E(xc)   XCENC  =       289.02919493
  PAW double counting   =     55685.49641431   -53423.17961727
  entropy T*S    EENTRO =         0.03665463
  eigenvalues    EBANDS =       157.27499115
  atomic energy  EATOM  =     58341.73154849
  Solvation  Ediel_sol  =         0.00000000
  ---------------------------------------------------
  free energy    TOTEN  =      -486.82567807 eV

  energy without entropy =     -486.86233270  energy(sigma->0) =     -486.83789628


--------------------------------------------------------------------------------------------------------




--------------------------------------- Iteration      1(   4)  ---------------------------------------


     EDDAV:  cpu time   96.4662: real time   96.7481
       DOS:  cpu time    0.0026: real time    0.0026
    --------------------------------------------
      LOOP:  cpu time   96.4688: real time   96.7507

 eigenvalue-minimisations  : 12510
 total energy-change (2. order) :-0.8032886E+01  (-0.7943388E+01)
 number of electron     801.0000000 magnetization      81.0000000
 augmentation part      801.0000000 magnetization      81.0000000

 Free energy of the ion-electron system (eV)
  ---------------------------------------------------
  alpha Z        PSCENC =      2539.23836485
  Ewald energy   TEWEN  =    178066.26963929
  -Hartree energ DENC   =   -242142.72286846
  -exchange      EXHF   =         0.00000000
  -V(xc)+E(xc)   XCENC  =       289.02919493
  PAW double counting   =     55685.49641431   -53423.17961727
  entropy T*S    EENTRO =         0.03988052
  eigenvalues    EBANDS =       149.23887916
  atomic energy  EATOM  =     58341.73154849
  Solvation  Ediel_sol  =         0.00000000
  ---------------------------------------------------
  free energy    TOTEN  =      -494.85856418 eV

  energy without entropy =     -494.89844470  energy(sigma->0) =     -494.87185768


--------------------------------------------------------------------------------------------------------




--------------------------------------- Iteration      1(   5)  ---------------------------------------


     EDDAV:  cpu time   95.8487: real time   96.1352
       DOS:  cpu time    0.0026: real time    0.0026
    CHARGE:  cpu time    6.2381: real time    6.2562
    MIXING:  cpu time    0.0101: real time    0.0109
    --------------------------------------------
      LOOP:  cpu time  102.0995: real time  102.4049

 eigenvalue-minimisations  : 12360
 total energy-change (2. order) :-0.2794459E+00  (-0.2787933E+00)
 number of electron     800.9999974 magnetization      75.8914525
 augmentation part      233.3250087 magnetization      54.8638241

 Broyden mixing:
  rms(total) = 0.10277E+02    rms(broyden)= 0.10277E+02
  rms(prec ) = 0.10412E+02
  weight for this iteration     100.00

 Free energy of the ion-electron system (eV)
  ---------------------------------------------------
  alpha Z        PSCENC =      2539.23836485
  Ewald energy   TEWEN  =    178066.26963929
  -Hartree energ DENC   =   -242142.72286846
  -exchange      EXHF   =         0.00000000
  -V(xc)+E(xc)   XCENC  =       289.02919493
  PAW double counting   =     55685.49641431   -53423.17961727
  entropy T*S    EENTRO =         0.04000143
  eigenvalues    EBANDS =       148.95931232
  atomic energy  EATOM  =     58341.73154849
  Solvation  Ediel_sol  =         0.00000000
  ---------------------------------------------------
  free energy    TOTEN  =      -495.13801011 eV

  energy without entropy =     -495.17801153  energy(sigma->0) =     -495.15134392


--------------------------------------------------------------------------------------------------------




--------------------------------------- Iteration      1(   6)  ---------------------------------------


    POTLOK:  cpu time    0.4472: real time    0.4488
    SETDIJ:  cpu time    0.0412: real time    0.0413
    EDDIAG:  cpu time   15.0503: real time   15.0912
  RMM-DIIS:  cpu time   53.3815: real time   53.5081
    ORTHCH:  cpu time    1.4918: real time    1.4954
       DOS:  cpu time    0.0024: real time    0.0024
    CHARGE:  cpu time    6.1608: real time    6.1754
    MIXING:  cpu time    0.0116: real time    0.0120
    --------------------------------------------
      LOOP:  cpu time   76.5867: real time   76.7745

 eigenvalue-minimisations  : 10663
 total energy-change (2. order) : 0.1309543E+02  (-0.8266610E+01)
 number of electron     800.9999974 magnetization      72.6408466
 augmentation part      246.0651868 magnetization      50.2075217

 Broyden mixing:
  rms(total) = 0.82387E+01    rms(broyden)= 0.82387E+01
  rms(prec ) = 0.91063E+01
  weight for this iteration     100.00

 eigenvalues of (default mixing * dielectric matrix)
  average eigenvalue GAMMA=   0.7671
  0.7671

 Free energy of the ion-electron system (eV)
  ---------------------------------------------------
  alpha Z        PSCENC =      2539.23836485
  Ewald energy   TEWEN  =    178066.26963929
  -Hartree energ DENC   =   -241143.70216957
  -exchange      EXHF   =         0.00000000
  -V(xc)+E(xc)   XCENC  =       271.93869931
  PAW double counting   =     62013.16497271   -59870.17178671
  entropy T*S    EENTRO =         0.05771500
  eigenvalues    EBANDS =      -700.56956471
  atomic energy  EATOM  =     58341.73154849
  Solvation  Ediel_sol  =         0.00000000
  ---------------------------------------------------
  free energy    TOTEN  =      -482.04258133 eV

  energy without entropy =     -482.10029633  energy(sigma->0) =     -482.06181966


--------------------------------------------------------------------------------------------------------




--------------------------------------- Iteration      1(   7)  ---------------------------------------


    POTLOK:  cpu time    0.4506: real time    0.4517
    SETDIJ:  cpu time    0.0411: real time    0.0412
    EDDIAG:  cpu time   14.9954: real time   15.0311
  RMM-DIIS:  cpu time   52.4079: real time   52.5320
    ORTHCH:  cpu time    1.4986: real time    1.5022
       DOS:  cpu time    0.0024: real time    0.0024
    CHARGE:  cpu time    6.2731: real time    6.2880
    MIXING:  cpu time    0.0109: real time    0.0109
    --------------------------------------------
      LOOP:  cpu time   75.6802: real time   75.8596

 eigenvalue-minimisations  : 10640
 total energy-change (2. order) :-0.9175144E+02  (-0.1219136E+02)
 number of electron     800.9999972 magnetization      65.2208040
 augmentation part      240.3843888 magnetization      53.1640078

 Broyden mixing:
  rms(total) = 0.91013E+01    rms(broyden)= 0.91013E+01
  rms(prec ) = 0.11593E+02
  weight for this iteration     100.00

 eigenvalues of (default mixing * dielectric matrix)
  average eigenvalue GAMMA=   0.7732
  1.2502  0.2963

 Free energy of the ion-electron system (eV)
  ---------------------------------------------------
  alpha Z        PSCENC =      2539.23836485
  Ewald energy   TEWEN  =    178066.26963929
  -Hartree energ DENC   =   -242087.59729679
  -exchange      EXHF   =         0.00000000
  -V(xc)+E(xc)   XCENC  =       264.74805771
  PAW double counting   =     65131.25511553   -63022.64939183
  entropy T*S    EENTRO =        -0.04331246
  eigenvalues    EBANDS =       193.25325880
  atomic energy  EATOM  =     58341.73154849
  Solvation  Ediel_sol  =         0.00000000
  ---------------------------------------------------
  free energy    TOTEN  =      -573.79401640 eV

  energy without entropy =     -573.75070395  energy(sigma->0) =     -573.77957892


--------------------------------------------------------------------------------------------------------




--------------------------------------- Iteration      1(   8)  ---------------------------------------


    POTLOK:  cpu time    0.4491: real time    0.4502
    SETDIJ:  cpu time    0.0408: real time    0.0408
    EDDIAG:  cpu time   15.2359: real time   15.2834
  RMM-DIIS:  cpu time   53.0174: real time   53.1464
    ORTHCH:  cpu time    1.4873: real time    1.4908
       DOS:  cpu time    0.0024: real time    0.0024
    CHARGE:  cpu time    6.1561: real time    6.1708
    MIXING:  cpu time    0.0110: real time    0.0110
    --------------------------------------------
      LOOP:  cpu time   76.4000: real time   76.5958

 eigenvalue-minimisations  : 10669
 total energy-change (2. order) : 0.1046974E+03  (-0.5576359E+01)
 number of electron     800.9999974 magnetization      61.2981057
 augmentation part      249.6944797 magnetization      45.3902399

 Broyden mixing:
  rms(total) = 0.40395E+01    rms(broyden)= 0.40395E+01
  rms(prec ) = 0.45149E+01
  weight for this iteration     100.00

 eigenvalues of (default mixing * dielectric matrix)
  average eigenvalue GAMMA=   0.9402
  2.0104  0.5607  0.2494

 Free energy of the ion-electron system (eV)
  ---------------------------------------------------
  alpha Z        PSCENC =      2539.23836485
  Ewald energy   TEWEN  =    178066.26963929
  -Hartree energ DENC   =   -241275.22122043
  -exchange      EXHF   =         0.00000000
  -V(xc)+E(xc)   XCENC  =       261.70015099
  PAW double counting   =     70001.99020679   -67959.90859481
  entropy T*S    EENTRO =         0.01510965
  eigenvalues    EBANDS =      -444.91183209
  atomic energy  EATOM  =     58341.73154849
  Solvation  Ediel_sol  =         0.00000000
  ---------------------------------------------------
  free energy    TOTEN  =      -469.09662726 eV

  energy without entropy =     -469.11173692  energy(sigma->0) =     -469.10166382


--------------------------------------------------------------------------------------------------------




--------------------------------------- Iteration      1(   9)  ---------------------------------------


    POTLOK:  cpu time    0.4501: real time    0.4513
    SETDIJ:  cpu time    0.0408: real time    0.0409
    EDDIAG:  cpu time   15.0096: real time   15.0451
  RMM-DIIS:  cpu time   52.8015: real time   52.9269
    ORTHCH:  cpu time    1.4960: real time    1.4995
       DOS:  cpu time    0.0024: real time    0.0024
    CHARGE:  cpu time    6.2059: real time    6.2206
    MIXING:  cpu time    0.0120: real time    0.0121
    --------------------------------------------
      LOOP:  cpu time   76.0182: real time   76.1987

 eigenvalue-minimisations  : 10648
 total energy-change (2. order) :-0.1371511E+02  (-0.4719731E+01)
 number of electron     800.9999971 magnetization      59.2031832
 augmentation part      249.3845082 magnetization      44.7735428

 Broyden mixing:
  rms(total) = 0.52166E+01    rms(broyden)= 0.52166E+01
  rms(prec ) = 0.76617E+01
  weight for this iteration     100.00

 eigenvalues of (default mixing * dielectric matrix)
  average eigenvalue GAMMA=   0.8187
  2.1827  0.5953  0.2315  0.2652

 Free energy of the ion-electron system (eV)
  ---------------------------------------------------
  alpha Z        PSCENC =      2539.23836485
  Ewald energy   TEWEN  =    178066.26963929
  -Hartree energ DENC   =   -241234.37117909
  -exchange      EXHF   =         0.00000000
  -V(xc)+E(xc)   XCENC  =       263.25367328
  PAW double counting   =     71351.31146682   -69319.20782444
  entropy T*S    EENTRO =         0.01926656
  eigenvalues    EBANDS =      -491.05669685
  atomic energy  EATOM  =     58341.73154849
  Solvation  Ediel_sol  =         0.00000000
  ---------------------------------------------------
  free energy    TOTEN  =      -482.81174109 eV

  energy without entropy =     -482.83100765  energy(sigma->0) =     -482.81816327


--------------------------------------------------------------------------------------------------------




--------------------------------------- Iteration      1(  10)  ---------------------------------------


    POTLOK:  cpu time    0.4585: real time    0.4598
    SETDIJ:  cpu time    0.0407: real time    0.0408
    EDDIAG:  cpu time   15.0051: real time   15.0408
  RMM-DIIS:  cpu time   52.9748: real time   53.1256
    ORTHCH:  cpu time    1.4955: real time    1.4991
       DOS:  cpu time    0.0025: real time    0.0025
    CHARGE:  cpu time    6.2684: real time    6.2833
    MIXING:  cpu time    0.0123: real time    0.0123
    --------------------------------------------
      LOOP:  cpu time   76.2578: real time   76.4640

 eigenvalue-minimisations  : 10653
 total energy-change (2. order) :-0.1058819E+02  (-0.1272285E+01)
 number of electron     800.9999972 magnetization      56.4622603
 augmentation part      248.9317374 magnetization      42.4102690

 Broyden mixing:
  rms(total) = 0.56194E+01    rms(broyden)= 0.56194E+01
  rms(prec ) = 0.88972E+01
  weight for this iteration     100.00

 eigenvalues of (default mixing * dielectric matrix)
  average eigenvalue GAMMA=   0.7282
  2.3037  0.6235  0.3557  0.2483  0.1099

 Free energy of the ion-electron system (eV)
  ---------------------------------------------------
  alpha Z        PSCENC =      2539.23836485
  Ewald energy   TEWEN  =    178066.26963929
  -Hartree energ DENC   =   -241280.09079561
  -exchange      EXHF   =         0.00000000
  -V(xc)+E(xc)   XCENC  =       264.01301968
  PAW double counting   =     71852.25456105   -69823.25551082
  entropy T*S    EENTRO =        -0.04177531
  eigenvalues    EBANDS =      -453.51897897
  atomic energy  EATOM  =     58341.73154849
  Solvation  Ediel_sol  =         0.00000000
  ---------------------------------------------------
  free energy    TOTEN  =      -493.39992734 eV

  energy without entropy =     -493.35815203  energy(sigma->0) =     -493.38600224


--------------------------------------------------------------------------------------------------------




--------------------------------------- Iteration      1(  11)  ---------------------------------------


    POTLOK:  cpu time    0.4508: real time    0.4519
    SETDIJ:  cpu time    0.0398: real time    0.0399
    EDDIAG:  cpu time   15.0673: real time   15.1077
  RMM-DIIS:  cpu time   52.9364: real time   53.0649
    ORTHCH:  cpu time    1.4900: real time    1.4935
       DOS:  cpu time    0.0024: real time    0.0024
    CHARGE:  cpu time    6.2267: real time    6.2416
    MIXING:  cpu time    0.0143: real time    0.0143
    --------------------------------------------
      LOOP:  cpu time   76.2277: real time   76.4162

 eigenvalue-minimisations  : 10654
 total energy-change (2. order) : 0.3785017E+02  (-0.7680468E+00)
 number of electron     800.9999972 magnetization      54.9854882
 augmentation part      249.1913275 magnetization      38.2695548

 Broyden mixing:
  rms(total) = 0.20074E+01    rms(broyden)= 0.20074E+01
  rms(prec ) = 0.24020E+01
  weight for this iteration     100.00

 eigenvalues of (default mixing * dielectric matrix)
  average eigenvalue GAMMA=   0.7053
  2.0962  0.7284  0.7284  0.2898  0.2898  0.0992

 Free energy of the ion-electron system (eV)
  ---------------------------------------------------
  alpha Z        PSCENC =      2539.23836485
  Ewald energy   TEWEN  =    178066.26963929
  -Hartree energ DENC   =   -241365.36980846
  -exchange      EXHF   =         0.00000000
  -V(xc)+E(xc)   XCENC  =       264.70235452
  PAW double counting   =     72397.54123261   -70372.49678887
  entropy T*S    EENTRO =        -0.05576995
  eigenvalues    EBANDS =      -327.11053104
  atomic energy  EATOM  =     58341.73154849
  Solvation  Ediel_sol  =         0.00000000
  ---------------------------------------------------
  free energy    TOTEN  =      -455.54975856 eV

  energy without entropy =     -455.49398861  energy(sigma->0) =     -455.53116858


--------------------------------------------------------------------------------------------------------




--------------------------------------- Iteration      1(  12)  ---------------------------------------


    POTLOK:  cpu time    0.4578: real time    0.4590
    SETDIJ:  cpu time    0.0478: real time    0.0479
    EDDIAG:  cpu time   15.0543: real time   15.0903
  RMM-DIIS:  cpu time   52.8420: real time   52.9671
    ORTHCH:  cpu time    1.4906: real time    1.4942
       DOS:  cpu time    0.0023: real time    0.0023
    CHARGE:  cpu time    6.1819: real time    6.1966
    MIXING:  cpu time    0.0134: real time    0.0134
    --------------------------------------------
      LOOP:  cpu time   76.0900: real time   76.2708

 eigenvalue-minimisations  : 10662
 total energy-change (2. order) :-0.2244936E+01  (-0.4490774E+00)
 number of electron     800.9999973 magnetization      52.3263571
 augmentation part      248.7342368 magnetization      34.9655055

 Broyden mixing:
  rms(total) = 0.13337E+01    rms(broyden)= 0.13337E+01
  rms(prec ) = 0.15173E+01
  weight for this iteration     100.00

 eigenvalues of (default mixing * dielectric matrix)
  average eigenvalue GAMMA=   0.7241
  1.9799  0.9424  0.9424  0.5154  0.2947  0.2947  0.0989

 Free energy of the ion-electron system (eV)
  ---------------------------------------------------
  alpha Z        PSCENC =      2539.23836485
  Ewald energy   TEWEN  =    178066.26963929
  -Hartree energ DENC   =   -241346.72775390
  -exchange      EXHF   =         0.00000000
  -V(xc)+E(xc)   XCENC  =       264.87261236
  PAW double counting   =     71833.88759794   -69799.56851023
  entropy T*S    EENTRO =         0.01825243
  eigenvalues    EBANDS =      -357.51644620
  atomic energy  EATOM  =     58341.73154849
  Solvation  Ediel_sol  =         0.00000000
  ---------------------------------------------------
  free energy    TOTEN  =      -457.79469498 eV

  energy without entropy =     -457.81294741  energy(sigma->0) =     -457.80077912


--------------------------------------------------------------------------------------------------------




--------------------------------------- Iteration      1(  13)  ---------------------------------------


    POTLOK:  cpu time    0.4512: real time    0.4524
    SETDIJ:  cpu time    0.0398: real time    0.0398
    EDDIAG:  cpu time   15.0161: real time   15.0520
  RMM-DIIS:  cpu time   53.0148: real time   53.1522
    ORTHCH:  cpu time    1.4890: real time    1.4926
       DOS:  cpu time    0.0025: real time    0.0025
    CHARGE:  cpu time    6.1591: real time    6.1737
    MIXING:  cpu time    0.0133: real time    0.0133
    --------------------------------------------
      LOOP:  cpu time   76.1857: real time   76.3785

 eigenvalue-minimisations  : 10675
 total energy-change (2. order) :-0.1718470E+01  (-0.1559496E+00)
 number of electron     800.9999973 magnetization      49.4912230
 augmentation part      248.5170038 magnetization      32.5958633

 Broyden mixing:
  rms(total) = 0.14534E+01    rms(broyden)= 0.14534E+01
  rms(prec ) = 0.17288E+01
  weight for this iteration     100.00

 eigenvalues of (default mixing * dielectric matrix)
  average eigenvalue GAMMA=   0.7022
  1.9810  0.9917  0.9917  0.7117  0.0990  0.2957  0.2957  0.2510

 Free energy of the ion-electron system (eV)
  ---------------------------------------------------
  alpha Z        PSCENC =      2539.23836485
  Ewald energy   TEWEN  =    178066.26963929
  -Hartree energ DENC   =   -241367.97947217
  -exchange      EXHF   =         0.00000000
  -V(xc)+E(xc)   XCENC  =       264.64931755
  PAW double counting   =     71837.68289971   -69802.37567498
  entropy T*S    EENTRO =         0.02784836
  eigenvalues    EBANDS =      -338.75763621
  atomic energy  EATOM  =     58341.73154849
  Solvation  Ediel_sol  =         0.00000000
  ---------------------------------------------------
  free energy    TOTEN  =      -459.51316509 eV

  energy without entropy =     -459.54101345  energy(sigma->0) =     -459.52244788


--------------------------------------------------------------------------------------------------------




--------------------------------------- Iteration      1(  14)  ---------------------------------------


    POTLOK:  cpu time    0.4521: real time    0.4532
    SETDIJ:  cpu time    0.0398: real time    0.0399
    EDDIAG:  cpu time   15.0168: real time   15.0525
  RMM-DIIS:  cpu time   53.1039: real time   53.2304
    ORTHCH:  cpu time    1.4929: real time    1.4964
       DOS:  cpu time    0.0025: real time    0.0025
    CHARGE:  cpu time    6.1636: real time    6.1798
    MIXING:  cpu time    0.0141: real time    0.0142
    --------------------------------------------
      LOOP:  cpu time   76.2858: real time   76.4689

 eigenvalue-minimisations  : 10670
 total energy-change (2. order) : 0.1040817E-01  (-0.7633756E-01)
 number of electron     800.9999973 magnetization      45.7164619
 augmentation part      248.4398270 magnetization      28.5490306

 Broyden mixing:
  rms(total) = 0.77453E+00    rms(broyden)= 0.77453E+00
  rms(prec ) = 0.85077E+00
  weight for this iteration     100.00

 eigenvalues of (default mixing * dielectric matrix)
  average eigenvalue GAMMA=   0.7456
  2.0544  1.2578  1.2578  0.6933  0.5262  0.3004  0.3004  0.0990  0.2208

 Free energy of the ion-electron system (eV)
  ---------------------------------------------------
  alpha Z        PSCENC =      2539.23836485
  Ewald energy   TEWEN  =    178066.26963929
  -Hartree energ DENC   =   -241399.02132457
  -exchange      EXHF   =         0.00000000
  -V(xc)+E(xc)   XCENC  =       263.99978874
  PAW double counting   =     72005.97535452   -69972.17904153
  entropy T*S    EENTRO =         0.03441848
  eigenvalues    EBANDS =      -305.55150519
  atomic energy  EATOM  =     58341.73154849
  Solvation  Ediel_sol  =         0.00000000
  ---------------------------------------------------
  free energy    TOTEN  =      -459.50275692 eV

  energy without entropy =     -459.53717540  energy(sigma->0) =     -459.51422975


--------------------------------------------------------------------------------------------------------




--------------------------------------- Iteration      1(  15)  ---------------------------------------


    POTLOK:  cpu time    0.4526: real time    0.4538
    SETDIJ:  cpu time    0.0397: real time    0.0398
    EDDIAG:  cpu time   15.2872: real time   15.3240
  RMM-DIIS:  cpu time   53.2124: real time   53.3395
    ORTHCH:  cpu time    1.6824: real time    1.6870
       DOS:  cpu time    0.0025: real time    0.0025
    CHARGE:  cpu time    6.1809: real time    6.2011
    MIXING:  cpu time    0.0147: real time    0.0148
    --------------------------------------------
      LOOP:  cpu time   76.8723: real time   77.0624

 eigenvalue-minimisations  : 10647
 total energy-change (2. order) :-0.2985474E+01  (-0.1198808E+00)
 number of electron     800.9999973 magnetization      42.6584419
 augmentation part      248.3111314 magnetization      26.3921133

 Broyden mixing:
  rms(total) = 0.86600E+00    rms(broyden)= 0.86600E+00
  rms(prec ) = 0.96464E+00
  weight for this iteration     100.00

 eigenvalues of (default mixing * dielectric matrix)
  average eigenvalue GAMMA=   0.7329
  1.9222  1.9222  0.9928  0.6461  0.6461  0.0990  0.3412  0.2765  0.2765  0.2068

 Free energy of the ion-electron system (eV)
  ---------------------------------------------------
  alpha Z        PSCENC =      2539.23836485
  Ewald energy   TEWEN  =    178066.26963929
  -Hartree energ DENC   =   -241430.42760616
  -exchange      EXHF   =         0.00000000
  -V(xc)+E(xc)   XCENC  =       262.41941272
  PAW double counting   =     72097.76905458   -70064.51236032
  entropy T*S    EENTRO =         0.02002754
  eigenvalues    EBANDS =      -274.99631197
  atomic energy  EATOM  =     58341.73154849
  Solvation  Ediel_sol  =         0.00000000
  ---------------------------------------------------
  free energy    TOTEN  =      -462.48823096 eV

  energy without entropy =     -462.50825850  energy(sigma->0) =     -462.49490681


--------------------------------------------------------------------------------------------------------




--------------------------------------- Iteration      1(  16)  ---------------------------------------


    POTLOK:  cpu time    0.4545: real time    0.4558
    SETDIJ:  cpu time    0.0391: real time    0.0392
    EDDIAG:  cpu time   15.0314: real time   15.0753
  RMM-DIIS:  cpu time   53.4416: real time   53.5985
    ORTHCH:  cpu time    1.4766: real time    1.4808
       DOS:  cpu time    0.0026: real time    0.0026
    CHARGE:  cpu time    6.1767: real time    6.1946
    MIXING:  cpu time    0.0147: real time    0.0151
    --------------------------------------------
      LOOP:  cpu time   76.6371: real time   76.8619

 eigenvalue-minimisations  : 10657
 total energy-change (2. order) :-0.2077289E+01  (-0.9165190E-01)
 number of electron     800.9999973 magnetization      39.3589955
 augmentation part      248.2042612 magnetization      23.6770123

 Broyden mixing:
  rms(total) = 0.46076E+00    rms(broyden)= 0.46076E+00
  rms(prec ) = 0.48252E+00
  weight for this iteration     100.00

 eigenvalues of (default mixing * dielectric matrix)
  average eigenvalue GAMMA=   0.8047
  2.2752  2.2752  0.9318  0.9318  0.6407  0.6407  0.0990  0.2951  0.2951  0.2575
  0.2098

 Free energy of the ion-electron system (eV)
  ---------------------------------------------------
  alpha Z        PSCENC =      2539.23836485
  Ewald energy   TEWEN  =    178066.26963929
  -Hartree energ DENC   =   -241441.96368475
  -exchange      EXHF   =         0.00000000
  -V(xc)+E(xc)   XCENC  =       261.18588820
  PAW double counting   =     72034.60943336   -69999.96504566
  entropy T*S    EENTRO =         0.02972764
  eigenvalues    EBANDS =      -265.70139099
  atomic energy  EATOM  =     58341.73154849
  Solvation  Ediel_sol  =         0.00000000
  ---------------------------------------------------
  free energy    TOTEN  =      -464.56551955 eV

  energy without entropy =     -464.59524719  energy(sigma->0) =     -464.57542876


--------------------------------------------------------------------------------------------------------




--------------------------------------- Iteration      1(  17)  ---------------------------------------


    POTLOK:  cpu time    0.4516: real time    0.4527
    SETDIJ:  cpu time    0.0392: real time    0.0392
    EDDIAG:  cpu time   15.0456: real time   15.0897
  RMM-DIIS:  cpu time   53.2060: real time   53.3620
    ORTHCH:  cpu time    1.4910: real time    1.4955
       DOS:  cpu time    0.0025: real time    0.0025
    CHARGE:  cpu time    6.1721: real time    6.1899
    MIXING:  cpu time    0.0153: real time    0.0153
    --------------------------------------------
      LOOP:  cpu time   76.4232: real time   76.6468

 eigenvalue-minimisations  : 10642
 total energy-change (2. order) :-0.2370067E+01  (-0.9411010E-01)
 number of electron     800.9999973 magnetization      35.9433695
 augmentation part      248.1148983 magnetization      21.0944363

 Broyden mixing:
  rms(total) = 0.53062E+00    rms(broyden)= 0.53062E+00
  rms(prec ) = 0.58489E+00
  weight for this iteration     100.00

 eigenvalues of (default mixing * dielectric matrix)
  average eigenvalue GAMMA=   0.8523
  2.9177  2.3862  1.0989  1.0989  0.6365  0.6365  0.0990  0.3070  0.3070  0.2820
  0.2523  0.2055

 Free energy of the ion-electron system (eV)
  ---------------------------------------------------
  alpha Z        PSCENC =      2539.23836485
  Ewald energy   TEWEN  =    178066.26963929
  -Hartree energ DENC   =   -241448.32573218
  -exchange      EXHF   =         0.00000000
  -V(xc)+E(xc)   XCENC  =       259.68505069
  PAW double counting   =     71982.21823945   -69946.52306532
  entropy T*S    EENTRO =         0.01241817
  eigenvalues    EBANDS =      -261.24205041
  atomic energy  EATOM  =     58341.73154849
  Solvation  Ediel_sol  =         0.00000000
  ---------------------------------------------------
  free energy    TOTEN  =      -466.93558695 eV

  energy without entropy =     -466.94800513  energy(sigma->0) =     -466.93972634


--------------------------------------------------------------------------------------------------------




--------------------------------------- Iteration      1(  18)  ---------------------------------------


    POTLOK:  cpu time    0.4481: real time    0.4550
    SETDIJ:  cpu time    0.0390: real time    0.0391
    EDDIAG:  cpu time   15.0342: real time   15.0782
  RMM-DIIS:  cpu time   53.4175: real time   53.5743
    ORTHCH:  cpu time    1.4869: real time    1.4913
       DOS:  cpu time    0.0025: real time    0.0025
    CHARGE:  cpu time    6.2318: real time    6.2498
    MIXING:  cpu time    0.0157: real time    0.0157
    --------------------------------------------
      LOOP:  cpu time   76.6757: real time   76.9059

 eigenvalue-minimisations  : 10636
 total energy-change (2. order) :-0.1630772E+01  (-0.6987220E-01)
 number of electron     800.9999973 magnetization      32.5227862
 augmentation part      248.0687734 magnetization      18.6656919

 Broyden mixing:
  rms(total) = 0.45399E+00    rms(broyden)= 0.45399E+00
  rms(prec ) = 0.48949E+00
  weight for this iteration     100.00

 eigenvalues of (default mixing * dielectric matrix)
  average eigenvalue GAMMA=   0.9201
  4.0951  2.2590  1.2342  1.2342  0.5929  0.5929  0.5517  0.0990  0.2938  0.2938
  0.2846  0.2097  0.2202

 Free energy of the ion-electron system (eV)
  ---------------------------------------------------
  alpha Z        PSCENC =      2539.23836485
  Ewald energy   TEWEN  =    178066.26963929
  -Hartree energ DENC   =   -241451.65807143
  -exchange      EXHF   =         0.00000000
  -V(xc)+E(xc)   XCENC  =       258.38364710
  PAW double counting   =     71966.97888282   -69930.89426004
  entropy T*S    EENTRO =        -0.02371115
  eigenvalues    EBANDS =      -258.59239902
  atomic energy  EATOM  =     58341.73154849
  Solvation  Ediel_sol  =         0.00000000
  ---------------------------------------------------
  free energy    TOTEN  =      -468.56635909 eV

  energy without entropy =     -468.54264794  energy(sigma->0) =     -468.55845537


--------------------------------------------------------------------------------------------------------




--------------------------------------- Iteration      1(  19)  ---------------------------------------


    POTLOK:  cpu time    0.4549: real time    0.4565
    SETDIJ:  cpu time    0.0385: real time    0.0386
    EDDIAG:  cpu time   15.1948: real time   15.2380
  RMM-DIIS:  cpu time   53.2363: real time   53.3625
    ORTHCH:  cpu time    1.4889: real time    1.4925
       DOS:  cpu time    0.0026: real time    0.0026
    CHARGE:  cpu time    6.2022: real time    6.2170
    MIXING:  cpu time    0.0166: real time    0.0166
    --------------------------------------------
      LOOP:  cpu time   76.6348: real time   76.8243

 eigenvalue-minimisations  : 10627
 total energy-change (2. order) :-0.1185951E+01  (-0.5391213E-01)
 number of electron     800.9999973 magnetization      29.3318640
 augmentation part      248.0547810 magnetization      16.7261786

 Broyden mixing:
  rms(total) = 0.49050E+00    rms(broyden)= 0.49050E+00
  rms(prec ) = 0.54882E+00
  weight for this iteration     100.00

 eigenvalues of (default mixing * dielectric matrix)
  average eigenvalue GAMMA=   0.9692
  5.0262  2.2188  1.3505  1.3505  0.6308  0.6308  0.6577  0.0990  0.3395  0.2969
  0.2969  0.2583  0.2061  0.2061

 Free energy of the ion-electron system (eV)
  ---------------------------------------------------
  alpha Z        PSCENC =      2539.23836485
  Ewald energy   TEWEN  =    178066.26963929
  -Hartree energ DENC   =   -241446.52652579
  -exchange      EXHF   =         0.00000000
  -V(xc)+E(xc)   XCENC  =       257.30389914
  PAW double counting   =     71948.79791478   -69912.53439566
  entropy T*S    EENTRO =        -0.06276048
  eigenvalues    EBANDS =      -263.96999449
  atomic energy  EATOM  =     58341.73154849
  Solvation  Ediel_sol  =         0.00000000
  ---------------------------------------------------
  free energy    TOTEN  =      -469.75230988 eV

  energy without entropy =     -469.68954940  energy(sigma->0) =     -469.73138972


--------------------------------------------------------------------------------------------------------




--------------------------------------- Iteration      1(  20)  ---------------------------------------


    POTLOK:  cpu time    0.4542: real time    0.4555
    SETDIJ:  cpu time    0.0386: real time    0.0387
    EDDIAG:  cpu time   15.0229: real time   15.0588
  RMM-DIIS:  cpu time   53.2955: real time   53.4217
    ORTHCH:  cpu time    1.4889: real time    1.4925
       DOS:  cpu time    0.0023: real time    0.0024
    CHARGE:  cpu time    6.1901: real time    6.2049
    MIXING:  cpu time    0.0197: real time    0.0198
    --------------------------------------------
      LOOP:  cpu time   76.5124: real time   76.6941

 eigenvalue-minimisations  : 10624
 total energy-change (2. order) :-0.4749691E+00  (-0.2724774E-01)
 number of electron     800.9999973 magnetization      26.3178413
 augmentation part      248.0940871 magnetization      14.9982989

 Broyden mixing:
  rms(total) = 0.42511E+00    rms(broyden)= 0.42511E+00
  rms(prec ) = 0.46116E+00
  weight for this iteration     100.00

[...]
   -.202E-01 0.600E-01 0.260E+04   0.242E-01 -.644E-01 -.260E+04   -.837E-02 0.602E-02 -.146E+01   0.179E-02 -.801E-03 -.646E-02
   0.600E+00 0.998E+00 0.260E+04   -.589E+00 -.998E+00 -.260E+04   -.164E-01 -.358E-02 -.142E+01   0.214E-02 0.224E-02 -.180E-02
   -.521E+00 -.100E+01 0.260E+04   0.525E+00 0.992E+00 -.260E+04   -.436E-02 0.205E-01 -.142E+01   -.706E-03 -.344E-02 -.216E-02
   -.956E-01 -.445E+00 0.133E+04   0.935E-01 0.443E+00 -.132E+04   -.144E-02 0.130E-02 -.769E+00   0.368E-02 0.272E-02 -.221E-03
   -.229E+00 -.172E-01 0.133E+04   0.226E+00 0.939E-02 -.133E+04   0.980E-02 0.477E-02 -.763E+00   -.305E-02 0.585E-02 -.352E-04
   0.147E+00 0.863E+00 -.131E+04   -.146E+00 -.868E+00 0.131E+04   0.340E-03 0.311E-02 0.805E+00   -.118E-02 -.828E-03 0.194E-02
   0.162E+00 0.338E+00 0.260E+04   -.152E+00 -.317E+00 -.260E+04   -.101E-01 -.177E-01 -.144E+01   -.849E-03 -.262E-02 0.232E-02
   0.359E+00 0.219E+00 0.133E+04   -.361E+00 -.211E+00 -.133E+04   -.610E-02 -.102E-01 -.762E+00   0.604E-02 -.184E-03 0.117E-02
   -.846E-01 0.426E+00 0.509E+01   0.837E-01 -.424E+00 -.507E+01   0.633E-03 0.214E-02 -.193E-01   0.359E-03 -.581E-02 0.286E-02
   0.766E+00 -.350E+00 -.131E+04   -.768E+00 0.352E+00 0.131E+04   0.620E-02 -.622E-02 0.800E+00   -.469E-02 0.352E-02 0.324E-02
   0.206E+01 0.110E+01 -.133E+04   -.211E+01 -.112E+01 0.133E+04   0.495E-01 0.230E-01 0.772E+00   0.207E-02 -.116E-02 0.449E-02
   0.863E+00 0.643E+00 -.132E+04   -.695E+00 -.549E+00 0.132E+04   -.168E+00 -.101E+00 0.643E+00   -.273E-02 0.332E-02 0.500E-02
   0.355E+00 -.267E+00 0.260E+04   -.321E+00 0.243E+00 -.260E+04   -.320E-01 0.208E-01 -.144E+01   -.347E-02 0.339E-02 0.749E-03
   -.199E-01 -.173E+00 0.260E+04   0.253E-01 0.168E+00 -.260E+04   -.685E-02 0.790E-02 -.144E+01   0.932E-03 -.225E-02 -.313E-02
   -.117E+01 -.569E+00 0.260E+04   0.116E+01 0.549E+00 -.260E+04   0.222E-01 0.248E-01 -.141E+01   -.374E-02 -.138E-02 -.223E-02
   0.153E+00 -.351E-01 0.133E+04   -.156E+00 0.366E-01 -.133E+04   0.118E-03 -.300E-02 -.771E+00   -.186E-02 0.171E-02 -.125E-02
   0.190E+00 -.644E-01 0.380E+01   -.202E+00 0.634E-01 -.381E+01   0.139E-01 0.721E-02 0.288E-02   0.118E-02 -.360E-02 0.580E-02
   0.101E+00 0.240E+00 0.133E+04   -.102E+00 -.242E+00 -.133E+04   -.188E-02 0.329E-02 -.768E+00   0.127E-02 -.685E-02 -.504E-03
   0.405E+00 -.244E+00 0.132E+04   -.423E+00 0.256E+00 -.132E+04   0.131E-01 -.801E-02 -.777E+00   0.149E-02 -.258E-02 0.147E-02
   -.165E+00 -.105E+01 -.132E+04   0.167E+00 0.856E+00 0.132E+04   0.263E-02 0.195E+00 0.647E+00   -.386E-02 0.159E-02 0.541E-02
   -.806E-01 0.129E+01 0.260E+04   0.880E-01 -.127E+01 -.260E+04   -.796E-02 -.271E-01 -.141E+01   -.145E-02 0.353E-02 -.296E-02
   0.284E+00 0.302E+00 0.133E+04   -.285E+00 -.300E+00 -.132E+04   0.353E-03 0.194E-02 -.768E+00   0.418E-03 -.359E-02 -.338E-03
   0.246E-01 0.125E+01 0.631E+01   -.228E-01 -.122E+01 -.635E+01   0.215E-02 -.366E-01 0.427E-01   -.329E-02 0.462E-02 0.245E-02
   -.466E+00 -.298E+00 -.259E+04   0.452E+00 0.297E+00 0.259E+04   0.143E-01 0.153E-02 0.136E+01   0.224E-02 0.154E-03 0.429E-02
   0.449E+01 0.706E+00 -.259E+04   -.446E+01 -.705E+00 0.259E+04   -.332E-01 -.308E-02 0.137E+01   0.985E-03 0.148E-03 0.254E-02
   0.164E+01 -.423E+01 -.259E+04   -.162E+01 0.421E+01 0.259E+04   -.143E-01 0.280E-01 0.137E+01   -.815E-03 -.179E-03 0.256E-02
   -.463E+01 0.477E+00 -.259E+04   0.459E+01 -.478E+00 0.259E+04   0.506E-01 0.556E-03 0.137E+01   -.134E-02 -.148E-02 0.264E-02
   -.167E+01 -.442E+01 -.259E+04   0.164E+01 0.439E+01 0.259E+04   0.323E-01 0.326E-01 0.137E+01   -.311E-02 -.393E-03 0.515E-02
   -.269E+01 0.378E+01 -.259E+04   0.267E+01 -.374E+01 0.259E+04   0.208E-01 -.453E-01 0.137E+01   0.125E-03 0.133E-02 0.180E-02
   -.188E+00 0.146E+00 -.259E+04   0.185E+00 -.141E+00 0.259E+04   0.800E-02 -.796E-02 0.140E+01   -.225E-02 0.139E-02 0.248E-02
   0.293E+00 -.101E+00 -.259E+04   -.292E+00 0.101E+00 0.259E+04   -.658E-03 -.468E-03 0.136E+01   0.670E-03 0.212E-03 0.626E-02
   0.645E-01 0.571E+00 -.259E+04   -.696E-01 -.555E+00 0.259E+04   0.452E-02 -.156E-01 0.136E+01   0.135E-02 -.188E-02 0.517E-02
   0.303E+01 0.363E+01 -.259E+04   -.302E+01 -.359E+01 0.259E+04   -.114E-01 -.415E-01 0.137E+01   -.819E-03 0.359E-02 0.460E-02
   0.320E-01 -.960E+01 -.258E+04   -.352E-01 0.104E+02 0.258E+04   0.564E-02 -.807E+00 0.826E+00   -.176E-02 0.213E-02 0.328E-02
   -.848E+01 0.488E+01 -.258E+04   0.915E+01 -.526E+01 0.258E+04   -.684E+00 0.392E+00 0.827E+00   0.248E-02 -.206E-02 0.245E-02
   -.265E+01 0.153E+01 -.259E+04   0.233E+01 -.134E+01 0.259E+04   0.325E+00 -.188E+00 0.150E+01   0.426E-03 -.410E-03 0.231E-02
   -.383E+00 -.291E+01 -.259E+04   0.369E+00 0.255E+01 0.259E+04   0.152E-01 0.363E+00 0.150E+01   0.170E-02 0.155E-02 0.352E-02
   0.243E-01 -.243E+01 -.133E+04   -.280E-01 0.248E+01 0.133E+04   0.270E-02 -.543E-01 0.768E+00   0.119E-02 -.236E-02 0.393E-02
   0.146E+00 0.113E+00 0.260E+04   -.141E+00 -.117E+00 -.260E+04   -.768E-02 0.390E-02 -.144E+01   0.184E-02 -.226E-03 -.244E-02
   0.180E+00 -.831E+00 -.131E+04   -.186E+00 0.859E+00 0.131E+04   0.981E-02 -.324E-01 0.803E+00   0.178E-02 0.317E-02 0.549E-02
   -.951E+00 -.411E+00 0.260E+04   0.951E+00 0.400E+00 -.260E+04   0.231E-02 0.119E-01 -.142E+01   -.155E-02 0.143E-02 -.369E-02
   -.645E-01 -.409E+00 0.133E+04   0.557E-01 0.408E+00 -.133E+04   0.836E-02 0.103E-01 -.763E+00   0.423E-02 -.637E-02 0.133E-02
   0.794E-01 -.216E+00 0.133E+04   -.671E-01 0.214E+00 -.133E+04   -.120E-01 0.702E-02 -.766E+00   -.545E-02 -.416E-02 0.179E-02
   -.734E+00 -.459E+00 -.131E+04   0.739E+00 0.462E+00 0.131E+04   -.262E-02 -.548E-02 0.806E+00   -.569E-03 0.229E-02 0.316E-02
   -.277E+00 -.442E+00 0.260E+04   0.260E+00 0.416E+00 -.260E+04   0.149E-01 0.253E-01 -.144E+01   0.118E-02 0.275E-02 0.188E-02
   0.201E+00 0.125E+00 0.133E+04   -.193E+00 -.134E+00 -.133E+04   -.106E-01 0.449E-02 -.764E+00   -.105E-02 0.633E-02 0.797E-03
   0.847E+01 0.475E+01 -.258E+04   -.914E+01 -.513E+01 0.258E+04   0.693E+00 0.395E+00 0.827E+00   -.304E-02 -.473E-04 0.221E-02
   -.974E-01 0.446E-01 -.678E+01   0.993E-01 -.436E-01 0.689E+01   -.902E-03 0.462E-03 -.120E+00   -.129E-02 -.820E-03 0.353E-02
   0.238E+01 0.170E+01 -.259E+04   -.207E+01 -.151E+01 0.259E+04   -.307E+00 -.192E+00 0.150E+01   -.605E-03 -.238E-02 0.382E-02
   -.129E+00 0.176E+00 0.133E+04   0.133E+00 -.170E+00 -.133E+04   0.120E-02 -.987E-02 -.763E+00   -.685E-02 0.127E-02 -.302E-03
   -.160E+00 0.217E-01 0.133E+04   0.162E+00 -.249E-01 -.133E+04   0.113E-02 0.219E-02 -.609E+00   -.220E-02 0.290E-02 0.437E-03
   -.196E+00 0.886E-01 0.396E+01   0.202E+00 -.912E-01 -.397E+01   -.131E-01 0.665E-02 0.557E-02   0.301E-02 -.163E-02 0.653E-02
   0.598E+00 0.538E+00 -.132E+04   -.624E+00 -.551E+00 0.131E+04   0.229E-01 0.176E-01 0.798E+00   -.695E-03 -.379E-02 0.490E-02
   -.215E+01 0.118E+01 -.133E+04   0.219E+01 -.120E+01 0.133E+04   -.451E-01 0.251E-01 0.767E+00   -.512E-02 0.149E-02 0.393E-02
   0.759E+00 -.887E+00 0.260E+04   -.747E+00 0.877E+00 -.260E+04   -.162E-01 0.173E-01 -.142E+01   0.163E-02 -.498E-02 -.221E-02
   0.767E-01 -.701E-01 0.260E+04   -.691E-01 0.627E-01 -.260E+04   -.887E-02 0.923E-02 -.144E+01   -.671E-03 -.201E-03 -.252E-02
   0.126E+00 0.579E+00 0.132E+04   -.122E+00 -.597E+00 -.132E+04   -.346E-02 0.160E-01 -.776E+00   -.201E-02 -.153E-02 0.233E-02
   -.434E+00 -.366E+00 0.132E+04   0.452E+00 0.373E+00 -.132E+04   -.150E-01 -.648E-02 -.777E+00   0.113E-03 0.815E-03 0.250E-02
   -.921E+00 -.717E+00 0.616E+01   0.895E+00 0.699E+00 -.620E+01   0.282E-01 0.156E-01 0.404E-01   -.509E-02 0.216E-02 0.166E-02
   -.105E+01 0.511E+00 -.132E+04   0.875E+00 -.410E+00 0.132E+04   0.174E+00 -.100E+00 0.644E+00   0.192E-02 -.207E-02 0.410E-02
   0.106E+01 -.644E+00 0.260E+04   -.104E+01 0.625E+00 -.260E+04   -.372E-01 0.249E-01 -.141E+01   0.401E-02 -.289E-02 -.633E-03
   -.298E+00 -.138E-01 0.496E+01   0.298E+00 0.144E-01 -.494E+01   -.453E-02 -.368E-02 -.209E-01   0.341E-02 0.287E-02 0.245E-02
   0.222E-01 0.140E+01 0.962E+00   -.559E-01 -.136E+01 -.998E+00   0.392E-01 -.337E-01 0.391E-01   -.370E-02 -.774E-03 0.481E-02
   0.130E+01 -.622E+00 0.951E+00   -.129E+01 0.580E+00 -.986E+00   -.515E-02 0.500E-01 0.389E-01   0.203E-02 -.585E-02 0.498E-02
   0.356E-02 0.131E+01 0.117E+01   0.348E-01 -.128E+01 -.121E+01   -.396E-01 -.373E-01 0.391E-01   -.405E-03 0.581E-03 0.582E-02
   0.182E+00 0.880E-02 0.493E+01   -.183E+00 -.903E-02 -.491E+01   0.363E-02 -.431E-02 -.211E-01   -.327E-02 0.325E-02 0.311E-02
   -.502E+00 0.297E+00 0.133E+04   0.505E+00 -.298E+00 -.132E+04   -.254E-02 0.158E-02 -.770E+00   0.111E-02 -.614E-03 0.686E-03
   0.663E-01 -.979E-01 0.375E+01   -.706E-01 0.108E+00 -.376E+01   0.942E-05 -.167E-01 0.298E-02   0.368E-02 0.180E-02 0.631E-02
   -.213E+00 -.676E+00 -.132E+04   0.211E+00 0.705E+00 0.131E+04   -.424E-02 -.318E-01 0.796E+00   0.261E-02 0.284E-02 0.544E-02
   0.881E+00 0.349E+00 -.131E+04   -.907E+00 -.358E+00 0.131E+04   0.303E-01 0.560E-02 0.802E+00   -.136E-02 -.185E-02 0.607E-02
   0.113E+01 -.274E+00 0.260E+04   -.112E+01 0.264E+00 -.260E+04   -.195E-01 0.816E-02 -.142E+01   0.456E-02 0.171E-02 -.170E-02
   -.265E+00 0.104E+01 0.260E+04   0.270E+00 -.104E+01 -.260E+04   -.290E-02 -.657E-02 -.142E+01   -.127E-02 0.109E-02 -.390E-02
   -.112E+01 -.640E+00 0.114E+01   0.112E+01 0.592E+00 -.118E+01   0.800E-02 0.507E-01 0.428E-01   -.105E-02 -.133E-02 0.630E-02
   0.878E+00 -.637E+00 0.584E+01   -.852E+00 0.621E+00 -.587E+01   -.247E-01 0.160E-01 0.363E-01   0.126E-02 -.105E-03 0.159E-02
   -.198E+00 -.215E+00 0.133E+04   0.197E+00 0.215E+00 -.133E+04   0.287E-03 0.469E-03 -.769E+00   0.661E-02 0.279E-02 -.164E-03
   0.123E+01 -.827E+00 0.930E+00   -.119E+01 0.845E+00 -.965E+00   -.471E-01 -.206E-01 0.377E-01   0.456E-02 0.737E-03 0.490E-02
   -.121E+01 -.757E+00 0.898E+00   0.116E+01 0.771E+00 -.935E+00   0.496E-01 -.170E-01 0.400E-01   -.835E-03 0.371E-02 0.518E-02
   0.275E-03 -.215E-01 -.303E+03   0.240E-02 0.208E-01 0.305E+03   -.567E-03 -.935E-03 -.134E+01   -.367E-04 -.187E-04 0.820E-04
 -----------------------------------------------------------------------------------------------
   0.616E-02 -.194E-02 0.299E+01   0.211E-12 0.494E-12 0.000E+00   0.692E-02 -.838E-02 -.321E+01   0.419E-03 -.144E-03 0.174E+00
 
 
 POSITION                                       TOTAL-FORCE (eV/Angst)
 -----------------------------------------------------------------------------------
     13.68636      8.44754      7.18180         0.000132     -0.000082     -0.002571
      5.27087      8.44804      7.18024         0.001196     -0.005274     -0.000595
      3.86661      6.01562      7.18023         0.005084      0.001080      0.000061
     13.69569      8.43877      0.50446        -0.002889      0.001212      0.001091
      5.27942      8.43892      0.50508        -0.002756     -0.000718     -0.000324
      3.87613      6.00789      0.50528        -0.001337      0.003963     -0.002080
      8.08052      1.96295      2.78186        -0.000265      0.003503      0.001616
      9.48311      9.24953      2.77932         0.002552      0.002468      0.001536
      2.46408      3.58644      7.17703         0.000670     -0.002295      0.000226
      2.47326      3.58165      0.50362        -0.001144      0.001443     -0.001932
     10.88474      1.96430      2.77943        -0.001967     -0.002098      0.001771
     13.68878      5.20543      4.97973        -0.000139     -0.003751      0.002160
      3.86532      1.15872      7.17751        -0.000636     -0.000806      0.000695
      9.47506      6.01593      7.20430         0.001214     -0.001391      0.002372
      5.27647      3.59217      7.18909         0.000297     -0.000668     -0.003137
      3.87830      1.14787      0.50418        -0.000592     -0.000089     -0.002000
      9.48686      6.00830      0.50733        -0.001090      0.000713     -0.002199
      5.27773      3.57857      0.50307         0.000026      0.003388     -0.001352
     12.28958      9.25184      2.78129        -0.005390      0.000431      0.001122
     12.28482      7.63364      4.98128         0.000948      0.001549      0.004827
     13.69220      6.82303      2.78084        -0.001668     -0.004590      0.002161
      9.48141      4.39363      2.78434        -0.003409      0.001069      0.002163
      8.07464      8.43908      7.18848         0.000535      0.001292     -0.001740
      8.08428      8.43964      0.50302        -0.002347     -0.001133     -0.002143
     10.88602      6.82231      2.78168        -0.001526     -0.000020      0.002089
      2.46639      0.34754      4.97443         0.000646      0.001336      0.004601
     15.08573      9.25900      9.46252         0.002169      0.000879     -0.002855
      3.85668      4.39962      9.45946         0.001214     -0.001758     -0.003577
      6.66603      9.26589      9.45906         0.002793     -0.000144     -0.003583
     12.28713      4.39920      9.45972         0.002393     -0.001238     -0.002235
      9.47735      9.26537      9.45950         0.001226      0.000299     -0.004048
     10.88193      1.96513      9.45974         0.001562     -0.001188     -0.003067
      2.46036      1.97052      9.45962         0.002154     -0.001705     -0.006974
     12.28078      9.25920      9.46229         0.000376     -0.000002     -0.002878
     13.68362      6.83061      9.46218         0.000763     -0.001869     -0.002023
      5.26243      1.96465      9.45974         0.000958      0.000407     -0.003050
      8.07180      6.87722      9.50345         0.000640     -0.002193     -0.002957
      9.51531      4.37673      9.50403         0.002008     -0.001389     -0.003753
      5.24235      6.84359      9.45894        -0.002476      0.001651     -0.003807
      8.07105      1.94238      9.46030         0.002194     -0.004343     -0.004525
      8.07503      3.59062      7.20479         0.000109     -0.000116      0.000788
      8.08465      3.57998      0.50730        -0.000705      0.000203     -0.001263
      6.67087      1.15882      7.18077         0.006318      0.000276     -0.001475
      6.68128      1.14902      0.50546        -0.000209      0.002210     -0.001995
     12.28687      4.39298      2.77950         0.002956      0.002529      0.002076
      3.87431      4.39347      2.77952        -0.004791      0.000704      0.000569
      1.06208      1.15861      7.17696         0.002726     -0.000604      0.001856
      1.06787      1.14737      0.50357        -0.001843      0.000983     -0.000819
      6.67768      9.24975      2.77933        -0.003100      0.001565      0.001504
      6.62868      4.37642      9.50363        -0.000047     -0.000219     -0.001260
      8.07766      5.20524      4.99805        -0.000589      0.000827     -0.007414
     10.90116      6.84406      9.45976         0.005700      0.002036     -0.003579
      5.27685      1.96412      2.77938        -0.001489     -0.002560      0.001303
      2.46878      1.96290      2.76811         0.000220      0.002156     -0.001892
     15.09356      7.63404      4.98076        -0.002465      0.001650      0.006006
     12.28326      6.01585      7.18125        -0.004364      0.000773     -0.002401
      6.67465      6.01593      7.20429        -0.000183     -0.000694     -0.001085
     12.29353      6.00820      0.50599        -0.002082      0.002156     -0.002271
      6.68257      6.00821      0.50763        -0.001876      0.001671     -0.002382
      8.08107      6.82011      2.78431        -0.001846     -0.003404      0.002011
      6.67990      4.39322      2.78447         0.003271      0.002025      0.002114
      3.86807      2.77437      4.97480        -0.003592     -0.000870      0.004046
     10.87312      3.59205      7.18921         0.001034     -0.000107     -0.001769
     10.89090      3.57861      0.50296        -0.004374      0.003499     -0.001023
     10.88310      0.34602      4.97995         0.000153      0.000836      0.001391
      9.47847      7.63394      4.98340         0.000625      0.000688      0.006896
     10.88126      5.20407      4.98372         0.001630      0.000569      0.008060
      6.67747      7.63359      4.98333        -0.000742     -0.002420      0.005862
      5.27186      0.34596      4.98003        -0.001982     -0.000160      0.001807
      5.27520      6.82219      2.78161         0.001552      0.000063      0.000674
      8.07799      0.34761      4.98136        -0.000693     -0.002254      0.005185
      9.47905      1.15927      7.18165        -0.003647      0.001962     -0.003854
     10.87941      8.44812      7.18073         0.001621     -0.005663     -0.002095
      9.48803      1.14926      0.50595        -0.002277      0.000113     -0.001598
     10.88990      8.43928      0.50530        -0.000211     -0.001634     -0.001495
      5.27462      5.20381      4.98338        -0.001604      0.000677      0.009590
     12.28720      2.77479      4.97526         0.003414      0.000061      0.003655
     15.09398      9.25136      2.78102         0.006166      0.003537      0.001822
      9.48068      2.77790      4.98377        -0.000713     -0.000746      0.006445
      6.67492      2.77794      4.98360         0.001912      0.001216      0.007710
      8.07150      5.21045     10.33694         0.001900     -0.001473     -0.000784
 -----------------------------------------------------------------------------------
    total drift:                                0.013493     -0.010463     -0.040362


--------------------------------------------------------------------------------------------------------



  FREE ENERGIE OF THE ION-ELECTRON SYSTEM (eV)
  ---------------------------------------------------
  free  energy   TOTEN  =      -518.48902587 eV

  energy  without entropy=     -518.53814596  energy(sigma->0) =     -518.50539923
 
 d Force = 0.2878160E-03[ 0.265E-04, 0.549E-03]  d Energy = 0.3141227E-03-0.263E-04
 d Force =-0.8444011E+02[-0.845E+02,-0.844E+02]  d Ewald  =-0.8444011E+02-0.645E-06


--------------------------------------------------------------------------------------------------------


    POTLOK:  cpu time    0.4935: real time    0.5017


--------------------------------------------------------------------------------------------------------


 Conjugate gradient step on ions:
 trial-energy change:   -0.000314  1 .order   -0.000288   -0.000549   -0.000026
  (g-gl).g = 0.799E-05      g.g   = 0.841E-05  gl.gl    = 0.158E-04
 g(Force)  = 0.841E-05   g(Stress)= 0.000E+00 ortho     = 0.432E-06
 gamma     =   0.50501
 trial     =  63.64745
 opt step  =  66.10078  (harmonic =  66.87017) maximal distance =0.00145999
 next E    =  -518.489026   (d E  =  -0.00031)


--------------------------------------------------------------------------------------------------------


  
 reached required accuracy - stopping structural energy minimisation
     LOOP+:  cpu time  886.4766: real time  888.9333
    4ORBIT:  cpu time    0.0000: real time    0.0000

 total amount of memory used by VASP MPI-rank0   293552. kBytes
=======================================================================

   base      :      30000. kBytes
   nonlr-proj:      37951. kBytes
   fftplans  :      20284. kBytes
   grid      :      52194. kBytes
   one-center:        653. kBytes
   wavefun   :     152470. kBytes
 
  
  
 General timing and accounting informations for this job:
 ========================================================
  
                  Total CPU time used (sec):    14704.271
                            User time (sec):    14681.324
                          System time (sec):       22.947
                         Elapsed time (sec):    14747.955
  
                   Maximum memory used (kb):      958556.
                   Average memory used (kb):           0.
  
                          Minor page faults:      3557540
                          Major page faults:            0
                 Voluntary context switches:         6321
