 vasp.5.4.4.18Apr17-6-g9f103f2a35 (build Nov 06 2019 15:09:28) complex          
  
 executed on             LinuxIFC date 2023.08.07  10:54:27
 running on  120 total cores
 each image running on   40 cores
 distrk:  each k-point on   40 cores,    1 groups
 distr:  one band on NCORES_PER_BAND=   4 cores,   10 groups


--------------------------------------------------------------------------------------------------------


 INCAR:
 POTCAR:    PAW_PBE Pt 04Feb2005                  
 POTCAR:    PAW_PBE H 15Jun2001                   
 POTCAR:    PAW_PBE Pt 04Feb2005                  
   VRHFIN =Pt: s1d9                                                             
   LEXCH  = PE                                                                  
   EATOM  =   729.1176 eV,   53.5886 Ry                                         
                                                                                
   TITEL  = PAW_PBE Pt 04Feb2005                                                
   LULTRA =        F    use ultrasoft PP ?                                      
   IUNSCR =        1    unscreen: 0-lin 1-nonlin 2-no                           
   RPACOR =    2.330    partial core radius                                     
   POMASS =  195.080; ZVAL   =   10.000    mass and valenz                      
   RCORE  =    2.600    outmost cutoff radius                                   
   RWIGS  =    2.750; RWIGS  =    1.455    wigner-seitz radius (au A)           
   ENMAX  =  230.283; ENMIN  =  172.712 eV                                      
   ICORE  =        3    local potential                                         
   LCOR   =        T    correct aug charges                                     
   LPAW   =        T    paw PP                                                  
   EAUG   =  358.966                                                            
   DEXC   =    0.000                                                            
   RMAX   =    2.658    core radius for proj-oper                               
   RAUG   =    1.300    factor for augmentation sphere                          
   RDEP   =    2.761    radius for radial grids                                 
   RDEPT  =    2.203    core radius for aug-charge                              
                                                                                
   Atomic configuration                                                         
   16 entries                                                                   
     n  l   j            E        occ.                                          
     1  0  0.50    -78401.1885   2.0000                                         
     2  0  0.50    -13770.7750   2.0000                                         
     2  1  1.50    -11931.0468   6.0000                                         
     3  0  0.50     -3234.7234   2.0000                                         
     3  1  1.50     -2699.2216   6.0000                                         
     3  2  2.50     -2119.5714  10.0000                                         
     4  0  0.50      -695.1528   2.0000                                         
     4  1  1.50      -519.6034   6.0000                                         
     4  2  2.50      -306.6786  10.0000                                         
     4  3  3.50       -70.1041  14.0000                                         
     5  0  0.50      -101.7747   2.0000                                         
     5  1  1.50       -55.9873   6.0000                                         
     5  2  2.50        -6.1423   9.0000                                         
     6  0  0.50        -5.6573   1.0000                                         
     6  1  1.50        -6.8029   0.0000                                         
     5  3  2.50        -1.3606   0.0000                                         
   Description                                                                  
     l       E           TYP  RCUT    TYP  RCUT                                 
     2     -6.1423404     23  2.500                                             
     2     -7.5029230     23  2.500                                             
     0     -5.6573207     23  2.500                                             
     0      0.7416693     23  2.500                                             
     1     -2.7211652     23  2.600                                             
     1     20.4087390     23  2.600                                             
     3     -1.3605826     23  2.500                                             
  local pseudopotential read in
  partial core-charges read in
  partial kinetic energy density read in
  atomic valenz-charges read in
  non local Contribution for L=           2  read in
    real space projection operators read in
  non local Contribution for L=           2  read in
    real space projection operators read in
  non local Contribution for L=           0  read in
    real space projection operators read in
  non local Contribution for L=           0  read in
    real space projection operators read in
  non local Contribution for L=           1  read in
    real space projection operators read in
  non local Contribution for L=           1  read in
    real space projection operators read in
    PAW grid and wavefunctions read in
 
   number of l-projection  operators is LMAX  =           6
   number of lm-projection operators is LMMAX =          18
 
 POTCAR:    PAW_PBE H 15Jun2001                   
   VRHFIN =H: ultrasoft test                                                    
   LEXCH  = PE                                                                  
   EATOM  =    12.4884 eV,    0.9179 Ry                                         
                                                                                
   TITEL  = PAW_PBE H 15Jun2001                                                 
   LULTRA =        F    use ultrasoft PP ?                                      
   IUNSCR =        0    unscreen: 0-lin 1-nonlin 2-no                           
   RPACOR =    0.000    partial core radius                                     
   POMASS =    1.000; ZVAL   =    1.000    mass and valenz                      
   RCORE  =    1.100    outmost cutoff radius                                   
   RWIGS  =    0.700; RWIGS  =    0.370    wigner-seitz radius (au A)           
   ENMAX  =  250.000; ENMIN  =  200.000 eV                                      
   RCLOC  =    0.701    cutoff for local pot                                    
   LCOR   =        T    correct aug charges                                     
   LPAW   =        T    paw PP                                                  
   EAUG   =  400.000                                                            
   RMAX   =    1.123    core radius for proj-oper                               
   RAUG   =    1.200    factor for augmentation sphere                          
   RDEP   =    1.112    radius for radial grids                                 
   RDEPT  =    0.926    core radius for aug-charge                              
                                                                                
   Atomic configuration                                                         
    2 entries                                                                   
     n  l   j            E        occ.                                          
     1  0  0.50        -6.4927   1.0000                                         
     2  1  0.50        -3.4015   0.0000                                         
   Description                                                                  
     l       E           TYP  RCUT    TYP  RCUT                                 
     0     -6.4927494     23  1.100                                             
     0      6.8029130     23  1.100                                             
     1     -4.0817478     23  1.100                                             
  local pseudopotential read in
  atomic valenz-charges read in
  non local Contribution for L=           0  read in
    real space projection operators read in
  non local Contribution for L=           0  read in
    real space projection operators read in
  non local Contribution for L=           1  read in
    real space projection operators read in
    PAW grid and wavefunctions read in
 
   number of l-projection  operators is LMAX  =           3
   number of lm-projection operators is LMMAX =           5
 
 Optimization of the real space projectors (new method)

 maximal supplied QI-value         = 14.36
 optimisation between [QCUT,QGAM] = [ 11.92, 23.98] = [ 39.79,161.09] Ry 
 Optimized for a Real-space Cutoff    1.49 Angstroem

   l    n(q)    QCUT    max X(q) W(low)/X(q) W(high)/X(q)  e(spline) 
   2     10    11.920    66.195    0.79E-04    0.18E-03    0.24E-06
   2     10    11.920    64.643    0.81E-04    0.19E-03    0.24E-06
   0     11    11.920    95.520    0.28E-04    0.54E-04    0.18E-06
   0     11    11.920    63.403    0.27E-04    0.52E-04    0.17E-06
   1     10    11.920    19.961    0.18E-04    0.11E-03    0.23E-06
   1     10    11.920    13.289    0.25E-04    0.87E-04    0.19E-06
 Optimization of the real space projectors (new method)

 maximal supplied QI-value         = 34.20
 optimisation between [QCUT,QGAM] = [ 11.97, 23.94] = [ 40.13,160.53] Ry 
 Optimized for a Real-space Cutoff    1.18 Angstroem

   l    n(q)    QCUT    max X(q) W(low)/X(q) W(high)/X(q)  e(spline) 
   0      8    11.971    19.460    0.15E-03    0.31E-03    0.25E-06
   0      8    11.971    12.209    0.13E-03    0.29E-03    0.25E-06
   1      8    11.971     4.655    0.22E-03    0.24E-03    0.21E-06
  PAW_PBE Pt 04Feb2005                  :
 energy of atom  1       EATOM= -729.1176
 kinetic energy error for atom=    0.0021 (will be added to EATOM!!)
  PAW_PBE H 15Jun2001                   :
 energy of atom  2       EATOM=  -12.4884
 kinetic energy error for atom=    0.0008 (will be added to EATOM!!)
 
 
 POSCAR: Pt   H                                  
  positions in cartesian coordinates
  No initial velocities read in
 exchange correlation table for  LEXCH =        8
   RHO(1)=    0.500       N(1)  =     2000
   RHO(2)=  100.500       N(2)  =     4000

 VTST: version 3.2, (02/03/18)

 CHAIN: initializing optimizer
 
 OPT: Using VASP QUASI-newton optimizer
 CHAIN: Read ICHAIN            0
 CHAIN: Running the NEB
 NEB:          SPRING     -5.000000
 NEB:          LCLIMB      T
 NEB:     LTANGENTOLD      F
 NEB:           LDNEB      F
 NEB:        LDNEBORG      F
 NEB:        LNEBCELL      F
 NEB:          EFIRST      0.000000
 NEB:           ELAST      0.000000
 
 POSCAR: Pt   H                                  
  positions in cartesian coordinates
  No initial velocities read in
 
 POSCAR: Pt111\(1\1\1)\(2)                       
  positions in cartesian coordinates
  No initial velocities read in
 


--------------------------------------------------------------------------------------------------------


 ion  position               nearest neighbor table
   1  1.000  0.000  0.056-   5 2.64   9 2.64  13 2.64  29 2.64  57 2.64  37 2.64  42 2.87  14 2.87
                            54 2.87
   2  0.333  0.167  0.178-  30 2.64  26 2.64  38 2.64  42 2.64  14 2.64   6 2.64  11 2.82   9 2.87
                            21 2.87  13 2.87   7 2.88  15 2.89
   3  0.168  0.333  0.299-   7 2.61  15 2.61  43 2.63  27 2.64  39 2.64  31 2.65   8 2.82  48 2.83
                             6 2.87  14 2.87  10 2.88  12 3.10
   4  0.000  0.001  0.418-   8 2.63  16 2.64  32 2.64  40 2.64  12 2.64  60 2.65   7 2.82  27 2.86
                            63 2.89
   5  1.000  0.250  0.056-   1 2.64  45 2.64  33 2.64   9 2.64  29 2.64  25 2.64  14 2.87  10 2.87
                            18 2.87
   6  0.333  0.417  0.178-  26 2.64  62 2.64  10 2.64  34 2.64  14 2.64   2 2.64  43 2.87   3 2.87
                            45 2.87  49 2.87   9 2.87  15 2.88
   7  0.168  0.086  0.300-   3 2.61  15 2.62  11 2.63  27 2.64  35 2.65  63 2.66   4 2.82  16 2.83
                             2 2.88  14 2.88  42 2.90  12 3.08
   8  1.000  0.250  0.418-   4 2.63  32 2.64  28 2.64  48 2.64  36 2.64  12 2.66   3 2.82  27 2.85
                            31 2.86
   9  0.250  0.250  0.056-  21 2.64  13 2.64   1 2.64  49 2.64  45 2.64   5 2.64   2 2.87  14 2.87
                             6 2.87
  10  0.083  0.417  0.178-  34 2.64   6 2.64  46 2.64  14 2.64  18 2.64  22 2.64  39 2.83  31 2.83
                            33 2.87  45 2.87   5 2.87   3 2.88
  11  0.416  0.084  0.297-   7 2.63  35 2.63  19 2.64  23 2.64  47 2.65  15 2.65   2 2.82  24 2.83
                            30 2.83  38 2.83  16 2.88  20 2.89
  12  0.249  0.249  0.435-  66 2.12  65 2.14   4 2.64  16 2.65   8 2.66  52 2.67  48 2.67  24 2.68
                             7 3.08  15 3.09   3 3.10
  13  0.250  0.000  0.056-  21 2.64   9 2.64  17 2.64   1 2.64  37 2.64  41 2.64  38 2.87   2 2.87
                            42 2.87
  14  0.083  0.167  0.178-  42 2.64  54 2.64   6 2.64   2 2.64  10 2.64  18 2.64  27 2.83   5 2.87
                             1 2.87   9 2.87   3 2.87   7 2.88
  15  0.416  0.334  0.300-   3 2.61  43 2.61   7 2.62  55 2.62  11 2.65  19 2.65  24 2.78   6 2.88
                            26 2.89   2 2.89  52 3.07  12 3.09
  16  0.250  1.000  0.419-  44 2.64  40 2.64   4 2.64  20 2.64  24 2.64  12 2.65   7 2.83  35 2.88
                            11 2.88
  17  0.500  0.000  0.056-  29 2.64  25 2.64  13 2.64  21 2.64  41 2.64  53 2.64  58 2.87  30 2.87
                            38 2.87
  18  0.833  0.167  0.178-  54 2.64  58 2.64  22 2.64  10 2.64  30 2.64  14 2.64  31 2.84  27 2.84
                            23 2.85  25 2.87  29 2.87   5 2.87
  19  0.666  0.334  0.297-  55 2.63  59 2.63  11 2.64  23 2.64  31 2.65  15 2.65  26 2.82  24 2.83
                            22 2.83  30 2.83  64 2.88  28 2.90
  20  0.500  1.000  0.419-  56 2.64  32 2.64  24 2.64  44 2.64  16 2.64  28 2.64  23 2.87  47 2.88
                            11 2.89
  21  0.500  0.250  0.056-  25 2.64  61 2.64   9 2.64  13 2.64  49 2.64  17 2.64  30 2.87   2 2.87
                            26 2.87
  22  0.833  0.417  0.178-  50 2.64  26 2.64  30 2.64  18 2.64  46 2.64  10 2.64  59 2.83  19 2.83
                            31 2.84  61 2.87  25 2.87  33 2.87
  23  0.667  0.084  0.298-  19 2.64  31 2.64  11 2.64  47 2.64  27 2.64  51 2.64  30 2.85  18 2.85
                            58 2.85  32 2.87  20 2.87  28 2.87
  24  0.500  0.250  0.416-  28 2.64  20 2.64  16 2.64  64 2.64  52 2.68  12 2.68  15 2.78  19 2.83
                            11 2.83
  25  0.750  0.250  0.056-  17 2.64  21 2.64  29 2.64  61 2.64  33 2.64   5 2.64  18 2.87  22 2.87
                            30 2.87
  26  0.583  0.417  0.178-   6 2.64   2 2.64  22 2.64  30 2.64  62 2.64  50 2.64  19 2.82  49 2.87
                            61 2.87  21 2.87  55 2.88  15 2.89
  27  0.917  0.083  0.297-  63 2.63  31 2.64  51 2.64   7 2.64   3 2.64  23 2.64  14 2.83  18 2.84
                            54 2.84   8 2.85   4 2.86  32 2.88
  28  0.750  0.250  0.419-  32 2.64  24 2.64   8 2.64  36 2.64  64 2.64  20 2.64  23 2.87  31 2.89
                            19 2.90
  29  0.750  0.000  0.056-  17 2.64  25 2.64   5 2.64  53 2.64   1 2.64  57 2.64  54 2.87  18 2.87
                            58 2.87
  30  0.583  0.167  0.178-   2 2.64  38 2.64  58 2.64  26 2.64  22 2.64  18 2.64  11 2.83  19 2.83
                            23 2.85  21 2.87  17 2.87  25 2.87
  31  0.917  0.334  0.297-  39 2.64  27 2.64  59 2.64  23 2.64  19 2.65   3 2.65  10 2.83  22 2.84
                            18 2.84   8 2.86  36 2.87  28 2.89
  32  0.750  0.000  0.419-  56 2.64   8 2.64  28 2.64  20 2.64  60 2.64   4 2.64  23 2.87  51 2.88
                            27 2.88
  33  1.000  0.500  0.056-  37 2.64  41 2.64   5 2.64  45 2.64  25 2.64  61 2.64  10 2.87  46 2.87
                            22 2.87
  34  0.333  0.667  0.178-  62 2.64  10 2.64  58 2.64  46 2.64   6 2.64  38 2.64  39 2.83  47 2.83
                            41 2.87  45 2.87  53 2.87  43 2.88
  35  0.167  0.834  0.297-  11 2.63  47 2.64  63 2.64  59 2.65  39 2.65   7 2.65  40 2.83  42 2.83
                            38 2.83  46 2.83  16 2.88  44 2.88
  36  0.000  0.500  0.418-  48 2.64  64 2.64  28 2.64  44 2.64  40 2.64   8 2.64  31 2.87  59 2.87
                            39 2.88
  37  1.000  0.750  0.056-  33 2.64  41 2.64  61 2.64  57 2.64  13 2.64   1 2.64  46 2.87  50 2.87
                            42 2.87
  38  0.333  0.917  0.178-  58 2.64  30 2.64   2 2.64  42 2.64  34 2.64  46 2.64  35 2.83  11 2.83
                            47 2.84  13 2.87  17 2.87  41 2.87
  39  0.167  0.583  0.297-  47 2.64  31 2.64  43 2.64   3 2.64  35 2.65  59 2.65  34 2.83  10 2.83
                            46 2.83  48 2.87  36 2.88  44 2.88
  40  1.000  0.750  0.416-  64 2.64  16 2.64  60 2.64  44 2.64  36 2.64   4 2.64  35 2.83  59 2.83
                            63 2.84
  41  0.250  0.750  0.056-  45 2.64  33 2.64  37 2.64  53 2.64  17 2.64  13 2.64  34 2.87  46 2.87
                            38 2.87
  42  0.083  0.917  0.178-  14 2.64   2 2.64  38 2.64  46 2.64  50 2.64  54 2.64  63 2.82  35 2.83
                             1 2.87  13 2.87  37 2.87   7 2.90
  43  0.417  0.582  0.299-  55 2.61  15 2.61   3 2.63  51 2.64  39 2.64  47 2.65  56 2.82  48 2.84
                             6 2.87  62 2.87  34 2.88  52 3.08
  44  0.250  0.750  0.419-  48 2.64  16 2.64  20 2.64  36 2.64  40 2.64  56 2.64  47 2.87  35 2.88
                            39 2.88
  45  0.250  0.500  0.056-  41 2.64  53 2.64   5 2.64   9 2.64  49 2.64  33 2.64   6 2.87  10 2.87
                            34 2.87
  46  0.083  0.667  0.178-  34 2.64  50 2.64  10 2.64  42 2.64  22 2.64  38 2.64  39 2.83  59 2.83
                            35 2.83  37 2.87  33 2.87  41 2.87
  47  0.417  0.833  0.297-  39 2.64  51 2.64  35 2.64  23 2.64  11 2.65  43 2.65  34 2.83  58 2.84
                            38 2.84  56 2.85  44 2.87  20 2.88
  48  0.250  0.500  0.419-  36 2.64  44 2.64   8 2.64  56 2.64  52 2.67  12 2.67   3 2.83  43 2.84
                            39 2.87
  49  0.500  0.500  0.056-  61 2.64  53 2.64  57 2.64  21 2.64   9 2.64  45 2.64  26 2.87   6 2.87
                            62 2.87
  50  0.833  0.667  0.178-  22 2.64  46 2.64  26 2.64  42 2.64  54 2.64  62 2.64  63 2.82  59 2.83
                            57 2.87  61 2.87  37 2.87  55 2.90
  51  0.667  0.833  0.297-  63 2.63  47 2.64  27 2.64  55 2.64  43 2.64  23 2.64  54 2.84  62 2.84
                            58 2.84  56 2.85  60 2.87  32 2.88
  52  0.501  0.501  0.433-  65 2.13  66 2.17  60 2.64  56 2.65  64 2.65  12 2.67  48 2.67  24 2.68
                            55 3.05  15 3.07  43 3.08
  53  0.500  0.750  0.056-  49 2.64  57 2.64  45 2.64  41 2.64  29 2.64  17 2.64  62 2.87  34 2.87
                            58 2.87
  54  0.833  0.917  0.178-  18 2.64  14 2.64  50 2.64  58 2.64  42 2.64  62 2.64  63 2.81  51 2.84
                            27 2.84  29 2.87   1 2.87  57 2.87
  55  0.664  0.582  0.300-  43 2.61  15 2.62  19 2.63  51 2.64  59 2.65  63 2.66  60 2.83  64 2.83
                            26 2.88  62 2.88  50 2.90  52 3.05
  56  0.501  0.750  0.418-  60 2.63  32 2.64  20 2.64  44 2.64  48 2.64  52 2.65  43 2.82  51 2.85
                            47 2.85
  57  0.750  0.750  0.056-  61 2.64  49 2.64  53 2.64  37 2.64   1 2.64  29 2.64  50 2.87  62 2.87
                            54 2.87
  58  0.583  0.917  0.178-  38 2.64  30 2.64  18 2.64  34 2.64  62 2.64  54 2.64  47 2.84  51 2.84
                            23 2.85  17 2.87  29 2.87  53 2.87
  59  0.916  0.583  0.297-  19 2.63  31 2.64  63 2.64  35 2.65  39 2.65  55 2.65  50 2.83  40 2.83
                            22 2.83  46 2.83  36 2.87  64 2.88
  60  0.750  0.750  0.419-  56 2.63  64 2.64  40 2.64  32 2.64  52 2.64   4 2.65  55 2.83  51 2.87
                            63 2.89
  61  0.750  0.500  0.056-  49 2.64  57 2.64  21 2.64  25 2.64  37 2.64  33 2.64  22 2.87  26 2.87
                            50 2.87
  62  0.583  0.667  0.178-  34 2.64   6 2.64  26 2.64  58 2.64  54 2.64  50 2.64  51 2.84  43 2.87
                            53 2.87  49 2.87  57 2.87  55 2.88
  63  0.916  0.834  0.296-  51 2.63  27 2.63  35 2.64  59 2.64  55 2.66   7 2.66  54 2.81  42 2.82
                            50 2.82  40 2.84   4 2.89  60 2.89
  64  0.750  0.500  0.419-  36 2.64  40 2.64  60 2.64  28 2.64  24 2.64  52 2.65  55 2.83  59 2.88
                            19 2.88
  65  0.354  0.400  0.515-  66 0.84  52 2.13  12 2.14
  66  0.396  0.350  0.515-  65 0.84  12 2.12  52 2.17
 
  LATTYP: Found a hexagonal cell.
 ALAT       =    10.5600004196
 C/A-ratio  =     1.8939393187
  
  Lattice vectors:
  
 A1 = (  10.5600004196,   0.0000000000,   0.0000000000)
 A2 = (  -5.2800002098,   9.1452286274,   0.0000000000)
 A3 = (   0.0000000000,   0.0000000000,  20.0000000000)


Analysis of symmetry for initial positions (statically):
=====================================================================
 Subroutine PRICEL returns:
 Original cell was already a primitive cell.
 

 Routine SETGRP: Setting up the symmetry group for a 
 hexagonal supercell.


 Subroutine GETGRP returns: Found  1 space group operations
 (whereof  1 operations were pure point group operations)
 out of a pool of 24 trial point group operations.


The static configuration has the point symmetry C_1 .


Analysis of symmetry for dynamics (positions and initial velocities):
=====================================================================
 Subroutine PRICEL returns:
 Original cell was already a primitive cell.
 

 Routine SETGRP: Setting up the symmetry group for a 
 hexagonal supercell.


 Subroutine GETGRP returns: Found  1 space group operations
 (whereof  1 operations were pure point group operations)
 out of a pool of 24 trial point group operations.


The dynamic configuration has the point symmetry C_1 .


Analysis of constrained symmetry for selective dynamics:
=====================================================================
 Subroutine PRICEL returns:
 Original cell was already a primitive cell.
 

 Routine SETGRP: Setting up the symmetry group for a 
 hexagonal supercell.


 Subroutine GETGRP returns: Found  1 space group operations
 (whereof  1 operations were pure point group operations)
 out of a pool of 24 trial point group operations.


The constrained configuration has the point symmetry C_1 .


Analysis of structural, dynamic, and magnetic symmetry:
=====================================================================
 Subroutine PRICEL returns:
 Original cell was already a primitive cell.
 

 Routine SETGRP: Setting up the symmetry group for a 
 hexagonal supercell.


 Subroutine GETGRP returns: Found  1 space group operations
 (whereof  1 operations were pure point group operations)
 out of a pool of 24 trial point group operations.


The magnetic configuration has the point symmetry C_1 .


 Subroutine INISYM returns: Found  1 space group operations
 (whereof  1 operations are pure point group operations),
 and found     1 'primitive' translations

 
 
 KPOINTS: mesh auto                               

Automatic generation of k-mesh.
Space group operators:
 irot       det(A)        alpha          n_x          n_y          n_z        tau_x        tau_y        tau_z
    1     1.000000     0.000000     1.000000     0.000000     0.000000     0.000000     0.000000     0.000000
 
 Subroutine IBZKPT returns following result:
 ===========================================
 
 Found      4 irreducible k-points:
 
 Following reciprocal coordinates:
            Coordinates               Weight
  0.000000  0.000000  0.000000      1.000000
  0.500000 -0.000000  0.000000      1.000000
  0.000000  0.500000  0.000000      1.000000
  0.500000  0.500000  0.000000      1.000000
 
 Following cartesian coordinates:
            Coordinates               Weight
  0.000000  0.000000  0.000000      1.000000
  0.047348  0.027337  0.000000      1.000000
  0.000000  0.054673  0.000000      1.000000
  0.047348  0.082010  0.000000      1.000000
 


--------------------------------------------------------------------------------------------------------




 Dimension of arrays:
   k-points           NKPTS =      4   k-points in BZ     NKDIM =      4   number of bands    NBANDS=    420
   number of dos      NEDOS =    301   number of ions     NIONS =     66
   non local maximal  LDIM  =      6   non local SUM 2l+1 LMDIM =     18
   total plane-waves  NPLWV = ******
   max r-space proj   IRMAX =   8171   max aug-charges    IRDMAX=  35597
   dimension x,y,z NGX =    84 NGY =   84 NGZ =  160
   dimension x,y,z NGXF=   168 NGYF=  168 NGZF=  320
   support grid    NGXF=   168 NGYF=  168 NGZF=  320
   ions per type =              64   2
   NGX,Y,Z   is equivalent  to a cutoff of  13.22, 13.22, 13.30 a.u.
   NGXF,Y,Z  is equivalent  to a cutoff of  26.45, 26.45, 26.60 a.u.

 SYSTEM =  Pt111                                   
 POSCAR =  Pt   H                                  

 Startparameter for this run:
   NWRITE =      2    write-flag & timer
   PREC   = accura    normal or accurate (medium, high low for compatibility)
   ISTART =      0    job   : 0-new  1-cont  2-samecut
   ICHARG =      2    charge: 1-file 2-atom 10-const
   ISPIN  =      2    spin polarized calculation?
   LNONCOLLINEAR =      F non collinear calculations
   LSORBIT =      F    spin-orbit coupling
   INIWAV =      1    electr: 0-lowe 1-rand  2-diag
   LASPH  =      F    aspherical Exc in radial PAW
   METAGGA=      F    non-selfconsistent MetaGGA calc.

 Electronic Relaxation 1
   ENCUT  =  550.0 eV  40.42 Ry    6.36 a.u.  20.19 20.19 38.24*2*pi/ulx,y,z
   ENINI  =  550.0     initial cutoff
   ENAUG  =  400.0 eV  augmentation charge cutoff
   NELM   =    200;   NELMIN=  2; NELMDL= -5     # of ELM steps 
   EDIFF  = 0.1E-04   stopping-criterion for ELM
   LREAL  =      T    real-space projection
   NLSPLINE    = F    spline interpolate recip. space projectors
   LCOMPAT=      F    compatible to vasp.4.4
   GGA_COMPAT  = T    GGA compatible to vasp.4.4-vasp.4.6
   LMAXPAW     = -100 max onsite density
   LMAXMIX     =    2 max onsite mixed and CHGCAR
   VOSKOWN=      0    Vosko Wilk Nusair interpolation
   ROPT   =   -0.00025  -0.00025
 Ionic relaxation
   EDIFFG = -.5E-01   stopping-criterion for IOM
   NSW    =    300    number of steps for IOM
   NBLOCK =      1;   KBLOCK =    300    inner block; outer block 
   IBRION =      1    ionic relax: 0-MD 1-quasi-New 2-CG
   NFREE  =      0    steps in history (QN), initial steepest desc. (CG)
   ISIF   =      2    stress and relaxation
   IWAVPR =     11    prediction:  0-non 1-charg 2-wave 3-comb
   ISYM   =      2    0-nonsym 1-usesym 2-fastsym
   LCORR  =      T    Harris-Foulkes like correction to forces

   POTIM  = 0.5000    time-step for ionic-motion
   TEIN   =    0.0    initial temperature
   TEBEG  =    0.0;   TEEND  =   0.0 temperature during run
   SMASS  =  -3.00    Nose mass-parameter (am)
   estimated Nose-frequenzy (Omega)   =  0.10E-29 period in steps =****** mass=  -0.255E-26a.u.
   SCALEE = 1.0000    scale energy and forces
   NPACO  =    256;   APACO  = 16.0  distance and # of slots for P.C.
   PSTRESS=    0.0 pullay stress

  Mass of Ions in am
   POMASS = 195.08  1.00
  Ionic Valenz
   ZVAL   =  10.00  1.00
  Atomic Wigner-Seitz radii
   RWIGS  =  -1.00 -1.00
  virtual crystal weights 
   VCA    =   1.00  1.00
   NELECT =     642.0000    total number of electrons
   NUPDOWN=      -1.0000    fix difference up-down

 DOS related values:
   EMIN   =  10.00;   EMAX   =-10.00  energy-range for DOS
   EFERMI =   0.00
   ISMEAR =     1;   SIGMA  =   0.10  broadening in eV -4-tet -1-fermi 0-gaus

 Electronic relaxation 2 (details)
   IALGO  =     68    algorithm
   LDIAG  =      T    sub-space diagonalisation (order eigenvalues)
   LSUBROT=      F    optimize rotation matrix (better conditioning)
   TURBO    =      0    0=normal 1=particle mesh
   IRESTART =      0    0=no restart 2=restart with 2 vectors
   NREBOOT  =      0    no. of reboots
   NMIN     =      0    reboot dimension
   EREF     =   0.00    reference energy to select bands
   IMIX   =      4    mixing-type and parameters
     AMIX     =   0.40;   BMIX     =  1.00
     AMIX_MAG =   1.60;   BMIX_MAG =  1.00
     AMIN     =   0.10
     WC   =   100.;   INIMIX=   1;  MIXPRE=   1;  MAXMIX= -45

 Intra band minimization:
   WEIMIN = 0.0010     energy-eigenvalue tresh-hold
   EBREAK =  0.60E-08  absolut break condition
   DEPER  =   0.30     relativ break condition  

   TIME   =   0.40     timestep for ELM

  volume/ion in A,a.u.               =      29.26       197.49
  Fermi-wavevector in a.u.,A,eV,Ry     =   1.134028  2.143002 17.497349  1.286019
  Thomas-Fermi vector in A             =   2.270731
 
 Write flags
   LWAVE        =      F    write WAVECAR
   LDOWNSAMPLE  =      F    k-point downsampling of WAVECAR
   LCHARG       =      F    write CHGCAR
   LVTOT        =      F    write LOCPOT, total local potential
   LVHAR        =      F    write LOCPOT, Hartree potential only
   LELF         =      F    write electronic localiz. function (ELF)
   LORBIT       =      0    0 simple, 1 ext, 2 COOP (PROOUT), +10 PAW based schemes


 Dipole corrections
   LMONO  =      F    monopole corrections only (constant potential shift)
   LDIPOL =      F    correct potential (dipole corrections)
   IDIPOL =      0    1-x, 2-y, 3-z, 4-all directions 
   EPSILON=  1.0000000 bulk dielectric constant

 Exchange correlation treatment:
   GGA     =    --    GGA type
   LEXCH   =     8    internal setting for exchange type
   VOSKOWN=      0    Vosko Wilk Nusair interpolation
   LHFCALC =     F    Hartree Fock is set to
   LHFONE  =     F    Hartree Fock one center treatment
   AEXX    =    0.0000 exact exchange contribution

 Linear response parameters
   LEPSILON=     F    determine dielectric tensor
   LRPA    =     F    only Hartree local field effects (RPA)
   LNABLA  =     F    use nabla operator in PAW spheres
   LVEL    =     F    velocity operator in full k-point grid
   LINTERFAST=   F  fast interpolation
   KINTER  =     0    interpolate to denser k-point grid
   CSHIFT  =0.1000    complex shift for real part using Kramers Kronig
   OMEGAMAX=  -1.0    maximum frequency
   DEG_THRESHOLD= 0.2000000E-02 threshold for treating states as degnerate
   RTIME   =   -0.100 relaxation time in fs
  (WPLASMAI=    0.000 imaginary part of plasma frequency in eV, 0.658/RTIME)
   DFIELD  = 0.0000000 0.0000000 0.0000000 field for delta impulse in time
 
 Orbital magnetization related:
   ORBITALMAG=     F  switch on orbital magnetization
   LCHIMAG   =     F  perturbation theory with respect to B field
   DQ        =  0.001000  dq finite difference perturbation B field
   LLRAUG    =     F  two centre corrections for induced B field



--------------------------------------------------------------------------------------------------------


 quasi-Newton-method for relaxation of ions
   using selective dynamics as specified on POSCAR
   WARNING: If single coordinates had been selected the selection of coordinates
            is made according to the corresponding   d i r e c t   coordinates!
            Don't support selection of single cartesian coordinates -- sorry ...
  !
 charge density and potential will be updated during run
 spin polarized calculation
 RMM-DIIS sequential band-by-band and
  variant of blocked Davidson during initial phase
 perform sub-space diagonalisation
    before iterative eigenvector-optimisation
 modified Broyden-mixing scheme, WC =      100.0
 initial mixing is a Kerker type mixing with AMIX =  0.4000 and BMIX =      1.0000
 Hartree-type preconditioning will be used
 using additional bands           99
 real space projection scheme for non local part
 use partial core corrections
 calculate Harris-corrections to forces 
   (improved forces if not selfconsistent)
 use gradient corrections 
 use of overlap-Matrix (Vanderbilt PP)
 Methfessel and Paxton  Order N= 1 SIGMA  =   0.10


--------------------------------------------------------------------------------------------------------


  energy-cutoff  :      550.00
  volume of cell :     1931.47
      direct lattice vectors                 reciprocal lattice vectors
    10.560000420  0.000000000  0.000000000     0.094696966  0.054673319  0.000000000
    -5.280000210  9.145228627  0.000000000     0.000000000  0.109346638  0.000000000
     0.000000000  0.000000000 20.000000000     0.000000000  0.000000000  0.050000000

  length of vectors
    10.560000420 10.560000420 20.000000000     0.109346638  0.109346638  0.050000000


 
 k-points in units of 2pi/SCALE and weight: mesh auto                               
   0.00000000  0.00000000  0.00000000       0.250
   0.04734848  0.02733666  0.00000000       0.250
   0.00000000  0.05467332  0.00000000       0.250
   0.04734848  0.08200998  0.00000000       0.250
 
 k-points in reciprocal lattice and weights: mesh auto                               
   0.00000000  0.00000000  0.00000000       0.250
   0.50000000 -0.00000000  0.00000000       0.250
   0.00000000  0.50000000  0.00000000       0.250
   0.50000000  0.50000000  0.00000000       0.250
 
 position of ions in fractional coordinates (direct lattice) 
   0.99999844  0.00000156  0.05579229
   0.33333173  0.16666826  0.17752397
   0.16782684  0.33294926  0.29938130
   0.00037195  0.00059567  0.41842189
   0.99999844  0.25000155  0.05579229
   0.33333172  0.41666827  0.17752397
   0.16834270  0.08614804  0.29995649
   0.99985349  0.24965679  0.41777852
   0.24999844  0.25000155  0.05579229
   0.08333172  0.41666827  0.17752397
   0.41640207  0.08372129  0.29657479
   0.24892767  0.24887697  0.43462726
   0.24999844  0.00000156  0.05579229
   0.08333172  0.16666826  0.17752397
   0.41572149  0.33439935  0.30020948
   0.24992394  0.99984860  0.41899939
   0.49999844  0.00000156  0.05579229
   0.83333168  0.16666826  0.17752397
   0.66645310  0.33377656  0.29658977
   0.50006520  0.99987168  0.41938191
   0.49999843  0.25000155  0.05579229
   0.83333168  0.41666827  0.17752397
   0.66658902  0.08365541  0.29776672
   0.50042249  0.24978755  0.41580075
   0.74999841  0.25000155  0.05579229
   0.58333168  0.41666827  0.17752397
   0.91691804  0.08347311  0.29711759
   0.75026336  0.25005209  0.41945935
   0.74999842  0.00000156  0.05579229
   0.58333166  0.16666826  0.17752397
   0.91710538  0.33357566  0.29703317
   0.75002248  0.00020000  0.41912215
   0.99999844  0.50000154  0.05579229
   0.33333171  0.66666826  0.17752397
   0.16703983  0.83416582  0.29672274
   0.00002902  0.50016709  0.41848600
   0.99999843  0.75000151  0.05579229
   0.33333173  0.91666828  0.17752397
   0.16719490  0.58304757  0.29662192
   0.99996203  0.75025451  0.41565525
   0.24999843  0.75000151  0.05579229
   0.08333173  0.91666828  0.17752397
   0.41723740  0.58240679  0.29925724
   0.25001218  0.75015327  0.41865832
   0.24999844  0.50000154  0.05579229
   0.08333171  0.66666826  0.17752397
   0.41664180  0.83312731  0.29703981
   0.24975374  0.50035273  0.41858566
   0.49999844  0.50000154  0.05579229
   0.83333171  0.66666826  0.17752397
   0.66681588  0.83333778  0.29716018
   0.50124660  0.50140354  0.43332100
   0.49999843  0.75000151  0.05579229
   0.83333170  0.91666828  0.17752397
   0.66407260  0.58190920  0.30000015
   0.50054695  0.75039624  0.41774461
   0.74999841  0.75000151  0.05579229
   0.58333168  0.91666828  0.17752397
   0.91595676  0.58311364  0.29671440
   0.74987028  0.75002718  0.41868538
   0.74999839  0.50000154  0.05579229
   0.58333166  0.66666826  0.17752397
   0.91643773  0.83376159  0.29594274
   0.75041036  0.50026354  0.41907521
   0.35439451  0.39968646  0.51464622
   0.39646887  0.34959302  0.51524603
 
 position of ions in cartesian coordinates  (Angst):
  10.55997578  0.00001422  1.11584590
   2.63997474  1.52421935  3.55047947
   0.01427940  3.04489706  5.98762609
   0.00078268  0.00544753  8.36843788
   9.23997574  2.28632132  1.11584590
   1.31997457  3.81052657  3.55047947
   1.32283727  0.78784355  5.99912978
   9.24026533  2.28316844  8.35557043
   1.31997542  2.28632132  1.11584590
  -1.32002553  3.81052657  3.55047947
   3.95515760  0.76565032  5.93149583
   1.31460581  2.27603676  8.69254517
   2.63997547  0.00001422  1.11584590
  -0.00002541  1.52421935  3.55047947
   2.62439048  3.05815848  6.00418957
  -2.64000389  9.14384403  8.37998787
   5.27997557  0.00001422  1.11584590
   7.91997448  1.52421935  3.55047947
   5.27540470  3.05246295  5.93179537
   0.00136609  9.14405512  8.38763821
   3.95997540  2.28632132  1.11584590
   6.59997431  3.81052657  3.55047947
   6.59747975  0.76504783  5.95533432
   3.96558339  2.28436425  8.31601493
   6.59997527  2.28632132  1.11584590
   3.95997420  3.81052657  3.55047947
   9.24191685  0.76338072  5.94235177
   6.60250631  2.28678354  8.38918707
   7.91997543  0.00001422  1.11584590
   5.27997414  1.52421935  3.55047947
   7.92335362  3.05062567  5.94066337
   7.91918171  0.00182905  8.38244310
   7.91997567  4.57262842  1.11584590
  -0.00002559  6.09683366  3.55047947
  -2.64045500  7.62863718  5.93445489
  -2.64057589  4.57414235  8.36972002
   6.59997574  6.85893527  1.11584590
  -1.32002553  8.38314100  3.55047947
  -1.31291305  5.33210333  5.93243843
   6.59825549  6.86124904  8.31310490
  -1.32002457  6.85893527  1.11584590
  -3.96002563  8.38314100  3.55047947
   1.33091914  5.32624325  5.98514473
  -1.32068072  6.86032313  8.37316648
  -0.00002464  4.57262842  1.11584590
  -2.64002570  6.09683366  3.55047947
   0.00082523  7.61913973  5.94079613
  -0.00446292  4.57584011  8.37171325
   2.63997546  4.57262842  1.11584590
   5.27997462  6.09683366  3.55047947
   2.64155233  7.62106451  5.94320354
   2.64575354  4.58545001  8.66641997
   1.31997553  6.85893527  1.11584590
   3.95997444  8.38314100  3.55047947
   3.94012625  5.32169270  6.00000309
   1.32368364  6.86254519  8.35489218
   3.95997540  6.85893527  1.11584590
   1.31997410  8.38314100  3.55047947
   6.59366361  5.33270755  5.93428807
   3.95848682  6.85917008  8.37370762
   5.27997509  4.57262842  1.11584590
   2.63997404  6.09683366  3.55047947
   5.27532142  7.62494040  5.91885487
   5.28294212  4.57502442  8.38150423
   1.63206162  3.65522406 10.29292442
   2.34086023  3.19710808 10.30492050
 


--------------------------------------------------------------------------------------------------------


 k-point  1 :   0.0000 0.0000 0.0000  plane waves:   56579
 k-point  2 :   0.5000-0.0000 0.0000  plane waves:   56606
 k-point  3 :   0.0000 0.5000 0.0000  plane waves:   56606
 k-point  4 :   0.5000 0.5000 0.0000  plane waves:   56606

 maximum and minimum number of plane-waves per node :     14185    14108

 maximum number of plane-waves:     56606
 maximum index in each direction: 
   IXMAX=   20   IYMAX=   20   IZMAX=   38
   IXMIN=  -20   IYMIN=  -20   IZMIN=  -38


 real space projection operators:
  total allocation   :      71338.41 KBytes
  max/ min on nodes  :      17837.78      17829.12


 parallel 3D FFT for wavefunctions:
    minimum data exchange during FFTs selected (reduces bandwidth)
 parallel 3D FFT for charge:
    minimum data exchange during FFTs selected (reduces bandwidth)


 total amount of memory used by VASP MPI-rank0   200766. kBytes
=======================================================================

   base      :      30000. kBytes
   nonlr-proj:      31108. kBytes
   fftplans  :      17093. kBytes
   grid      :      44247. kBytes
   one-center:        528. kBytes
   wavefun   :      77790. kBytes
 
     INWAV:  cpu time    0.0000: real time    0.0000
 Broyden mixing: mesh for mixing (old mesh)
   NGX = 41   NGY = 41   NGZ = 77
  (NGX  =168   NGY  =168   NGZ  =320)
  gives a total of 129437 points

 initial charge density was supplied:
 charge density of overlapping atoms calculated
 number of electron     642.0000000 magnetization      66.0000000
 keeping initial charge density in first step


--------------------------------------------------------------------------------------------------------


 Maximum index for non-local projection operator         2015
 Maximum index for augmentation-charges         2177 (set IRDMAX)


--------------------------------------------------------------------------------------------------------


 First call to EWALD:  gamma=   0.142
 Maximum number of real-space cells 4x 4x 2
 Maximum number of reciprocal cells 2x 2x 4

    FEWALD:  cpu time    0.0120: real time    0.0120


--------------------------------------- Iteration      1(   1)  ---------------------------------------


    POTLOK:  cpu time    0.4843: real time    0.5072
    SETDIJ:  cpu time    0.0478: real time    0.0480
     EDDAV:  cpu time   47.5768: real time   47.7074
       DOS:  cpu time    0.0018: real time    0.0050
    --------------------------------------------
      LOOP:  cpu time   48.1108: real time   48.2675

 eigenvalue-minimisations  :  6720
 total energy-change (2. order) : 0.4506119E+04  (-0.3125051E+05)
 number of electron     642.0000000 magnetization      66.0000000
 augmentation part      642.0000000 magnetization      66.0000000

 Free energy of the ion-electron system (eV)
  ---------------------------------------------------
  alpha Z        PSCENC =      2023.78361127
  Ewald energy   TEWEN  =    124725.70623218
  -Hartree energ DENC   =   -175839.36369443
  -exchange      EXHF   =         0.00000000
  -V(xc)+E(xc)   XCENC  =       247.63565145
  PAW double counting   =     44550.55032729   -42740.70693553
  entropy T*S    EENTRO =        -0.00021114
  eigenvalues    EBANDS =      4850.14405857
  atomic energy  EATOM  =     46688.37031544
  Solvation  Ediel_sol  =         0.00000000
  ---------------------------------------------------
  free energy    TOTEN  =      4506.11935511 eV

  energy without entropy =     4506.11956624  energy(sigma->0) =     4506.11942549


--------------------------------------------------------------------------------------------------------




--------------------------------------- Iteration      1(   2)  ---------------------------------------


     EDDAV:  cpu time   52.1055: real time   52.3410
       DOS:  cpu time    0.0022: real time    0.0063
    --------------------------------------------
      LOOP:  cpu time   52.1077: real time   52.3473

 eigenvalue-minimisations  :  7550
 total energy-change (2. order) :-0.4640425E+04  (-0.4251162E+04)
 number of electron     642.0000000 magnetization      66.0000000
 augmentation part      642.0000000 magnetization      66.0000000

 Free energy of the ion-electron system (eV)
  ---------------------------------------------------
  alpha Z        PSCENC =      2023.78361127
  Ewald energy   TEWEN  =    124725.70623218
  -Hartree energ DENC   =   -175839.36369443
  -exchange      EXHF   =         0.00000000
  -V(xc)+E(xc)   XCENC  =       247.63565145
  PAW double counting   =     44550.55032729   -42740.70693553
  entropy T*S    EENTRO =        -0.00080294
  eigenvalues    EBANDS =       209.72005191
  atomic energy  EATOM  =     46688.37031544
  Solvation  Ediel_sol  =         0.00000000
  ---------------------------------------------------
  free energy    TOTEN  =      -134.30524336 eV

  energy without entropy =     -134.30444042  energy(sigma->0) =     -134.30497572


--------------------------------------------------------------------------------------------------------




--------------------------------------- Iteration      1(   3)  ---------------------------------------


     EDDAV:  cpu time   52.5337: real time   52.6609
       DOS:  cpu time    0.0022: real time    0.0051
    --------------------------------------------
      LOOP:  cpu time   52.5359: real time   52.6660

 eigenvalue-minimisations  :  7640
 total energy-change (2. order) :-0.2478720E+03  (-0.2292861E+03)
 number of electron     642.0000000 magnetization      66.0000000
 augmentation part      642.0000000 magnetization      66.0000000

 Free energy of the ion-electron system (eV)
  ---------------------------------------------------
  alpha Z        PSCENC =      2023.78361127
  Ewald energy   TEWEN  =    124725.70623218
  -Hartree energ DENC   =   -175839.36369443
  -exchange      EXHF   =         0.00000000
  -V(xc)+E(xc)   XCENC  =       247.63565145
  PAW double counting   =     44550.55032729   -42740.70693553
  entropy T*S    EENTRO =        -0.01001392
  eigenvalues    EBANDS =       -38.14269842
  atomic energy  EATOM  =     46688.37031544
  Solvation  Ediel_sol  =         0.00000000
  ---------------------------------------------------
  free energy    TOTEN  =      -382.17720467 eV

  energy without entropy =     -382.16719075  energy(sigma->0) =     -382.17386670


--------------------------------------------------------------------------------------------------------




--------------------------------------- Iteration      1(   4)  ---------------------------------------


     EDDAV:  cpu time   54.2833: real time   54.4124
       DOS:  cpu time    0.0022: real time    0.0057
    --------------------------------------------
      LOOP:  cpu time   54.2855: real time   54.4181

 eigenvalue-minimisations  :  8010
 total energy-change (2. order) :-0.6530395E+01  (-0.6469154E+01)
 number of electron     642.0000000 magnetization      66.0000000
 augmentation part      642.0000000 magnetization      66.0000000

 Free energy of the ion-electron system (eV)
  ---------------------------------------------------
  alpha Z        PSCENC =      2023.78361127
  Ewald energy   TEWEN  =    124725.70623218
  -Hartree energ DENC   =   -175839.36369443
  -exchange      EXHF   =         0.00000000
  -V(xc)+E(xc)   XCENC  =       247.63565145
  PAW double counting   =     44550.55032729   -42740.70693553
  entropy T*S    EENTRO =        -0.01447504
  eigenvalues    EBANDS =       -44.66863229
  atomic energy  EATOM  =     46688.37031544
  Solvation  Ediel_sol  =         0.00000000
  ---------------------------------------------------
  free energy    TOTEN  =      -388.70759966 eV

  energy without entropy =     -388.69312462  energy(sigma->0) =     -388.70277464


--------------------------------------------------------------------------------------------------------




--------------------------------------- Iteration      1(   5)  ---------------------------------------


     EDDAV:  cpu time   53.7085: real time   53.8356
       DOS:  cpu time    0.0025: real time    0.0067
    CHARGE:  cpu time    3.3500: real time    3.3581
    MIXING:  cpu time    0.0103: real time    0.0112
    --------------------------------------------
      LOOP:  cpu time   57.0714: real time   57.2116

 eigenvalue-minimisations  :  7860
 total energy-change (2. order) :-0.2081253E+00  (-0.2076190E+00)
 number of electron     642.0000108 magnetization      59.7149542
 augmentation part      185.8134014 magnetization      47.4633114

 Broyden mixing:
  rms(total) = 0.10508E+02    rms(broyden)= 0.10508E+02
  rms(prec ) = 0.10611E+02
  weight for this iteration     100.00

 Free energy of the ion-electron system (eV)
  ---------------------------------------------------
  alpha Z        PSCENC =      2023.78361127
  Ewald energy   TEWEN  =    124725.70623218
  -Hartree energ DENC   =   -175839.36369443
  -exchange      EXHF   =         0.00000000
  -V(xc)+E(xc)   XCENC  =       247.63565145
  PAW double counting   =     44550.55032729   -42740.70693553
  entropy T*S    EENTRO =        -0.01490520
  eigenvalues    EBANDS =       -44.87632748
  atomic energy  EATOM  =     46688.37031544
  Solvation  Ediel_sol  =         0.00000000
  ---------------------------------------------------
  free energy    TOTEN  =      -388.91572501 eV

  energy without entropy =     -388.90081981  energy(sigma->0) =     -388.91075661


--------------------------------------------------------------------------------------------------------




--------------------------------------- Iteration      1(   6)  ---------------------------------------


    POTLOK:  cpu time    0.4517: real time    0.4559
    SETDIJ:  cpu time    0.0423: real time    0.0423
    EDDIAG:  cpu time    8.4957: real time    8.5164
  RMM-DIIS:  cpu time   30.1533: real time   30.2359
    ORTHCH:  cpu time    0.9359: real time    0.9418
       DOS:  cpu time    0.0022: real time    0.0022
    CHARGE:  cpu time    3.3064: real time    3.3143
    MIXING:  cpu time    0.0096: real time    0.2330
    --------------------------------------------
      LOOP:  cpu time   43.3969: real time   43.7418

 eigenvalue-minimisations  :  6750
 total energy-change (2. order) : 0.2737519E+02  (-0.6887014E+01)
 number of electron     642.0000114 magnetization      51.7364310
 augmentation part      195.2220755 magnetization      38.3663629

 Broyden mixing:
  rms(total) = 0.67015E+01    rms(broyden)= 0.67015E+01
  rms(prec ) = 0.69550E+01
  weight for this iteration     100.00

 eigenvalues of (default mixing * dielectric matrix)
  average eigenvalue GAMMA=   1.2896
  1.2896

 Free energy of the ion-electron system (eV)
  ---------------------------------------------------
  alpha Z        PSCENC =      2023.78361127
  Ewald energy   TEWEN  =    124725.70623218
  -Hartree energ DENC   =   -175177.53029442
  -exchange      EXHF   =         0.00000000
  -V(xc)+E(xc)   XCENC  =       238.83098227
  PAW double counting   =     50865.01405188   -49162.28893653
  entropy T*S    EENTRO =        -0.02287446
  eigenvalues    EBANDS =      -563.40362239
  atomic energy  EATOM  =     46688.37031544
  Solvation  Ediel_sol  =         0.00000000
  ---------------------------------------------------
  free energy    TOTEN  =      -361.54053475 eV

  energy without entropy =     -361.51766029  energy(sigma->0) =     -361.53290993


--------------------------------------------------------------------------------------------------------




--------------------------------------- Iteration      1(   7)  ---------------------------------------


    POTLOK:  cpu time    0.4544: real time    0.4590
    SETDIJ:  cpu time    0.0421: real time    0.0422
    EDDIAG:  cpu time    8.3216: real time    8.3415
  RMM-DIIS:  cpu time   29.5825: real time   29.6577
    ORTHCH:  cpu time    0.9294: real time    0.9353
       DOS:  cpu time    0.0021: real time    0.0064
    CHARGE:  cpu time    3.3687: real time    3.3767
    MIXING:  cpu time    0.0092: real time    0.0787
    --------------------------------------------
      LOOP:  cpu time   42.7100: real time   42.8975

 eigenvalue-minimisations  :  6733
 total energy-change (2. order) :-0.1029301E+03  (-0.1154529E+02)
 number of electron     642.0000120 magnetization      46.0990233
 augmentation part      192.9696584 magnetization      34.2136822

 Broyden mixing:
  rms(total) = 0.91218E+01    rms(broyden)= 0.91218E+01
  rms(prec ) = 0.11255E+02
  weight for this iteration     100.00

 eigenvalues of (default mixing * dielectric matrix)
  average eigenvalue GAMMA=   1.0742
  1.7992  0.3492

 Free energy of the ion-electron system (eV)
  ---------------------------------------------------
  alpha Z        PSCENC =      2023.78361127
  Ewald energy   TEWEN  =    124725.70623218
  -Hartree energ DENC   =   -175728.22952488
  -exchange      EXHF   =         0.00000000
  -V(xc)+E(xc)   XCENC  =       232.34012163
  PAW double counting   =     56693.99156576   -55055.12987932
  entropy T*S    EENTRO =        -0.00316981
  eigenvalues    EBANDS =       -45.29992367
  atomic energy  EATOM  =     46688.37031544
  Solvation  Ediel_sol  =         0.00000000
  ---------------------------------------------------
  free energy    TOTEN  =      -464.47065141 eV

  energy without entropy =     -464.46748160  energy(sigma->0) =     -464.46959480


--------------------------------------------------------------------------------------------------------




--------------------------------------- Iteration      1(   8)  ---------------------------------------


    POTLOK:  cpu time    0.4515: real time    0.4526
    SETDIJ:  cpu time    0.0421: real time    0.0422
    EDDIAG:  cpu time    8.3729: real time    8.3927
  RMM-DIIS:  cpu time   29.7932: real time   29.8879
    ORTHCH:  cpu time    1.0223: real time    1.0294
       DOS:  cpu time    0.0025: real time    0.0025
    CHARGE:  cpu time    3.3038: real time    3.3118
    MIXING:  cpu time    0.0102: real time    0.0108
    --------------------------------------------
      LOOP:  cpu time   42.9985: real time   43.1298

 eigenvalue-minimisations  :  6755
 total energy-change (2. order) : 0.1113557E+03  (-0.5139155E+01)
 number of electron     642.0000116 magnetization      42.6054274
 augmentation part      198.7168938 magnetization      31.4282651

 Broyden mixing:
  rms(total) = 0.23239E+01    rms(broyden)= 0.23239E+01
  rms(prec ) = 0.26173E+01
  weight for this iteration     100.00

 eigenvalues of (default mixing * dielectric matrix)
  average eigenvalue GAMMA=   1.0331
  2.1374  0.6341  0.3279

 Free energy of the ion-electron system (eV)
  ---------------------------------------------------
  alpha Z        PSCENC =      2023.78361127
  Ewald energy   TEWEN  =    124725.70623218
  -Hartree energ DENC   =   -175183.58081329
  -exchange      EXHF   =         0.00000000
  -V(xc)+E(xc)   XCENC  =       234.21735178
  PAW double counting   =     60033.12066439   -58434.61781612
  entropy T*S    EENTRO =        -0.00665579
  eigenvalues    EBANDS =      -440.10780825
  atomic energy  EATOM  =     46688.37031544
  Solvation  Ediel_sol  =         0.00000000
  ---------------------------------------------------
  free energy    TOTEN  =      -353.11491839 eV

  energy without entropy =     -353.10826260  energy(sigma->0) =     -353.11269979


--------------------------------------------------------------------------------------------------------




--------------------------------------- Iteration      1(   9)  ---------------------------------------


    POTLOK:  cpu time    0.4518: real time    0.4529
    SETDIJ:  cpu time    0.0424: real time    0.0425
    EDDIAG:  cpu time    8.3150: real time    8.3347
  RMM-DIIS:  cpu time   29.7504: real time   29.8207
    ORTHCH:  cpu time    0.9229: real time    0.9291
       DOS:  cpu time    0.0022: real time    0.0022
    CHARGE:  cpu time    3.2900: real time    3.2978
    MIXING:  cpu time    0.0103: real time    0.0103
    --------------------------------------------
      LOOP:  cpu time   42.7851: real time   42.8901

 eigenvalue-minimisations  :  6753
 total energy-change (2. order) :-0.7560895E+01  (-0.1566426E+01)
 number of electron     642.0000114 magnetization      40.4923645
 augmentation part      197.8646223 magnetization      30.7119592

 Broyden mixing:
  rms(total) = 0.28244E+01    rms(broyden)= 0.28244E+01
  rms(prec ) = 0.31817E+01
  weight for this iteration     100.00

 eigenvalues of (default mixing * dielectric matrix)
  average eigenvalue GAMMA=   0.8849
  2.2016  0.6894  0.3480  0.3007

 Free energy of the ion-electron system (eV)
  ---------------------------------------------------
  alpha Z        PSCENC =      2023.78361127
  Ewald energy   TEWEN  =    124725.70623218
  -Hartree energ DENC   =   -175201.78109036
  -exchange      EXHF   =         0.00000000
  -V(xc)+E(xc)   XCENC  =       232.89615772
  PAW double counting   =     60424.24135198   -58825.56502435
  entropy T*S    EENTRO =         0.01994394
  eigenvalues    EBANDS =      -428.34731112
  atomic energy  EATOM  =     46688.37031544
  Solvation  Ediel_sol  =         0.00000000
  ---------------------------------------------------
  free energy    TOTEN  =      -360.67581330 eV

  energy without entropy =     -360.69575724  energy(sigma->0) =     -360.68246128


--------------------------------------------------------------------------------------------------------




--------------------------------------- Iteration      1(  10)  ---------------------------------------


    POTLOK:  cpu time    0.4513: real time    0.4524
    SETDIJ:  cpu time    0.0424: real time    0.0425
    EDDIAG:  cpu time    8.3514: real time    8.3715
  RMM-DIIS:  cpu time   29.9100: real time   29.9837
    ORTHCH:  cpu time    0.9226: real time    0.9277
       DOS:  cpu time    0.0021: real time    0.0022
    CHARGE:  cpu time    3.3504: real time    3.3584
    MIXING:  cpu time    0.0118: real time    0.0119
    --------------------------------------------
      LOOP:  cpu time   43.0421: real time   43.1501

 eigenvalue-minimisations  :  6760
 total energy-change (2. order) : 0.4376000E+01  (-0.4410141E+00)
 number of electron     642.0000114 magnetization      37.8045133
 augmentation part      197.7898500 magnetization      27.6912121

 Broyden mixing:
  rms(total) = 0.13709E+01    rms(broyden)= 0.13709E+01
  rms(prec ) = 0.15346E+01
  weight for this iteration     100.00

 eigenvalues of (default mixing * dielectric matrix)
  average eigenvalue GAMMA=   0.8604
  2.2567  0.8649  0.2679  0.4775  0.4349

 Free energy of the ion-electron system (eV)
  ---------------------------------------------------
  alpha Z        PSCENC =      2023.78361127
  Ewald energy   TEWEN  =    124725.70623218
  -Hartree energ DENC   =   -175216.78458155
  -exchange      EXHF   =         0.00000000
  -V(xc)+E(xc)   XCENC  =       232.70936651
  PAW double counting   =     60623.12560199   -59025.47589070
  entropy T*S    EENTRO =         0.04407547
  eigenvalues    EBANDS =      -407.77854356
  atomic energy  EATOM  =     46688.37031544
  Solvation  Ediel_sol  =         0.00000000
  ---------------------------------------------------
  free energy    TOTEN  =      -356.29981296 eV

  energy without entropy =     -356.34388843  energy(sigma->0) =     -356.31450478


--------------------------------------------------------------------------------------------------------




--------------------------------------- Iteration      1(  11)  ---------------------------------------


    POTLOK:  cpu time    0.4674: real time    0.4689
    SETDIJ:  cpu time    0.0473: real time    0.0474
    EDDIAG:  cpu time    8.4196: real time    8.4396
  RMM-DIIS:  cpu time   29.8892: real time   29.9720
    ORTHCH:  cpu time    0.9239: real time    0.9313
       DOS:  cpu time    0.0021: real time    0.0021
    CHARGE:  cpu time    3.3352: real time    3.3439
    MIXING:  cpu time    0.0112: real time    0.0112
    --------------------------------------------
      LOOP:  cpu time   43.0960: real time   43.2166

 eigenvalue-minimisations  :  6756
 total energy-change (2. order) :-0.2792839E+01  (-0.1999366E+00)
 number of electron     642.0000115 magnetization      35.9626960
 augmentation part      197.5454902 magnetization      25.1188834

 Broyden mixing:
  rms(total) = 0.17304E+01    rms(broyden)= 0.17304E+01
  rms(prec ) = 0.24637E+01
  weight for this iteration     100.00

 eigenvalues of (default mixing * dielectric matrix)
  average eigenvalue GAMMA=   0.7992
  2.2913  1.0372  0.6205  0.3860  0.2683  0.1922

 Free energy of the ion-electron system (eV)
  ---------------------------------------------------
  alpha Z        PSCENC =      2023.78361127
  Ewald energy   TEWEN  =    124725.70623218
  -Hartree energ DENC   =   -175238.55872882
  -exchange      EXHF   =         0.00000000
  -V(xc)+E(xc)   XCENC  =       231.82739080
  PAW double counting   =     60764.20102654   -59167.77028831
  entropy T*S    EENTRO =         0.00509778
  eigenvalues    EBANDS =      -386.65730920
  atomic energy  EATOM  =     46688.37031544
  Solvation  Ediel_sol  =         0.00000000
  ---------------------------------------------------
  free energy    TOTEN  =      -359.09265231 eV

  energy without entropy =     -359.09775009  energy(sigma->0) =     -359.09435157


--------------------------------------------------------------------------------------------------------




--------------------------------------- Iteration      1(  12)  ---------------------------------------


    POTLOK:  cpu time    0.4517: real time    0.4528
    SETDIJ:  cpu time    0.0421: real time    0.0422
    EDDIAG:  cpu time    8.3199: real time    8.3397
  RMM-DIIS:  cpu time   29.7773: real time   29.8530
    ORTHCH:  cpu time    0.9127: real time    0.9185
       DOS:  cpu time    0.0022: real time    0.0022
    CHARGE:  cpu time    3.3194: real time    3.3291
    MIXING:  cpu time    0.0120: real time    0.0121
    --------------------------------------------
      LOOP:  cpu time   42.8374: real time   42.9496

 eigenvalue-minimisations  :  6751
 total energy-change (2. order) :-0.1659576E+01  (-0.1017973E+00)
 number of electron     642.0000115 magnetization      33.6369907
 augmentation part      197.3911663 magnetization      22.4737414

 Broyden mixing:
  rms(total) = 0.17107E+01    rms(broyden)= 0.17107E+01
  rms(prec ) = 0.25345E+01
  weight for this iteration     100.00

 eigenvalues of (default mixing * dielectric matrix)
  average eigenvalue GAMMA=   0.7489
  2.3162  1.2011  0.6988  0.3302  0.2992  0.2992  0.0974

 Free energy of the ion-electron system (eV)
  ---------------------------------------------------
  alpha Z        PSCENC =      2023.78361127
  Ewald energy   TEWEN  =    124725.70623218
  -Hartree energ DENC   =   -175255.36157088
  -exchange      EXHF   =         0.00000000
  -V(xc)+E(xc)   XCENC  =       230.96761434
  PAW double counting   =     60834.97098409   -59239.16984677
  entropy T*S    EENTRO =        -0.01023642
  eigenvalues    EBANDS =      -370.00933199
  atomic energy  EATOM  =     46688.37031544
  Solvation  Ediel_sol  =         0.00000000
  ---------------------------------------------------
  free energy    TOTEN  =      -360.75222875 eV

  energy without entropy =     -360.74199233  energy(sigma->0) =     -360.74881661


--------------------------------------------------------------------------------------------------------




--------------------------------------- Iteration      1(  13)  ---------------------------------------


    POTLOK:  cpu time    0.4507: real time    0.4559
    SETDIJ:  cpu time    0.0416: real time    0.0420
    EDDIAG:  cpu time    8.4773: real time    8.5031
  RMM-DIIS:  cpu time   29.8974: real time   29.9764
    ORTHCH:  cpu time    0.8958: real time    0.9440
       DOS:  cpu time    0.0023: real time    0.0023
    CHARGE:  cpu time    3.3039: real time    3.3117
    MIXING:  cpu time    0.0123: real time    0.0123
    --------------------------------------------
      LOOP:  cpu time   43.0813: real time   43.2476

 eigenvalue-minimisations  :  6754
 total energy-change (2. order) :-0.5864756E+00  (-0.1056793E+00)
 number of electron     642.0000114 magnetization      31.0486725
 augmentation part      197.2169391 magnetization      21.2096824

 Broyden mixing:
  rms(total) = 0.77994E+00    rms(broyden)= 0.77994E+00
  rms(prec ) = 0.85667E+00
  weight for this iteration     100.00

 eigenvalues of (default mixing * dielectric matrix)
  average eigenvalue GAMMA=   0.7423
  2.2636  1.4287  0.7984  0.3908  0.3908  0.3365  0.2363  0.0936

 Free energy of the ion-electron system (eV)
  ---------------------------------------------------
  alpha Z        PSCENC =      2023.78361127
  Ewald energy   TEWEN  =    124725.70623218
  -Hartree energ DENC   =   -175274.24667885
  -exchange      EXHF   =         0.00000000
  -V(xc)+E(xc)   XCENC  =       229.53520702
  PAW double counting   =     60884.90707187   -59289.57381043
  entropy T*S    EENTRO =        -0.00255227
  eigenvalues    EBANDS =      -349.81810061
  atomic energy  EATOM  =     46688.37031544
  Solvation  Ediel_sol  =         0.00000000
  ---------------------------------------------------
  free energy    TOTEN  =      -361.33870438 eV

  energy without entropy =     -361.33615211  energy(sigma->0) =     -361.33785362


--------------------------------------------------------------------------------------------------------




--------------------------------------- Iteration      1(  14)  ---------------------------------------


    POTLOK:  cpu time    0.4503: real time    0.4563
    SETDIJ:  cpu time    0.0419: real time    0.0420
    EDDIAG:  cpu time    8.3099: real time    8.3348
  RMM-DIIS:  cpu time   29.8319: real time   29.9270
    ORTHCH:  cpu time    0.9162: real time    0.9228
       DOS:  cpu time    0.0022: real time    0.0071
    CHARGE:  cpu time    3.2735: real time    3.2833
    MIXING:  cpu time    0.0127: real time    0.0128
    --------------------------------------------
      LOOP:  cpu time   42.8387: real time   42.9861

 eigenvalue-minimisations  :  6749
 total energy-change (2. order) :-0.2241392E+01  (-0.8035829E-01)
 number of electron     642.0000114 magnetization      25.5745511
 augmentation part      197.1645596 magnetization      16.1680593

 Broyden mixing:
  rms(total) = 0.66542E+00    rms(broyden)= 0.66542E+00
  rms(prec ) = 0.70714E+00
  weight for this iteration     100.00

 eigenvalues of (default mixing * dielectric matrix)
  average eigenvalue GAMMA=   0.7683
  2.0322  2.0322  0.9420  0.5776  0.3682  0.3682  0.2684  0.2327  0.0935

 Free energy of the ion-electron system (eV)
  ---------------------------------------------------
  alpha Z        PSCENC =      2023.78361127
  Ewald energy   TEWEN  =    124725.70623218
  -Hartree energ DENC   =   -175274.72821370
  -exchange      EXHF   =         0.00000000
  -V(xc)+E(xc)   XCENC  =       228.16549402
  PAW double counting   =     60784.32330557   -59188.42013879
  entropy T*S    EENTRO =         0.01557664
  eigenvalues    EBANDS =      -350.79627860
  atomic energy  EATOM  =     46688.37031544
  Solvation  Ediel_sol  =         0.00000000
  ---------------------------------------------------
  free energy    TOTEN  =      -363.58009599 eV

  energy without entropy =     -363.59567262  energy(sigma->0) =     -363.58528820


--------------------------------------------------------------------------------------------------------




--------------------------------------- Iteration      1(  15)  ---------------------------------------


    POTLOK:  cpu time    0.4505: real time    0.4554
    SETDIJ:  cpu time    0.0419: real time    0.0420
    EDDIAG:  cpu time    8.4143: real time    8.4397
  RMM-DIIS:  cpu time   29.9347: real time   30.0297
    ORTHCH:  cpu time    1.0116: real time    1.0185
       DOS:  cpu time    0.0021: real time    0.0021
    CHARGE:  cpu time    3.3333: real time    3.3425
    MIXING:  cpu time    0.0135: real time    0.0135
    --------------------------------------------
      LOOP:  cpu time   43.2019: real time   43.3435

 eigenvalue-minimisations  :  6743
 total energy-change (2. order) :-0.3921412E+01  (-0.1815526E+00)
 number of electron     642.0000114 magnetization      20.9819783
 augmentation part      197.1797670 magnetization      12.5482375

 Broyden mixing:
  rms(total) = 0.50754E+00    rms(broyden)= 0.50754E+00
  rms(prec ) = 0.55264E+00
  weight for this iteration     100.00

 eigenvalues of (default mixing * dielectric matrix)
  average eigenvalue GAMMA=   0.8647
  2.5355  2.5355  1.0402  0.7411  0.4407  0.4407  0.3269  0.2666  0.2268  0.0935

 Free energy of the ion-electron system (eV)
  ---------------------------------------------------
  alpha Z        PSCENC =      2023.78361127
  Ewald energy   TEWEN  =    124725.70623218
  -Hartree energ DENC   =   -175266.76396364
  -exchange      EXHF   =         0.00000000
  -V(xc)+E(xc)   XCENC  =       225.61798616
  PAW double counting   =     60563.82853737   -58966.80894533
  entropy T*S    EENTRO =         0.00937402
  eigenvalues    EBANDS =      -361.24465499
  atomic energy  EATOM  =     46688.37031544
  Solvation  Ediel_sol  =         0.00000000
  ---------------------------------------------------
  free energy    TOTEN  =      -367.50150752 eV

  energy without entropy =     -367.51088154  energy(sigma->0) =     -367.50463220


--------------------------------------------------------------------------------------------------------




--------------------------------------- Iteration      1(  16)  ---------------------------------------


    POTLOK:  cpu time    0.4521: real time    0.4569
    SETDIJ:  cpu time    0.0423: real time    0.0424
    EDDIAG:  cpu time    8.2869: real time    8.3115
  RMM-DIIS:  cpu time   29.9573: real time   30.0475
    ORTHCH:  cpu time    0.9004: real time    0.9359
       DOS:  cpu time    0.0023: real time    0.0023
    CHARGE:  cpu time    3.2968: real time    3.3070
    MIXING:  cpu time    0.0147: real time    0.0147
    --------------------------------------------
      LOOP:  cpu time   42.9528: real time   43.1181

 eigenvalue-minimisations  :  6749
 total energy-change (2. order) :-0.2612902E+01  (-0.1422247E+00)
 number of electron     642.0000115 magnetization      17.8269421
 augmentation part      197.1747597 magnetization       9.8830416

 Broyden mixing:
  rms(total) = 0.35656E+00    rms(broyden)= 0.35656E+00
  rms(prec ) = 0.39801E+00
  weight for this iteration     100.00

 eigenvalues of (default mixing * dielectric matrix)
  average eigenvalue GAMMA=   0.9316
  3.7126  2.3961  1.1245  0.8154  0.4559  0.4559  0.3741  0.3319  0.2645  0.2234
  0.0935

 Free energy of the ion-electron system (eV)
  ---------------------------------------------------
  alpha Z        PSCENC =      2023.78361127
  Ewald energy   TEWEN  =    124725.70623218
  -Hartree energ DENC   =   -175268.12714253
  -exchange      EXHF   =         0.00000000
  -V(xc)+E(xc)   XCENC  =       223.74972095
  PAW double counting   =     60508.59695102   -58911.66360877
  entropy T*S    EENTRO =         0.01322807
  eigenvalues    EBANDS =      -360.54371717
  atomic energy  EATOM  =     46688.37031544
  Solvation  Ediel_sol  =         0.00000000
  ---------------------------------------------------
  free energy    TOTEN  =      -370.11440953 eV

  energy without entropy =     -370.12763760  energy(sigma->0) =     -370.11881889


--------------------------------------------------------------------------------------------------------




--------------------------------------- Iteration      1(  17)  ---------------------------------------


    POTLOK:  cpu time    0.4510: real time    0.4523
    SETDIJ:  cpu time    0.0425: real time    0.0426
    EDDIAG:  cpu time    8.2791: real time    8.3039
  RMM-DIIS:  cpu time   29.9320: real time   30.0115
    ORTHCH:  cpu time    0.9209: real time    0.9271
       DOS:  cpu time    0.0023: real time    0.0023
    CHARGE:  cpu time    3.3071: real time    3.3150
    MIXING:  cpu time    0.0159: real time    0.0159
    --------------------------------------------
      LOOP:  cpu time   42.9509: real time   43.0707

 eigenvalue-minimisations  :  6737
 total energy-change (2. order) :-0.1258418E+01  (-0.7617303E-01)
 number of electron     642.0000115 magnetization      16.2586611
 augmentation part      197.1722577 magnetization       8.8261498

 Broyden mixing:
  rms(total) = 0.27730E+00    rms(broyden)= 0.27730E+00
  rms(prec ) = 0.30402E+00
  weight for this iteration     100.00

 eigenvalues of (default mixing * dielectric matrix)
  average eigenvalue GAMMA=   1.0358
  5.1307  2.3117  1.0864  1.0864  0.6591  0.5334  0.3825  0.3825  0.2962  0.2446
  0.2229  0.0935

 Free energy of the ion-electron system (eV)
  ---------------------------------------------------
  alpha Z        PSCENC =      2023.78361127
  Ewald energy   TEWEN  =    124725.70623218
  -Hartree energ DENC   =   -175262.81753699
  -exchange      EXHF   =         0.00000000
  -V(xc)+E(xc)   XCENC  =       222.75474049
  PAW double counting   =     60496.71130885   -58899.89731876
  entropy T*S    EENTRO =         0.00300618
  eigenvalues    EBANDS =      -365.98718624
  atomic energy  EATOM  =     46688.37031544
  Solvation  Ediel_sol  =         0.00000000
  ---------------------------------------------------
  free energy    TOTEN  =      -371.37282758 eV

  energy without entropy =     -371.37583376  energy(sigma->0) =     -371.37382964


--------------------------------------------------------------------------------------------------------




--------------------------------------- Iteration      1(  18)  ---------------------------------------


    POTLOK:  cpu time    0.4690: real time    0.4701
    SETDIJ:  cpu time    0.0535: real time    0.0536
    EDDIAG:  cpu time    8.3246: real time    8.3446
  RMM-DIIS:  cpu time   29.9801: real time   30.0533
    ORTHCH:  cpu time    0.9184: real time    0.9251
       DOS:  cpu time    0.0023: real time    0.0023
    CHARGE:  cpu time    3.2550: real time    3.2645
    MIXING:  cpu time    0.0148: real time    0.0148
    --------------------------------------------
      LOOP:  cpu time   43.0175: real time   43.1283

 eigenvalue-minimisations  :  6746
 total energy-change (2. order) :-0.5307420E+00  (-0.2946407E-01)
 number of electron     642.0000115 magnetization      15.2773090
 augmentation part      197.1611444 magnetization       8.2578170

 Broyden mixing:
  rms(total) = 0.21353E+00    rms(broyden)= 0.21353E+00
  rms(prec ) = 0.23411E+00
  weight for this iteration     100.00

 eigenvalues of (default mixing * dielectric matrix)
  average eigenvalue GAMMA=   1.0417
  5.6354  2.2817  1.1970  1.1970  0.6342  0.6342  0.3755  0.3755  0.3498  0.2941
  0.2513  0.2230  0.0935

 Free energy of the ion-electron system (eV)
  ---------------------------------------------------
  alpha Z        PSCENC =      2023.78361127
  Ewald energy   TEWEN  =    124725.70623218
  -Hartree energ DENC   =   -175253.93659371
  -exchange      EXHF   =         0.00000000
  -V(xc)+E(xc)   XCENC  =       222.27325694
  PAW double counting   =     60515.81749981   -58919.02736001
  entropy T*S    EENTRO =        -0.00382909
  eigenvalues    EBANDS =      -374.88670238
  atomic energy  EATOM  =     46688.37031544
  Solvation  Ediel_sol  =         0.00000000
  ---------------------------------------------------
  free energy    TOTEN  =      -371.90356955 eV

  energy without entropy =     -371.89974047  energy(sigma->0) =     -371.90229319


--------------------------------------------------------------------------------------------------------




--------------------------------------- Iteration      1(  19)  ---------------------------------------


    POTLOK:  cpu time    0.4515: real time    0.4527
    SETDIJ:  cpu time    0.0427: real time    0.0428
    EDDIAG:  cpu time    8.3165: real time    8.3419
  RMM-DIIS:  cpu time   29.9494: real time   30.0277
    ORTHCH:  cpu time    0.9227: real time    0.9283
       DOS:  cpu time    0.0023: real time    0.0023
    CHARGE:  cpu time    3.2563: real time    3.2641
    MIXING:  cpu time    0.0146: real time    0.0146
    --------------------------------------------
      LOOP:  cpu time   42.9559: real time   43.0744

 eigenvalue-minimisations  :  6748
 total energy-change (2. order) :-0.1660046E+00  (-0.1071496E-01)
 number of electron     642.0000115 magnetization      13.9783591
 augmentation part      197.1740502 magnetization       7.1873810

 Broyden mixing:
  rms(total) = 0.17780E+00    rms(broyden)= 0.17780E+00
  rms(prec ) = 0.19922E+00
  weight for this iteration     100.00

 eigenvalues of (default mixing * dielectric matrix)
  average eigenvalue GAMMA=   1.0769
  6.3590  2.2282  1.3322  1.3322  0.7555  0.7555  0.4195  0.4195  0.3713  0.0935
  0.3017  0.2580  0.2207  0.2300

 Free energy of the ion-electron system (eV)
  ---------------------------------------------------
  alpha Z        PSCENC =      2023.78361127
  Ewald energy   TEWEN  =    124725.70623218
  -Hartree energ DENC   =   -175243.38289848
  -exchange      EXHF   =         0.00000000
  -V(xc)+E(xc)   XCENC  =       222.03481410
  PAW double counting   =     60530.35845365   -58933.59746477
  entropy T*S    EENTRO =        -0.00460103
  eigenvalues    EBANDS =      -385.33803646
  atomic energy  EATOM  =     46688.37031544
  Solvation  Ediel_sol  =         0.00000000
  ---------------------------------------------------
  free energy    TOTEN  =      -372.06957410 eV

  energy without entropy =     -372.06497307  energy(sigma->0) =     -372.06804043


--------------------------------------------------------------------------------------------------------




--------------------------------------- Iteration      1(  20)  ---------------------------------------


    POTLOK:  cpu time    0.4524: real time    0.4569
    SETDIJ:  cpu time    0.0423: real time    0.0424
    EDDIAG:  cpu time    8.5670: real time    8.5873
  RMM-DIIS:  cpu time   30.2685: real time   30.3448
    ORTHCH:  cpu time    0.9364: real time    0.9431
       DOS:  cpu time    0.0023: real time    0.0024
    CHARGE:  cpu time    3.3054: real time    3.3133
    MIXING:  cpu time    0.0152: real time    0.0152
    --------------------------------------------
      LOOP:  cpu time   43.5895: real time   43.7054

 eigenvalue-minimisations  :  6744
 total energy-change (2. order) :-0.6357172E-01  (-0.8059213E-02)
 number of electron     642.0000115 magnetization      12.9684345
 augmentation part      197.2224448 magnetization       6.5021824

 Broyden mixing:
  rms(total) = 0.14455E+00    rms(broyden)= 0.14455E+00
  rms(prec ) = 0.16407E+00
  weight for this iteration     100.00

 eigenvalues of (default mixing * dielectric matrix)
  average eigenvalue GAMMA=   1.1073
  6.9641  1.9849  1.9849  1.2870  0.8422  0.8422  0.4520  0.4520  0.3947  0.0935
  0.3381  0.2995  0.2469  0.2225  0.2051

 Free energy of the ion-electron system (eV)
  ---------------------------------------------------
  alpha Z        PSCENC =      2023.78361127
  Ewald energy   TEWEN  =    124725.70623218
  -Hartree energ DENC   =   -175226.92568644
  -exchange      EXHF   =         0.00000000
  -V(xc)+E(xc)   XCENC  =       221.80689781
  PAW double counting   =     60544.75690768   -58948.06029701
  entropy T*S    EENTRO =        -0.01322021
  eigenvalues    EBANDS =      -401.55790655
  atomic energy  EATOM  =     46688.37031544
  Solvation  Ediel_sol  =         0.00000000
  ---------------------------------------------------
  free energy    TOTEN  =      -372.13314583 eV

  energy without entropy =     -372.11992561  energy(sigma->0) =     -372.12873909


--------------------------------------------------------------------------------------------------------




--------------------------------------- Iteration      1(  21)  ---------------------------------------


    POTLOK:  cpu time    0.4620: real time    0.4669
    SETDIJ:  cpu time    0.0436: real time    0.0437
    EDDIAG:  cpu time    8.4022: real time    8.4221
  RMM-DIIS:  cpu time   30.2863: real time   30.3632
    ORTHCH:  cpu time    0.9346: real time    0.9412
       DOS:  cpu time    0.0024: real time    0.0061
    CHARGE:  cpu time    3.2670: real time    3.2748
    MIXING:  cpu time    0.0163: real time    0.0164
    --------------------------------------------
      LOOP:  cpu time   43.4145: real time   43.5342

 eigenvalue-minimisations  :  6746
 total energy-change (2. order) :-0.8016971E-01  (-0.3902759E-02)
 number of electron     642.0000115 magnetization      12.4518037
 augmentation part      197.2549790 magnetization       6.1952120

 Broyden mixing:
  rms(total) = 0.78742E-01    rms(broyden)= 0.78742E-01
  rms(prec ) = 0.90362E-01
  weight for this iteration     100.00

 eigenvalues of (default mixing * dielectric matrix)
  average eigenvalue GAMMA=   1.1360
  7.5100  2.2235  2.2235  1.2859  0.8579  0.8579  0.6065  0.4425  0.4425  0.0935
  0.3364  0.3364  0.2876  0.2473  0.2234  0.2004

 Free energy of the ion-electron system (eV)
  ---------------------------------------------------
[...]
   -.571E+01 0.153E+01 0.231E+04   0.579E+01 -.147E+01 -.231E+04   -.210E-01 -.517E-01 -.572E-02   -.100E-01 -.520E-02 -.127E-01
   -.150E+01 0.933E+00 0.750E+03   0.158E+01 -.984E+00 -.749E+03   -.857E-01 0.502E-01 -.707E+00   -.533E-02 0.347E-02 -.178E-01
   -.152E+00 -.363E+01 -.806E+03   0.264E+00 0.392E+01 0.805E+03   -.993E-01 -.290E+00 0.306E+00   -.108E-01 0.307E-02 0.845E-02
   0.167E+02 0.169E+01 -.228E+04   -.167E+02 -.171E+01 0.228E+04   -.421E-01 0.222E-01 0.262E-02   0.991E-02 -.498E-02 -.812E-02
   0.453E+00 -.466E+01 0.230E+04   -.419E+00 0.472E+01 -.230E+04   -.319E-01 -.895E-02 -.326E-01   -.587E-02 -.552E-02 -.140E-01
   -.694E+01 0.362E+01 0.791E+03   0.704E+01 -.367E+01 -.790E+03   -.903E-01 0.532E-01 -.234E+00   -.106E-01 0.966E-03 -.643E-02
   0.876E+00 0.152E+01 -.747E+03   -.904E+00 -.150E+01 0.747E+03   0.381E-01 -.243E-01 0.445E+00   0.117E-02 0.609E-03 0.217E-01
   0.161E+02 0.302E+02 -.235E+04   -.169E+02 -.319E+02 0.235E+04   0.872E+00 0.164E+01 0.159E+01   -.701E-02 0.106E-01 0.292E-01
   0.206E+01 -.552E+01 0.231E+04   -.212E+01 0.549E+01 -.231E+04   0.262E-01 0.448E-01 -.110E+00   0.171E-02 -.102E-01 -.135E-01
   -.380E+01 -.288E+01 0.766E+03   0.391E+01 0.296E+01 -.765E+03   -.107E+00 -.839E-01 -.522E+00   -.103E-01 -.806E-02 -.120E-01
   0.690E+01 -.324E+01 -.821E+03   -.709E+01 0.334E+01 0.821E+03   0.181E+00 -.997E-01 0.913E-01   -.606E-02 0.442E-02 0.430E-02
   -.730E+01 0.177E+02 -.229E+04   0.722E+01 -.176E+02 0.229E+04   0.854E-01 -.488E-01 0.807E-01   -.641E-02 0.137E-01 0.871E-02
   -.880E+00 0.633E+00 0.231E+04   0.869E+00 -.617E+00 -.231E+04   0.125E-01 -.357E-01 -.127E+00   0.684E-02 -.430E-02 -.136E-01
   -.264E+01 0.119E+00 0.784E+03   0.269E+01 -.965E-01 -.784E+03   -.528E-01 -.194E-01 -.391E+00   -.729E-03 -.416E-02 -.113E-01
   -.909E+00 -.139E+01 -.747E+03   0.878E+00 0.141E+01 0.747E+03   0.383E-01 -.184E-01 0.442E+00   -.918E-03 -.177E-02 0.217E-01
   -.643E+00 0.218E+01 -.230E+04   0.683E+00 -.222E+01 0.230E+04   -.422E-01 0.416E-01 0.744E-01   0.843E-02 -.851E-03 0.334E-01
   0.619E+01 -.359E+01 0.231E+04   -.628E+01 0.365E+01 -.231E+04   0.171E-01 -.967E-02 0.199E-02   0.933E-02 -.487E-02 -.161E-01
   0.836E+00 0.259E+00 0.791E+03   -.870E+00 -.267E+00 -.791E+03   0.333E-01 0.285E-02 -.430E+00   0.684E-02 0.185E-02 -.974E-02
   0.500E+00 -.310E+00 -.768E+03   -.571E+00 0.352E+00 0.767E+03   0.539E-01 -.335E-01 0.449E+00   0.987E-02 -.553E-02 0.227E-01
   -.194E+02 0.111E+02 -.223E+04   0.197E+02 -.113E+02 0.223E+04   -.293E+00 0.164E+00 0.105E+00   -.138E-01 0.633E-02 0.991E-02
   -.933E+00 0.418E+00 0.231E+04   0.915E+00 -.420E+00 -.231E+04   0.368E-01 0.914E-02 -.130E+00   0.652E-02 -.381E-02 -.135E-01
   0.786E+01 -.156E+01 0.773E+03   -.796E+01 0.160E+01 -.773E+03   0.899E-01 -.530E-01 -.331E+00   0.849E-02 0.542E-02 -.129E-01
   -.112E+01 0.212E+00 -.760E+03   0.111E+01 -.257E+00 0.760E+03   -.193E-02 0.444E-01 0.429E+00   -.108E-02 -.127E-02 0.179E-01
   -.237E+01 -.664E+00 -.230E+04   0.242E+01 0.651E+00 0.230E+04   -.526E-01 0.183E-01 0.798E-01   0.568E-02 -.908E-02 0.328E-01
   -.353E+00 0.270E+00 0.231E+04   0.383E+00 -.286E+00 -.231E+04   -.365E-01 0.203E-01 -.113E+00   -.192E-02 0.416E-03 -.116E-01
   0.144E+01 -.821E+00 0.797E+03   -.151E+01 0.864E+00 -.796E+03   0.664E-01 -.387E-01 -.253E+00   0.125E-01 -.675E-02 -.565E-02
   0.879E+00 -.378E+00 -.758E+03   -.818E+00 0.428E+00 0.758E+03   -.587E-01 -.490E-01 0.383E+00   0.936E-02 -.768E-02 0.163E-01
   0.179E+01 -.122E+01 -.230E+04   -.178E+01 0.122E+01 0.230E+04   -.197E-01 0.119E-01 0.924E-01   0.520E-02 -.747E-03 0.159E-01
   -.166E+01 0.274E+01 0.231E+04   0.161E+01 -.272E+01 -.231E+04   0.179E-01 -.392E-01 -.190E+00   -.296E-02 0.880E-03 -.129E-01
   -.654E+01 0.412E+01 0.791E+03   0.663E+01 -.418E+01 -.790E+03   -.913E-01 0.514E-01 -.243E+00   -.577E-02 0.895E-02 -.803E-02
   -.533E+00 -.178E+00 -.750E+03   0.502E+00 0.216E+00 0.749E+03   0.280E-01 -.352E-01 0.373E+00   -.199E-02 0.146E-02 0.144E-01
   0.493E+01 -.546E+01 -.229E+04   -.496E+01 0.540E+01 0.229E+04   0.250E-01 0.666E-01 0.698E-01   0.123E-01 -.109E-01 0.568E-01
   0.309E+01 -.164E+01 0.231E+04   -.302E+01 0.160E+01 -.231E+04   -.835E-01 0.463E-01 -.184E+00   0.486E-03 -.789E-03 -.113E-01
   0.140E+00 -.828E+00 0.791E+03   -.151E+00 0.858E+00 -.791E+03   0.131E-01 -.275E-01 -.428E+00   0.301E-02 -.692E-02 -.105E-01
   0.144E+01 -.100E+01 -.740E+03   -.139E+01 0.972E+00 0.739E+03   -.573E-01 0.345E-01 0.563E+00   0.122E-01 -.560E-02 0.274E-01
   -.334E+01 0.190E+01 -.227E+04   0.333E+01 -.190E+01 0.227E+04   0.124E-01 -.743E-02 -.991E-02   -.931E-02 0.667E-02 0.458E-01
   -.326E+01 0.982E-01 0.231E+04   0.322E+01 -.696E-01 -.231E+04   0.421E-01 0.421E-02 -.191E+00   -.147E-02 0.205E-02 -.128E-01
   0.940E+00 -.618E+01 0.786E+03   -.961E+00 0.629E+01 -.786E+03   0.247E-01 -.944E-01 -.254E+00   -.328E-02 -.912E-02 -.100E-01
   -.471E+01 0.405E+01 -.799E+03   0.488E+01 -.418E+01 0.799E+03   -.167E+00 0.152E+00 0.161E+00   0.201E-02 -.400E-03 0.139E-01
   0.731E+01 -.137E+01 -.229E+04   -.727E+01 0.144E+01 0.229E+04   -.475E-01 -.598E-01 0.742E-01   0.139E-01 -.597E-02 0.558E-01
   -.846E+01 0.482E+01 0.231E+04   0.854E+01 -.487E+01 -.231E+04   0.121E-01 -.650E-02 -.705E-01   -.818E-02 0.569E-02 -.139E-01
   0.118E-02 -.446E-01 0.799E+03   0.135E-01 0.358E-01 -.799E+03   -.132E-01 0.907E-02 -.240E+00   -.170E-02 0.109E-02 -.315E-02
   0.110E+01 -.565E+00 -.759E+03   -.112E+01 0.488E+00 0.758E+03   0.183E-01 0.761E-01 0.387E+00   0.107E-01 -.335E-02 0.161E-01
   0.227E+02 -.129E+02 -.226E+04   -.231E+02 0.131E+02 0.226E+04   0.362E+00 -.203E+00 0.207E+00   0.143E-01 -.898E-02 0.991E-03
   0.423E+01 0.184E+01 0.230E+04   -.427E+01 -.190E+01 -.230E+04   -.828E-02 0.330E-01 -.329E-01   0.230E-02 0.912E-02 -.135E-01
   0.589E+01 0.228E+01 0.786E+03   -.600E+01 -.232E+01 -.786E+03   0.976E-01 0.301E-01 -.269E+00   0.489E-02 0.631E-02 -.108E-01
   -.849E+00 0.642E+00 -.760E+03   0.887E+00 -.608E+00 0.760E+03   -.429E-01 -.249E-01 0.430E+00   0.134E-02 0.269E-02 0.183E-01
   -.186E+02 -.278E+02 -.234E+04   0.195E+02 0.293E+02 0.234E+04   -.912E+00 -.160E+01 0.156E+01   -.144E-01 0.536E-03 0.491E-02
   -.423E+01 0.420E+01 0.231E+04   0.421E+01 -.429E+01 -.231E+04   0.346E-01 0.448E-01 -.355E-02   -.379E-04 0.107E-01 -.123E-01
   0.123E+00 -.533E-01 0.799E+03   -.115E+00 0.464E-01 -.799E+03   -.120E-01 0.112E-01 -.326E+00   -.271E-02 0.827E-03 -.517E-02
   0.247E+01 0.170E+01 -.806E+03   -.265E+01 -.194E+01 0.806E+03   0.195E+00 0.224E+00 0.297E+00   -.965E-02 0.628E-02 0.381E-02
   0.709E+01 -.155E+02 -.228E+04   -.705E+01 0.155E+02 0.228E+04   -.425E-01 0.178E-01 0.106E-01   0.739E-02 -.510E-02 -.106E-01
   0.441E+01 0.359E+01 0.231E+04   -.443E+01 -.364E+01 -.231E+04   -.343E-02 0.157E-02 -.693E-01   0.102E-02 0.758E-02 -.117E-01
   -.138E+01 0.223E+01 0.784E+03   0.139E+01 -.228E+01 -.783E+03   -.108E-01 0.584E-01 -.385E+00   0.298E-02 0.316E-02 -.110E-01
   -.889E-01 0.440E+00 -.750E+03   0.411E-01 -.430E+00 0.749E+03   0.446E-01 -.880E-02 0.370E+00   -.842E-03 0.477E-03 0.156E-01
   -.111E+02 -.136E+02 -.229E+04   0.111E+02 0.134E+02 0.229E+04   0.108E+00 0.151E+00 0.212E-01   -.155E-01 0.665E-02 0.119E-01
   0.583E+01 0.838E+00 0.231E+04   -.584E+01 -.771E+00 -.231E+04   -.257E-01 -.442E-01 -.107E+00   0.883E-02 0.414E-02 -.132E-01
   0.474E+00 0.469E+01 0.765E+03   -.490E+00 -.483E+01 -.765E+03   0.153E-01 0.135E+00 -.524E+00   0.195E-02 0.126E-01 -.160E-01
   0.315E+00 -.293E+00 -.737E+03   -.316E+00 0.295E+00 0.736E+03   0.311E-02 -.276E-02 0.431E+00   -.985E-02 0.677E-02 0.210E-01
   -.190E+02 -.239E+01 -.229E+04   0.190E+02 0.244E+01 0.229E+04   0.928E-01 -.489E-01 0.945E-01   -.152E-01 -.189E-02 0.699E-02
   0.170E+02 -.111E+02 -.270E+03   -.200E+02 0.131E+02 0.271E+03   0.311E+01 -.204E+01 -.465E+00   -.416E-03 -.571E-03 -.153E-02
   -.180E+02 0.109E+02 -.270E+03   0.210E+02 -.129E+02 0.271E+03   -.313E+01 0.203E+01 -.484E+00   -.148E-02 0.542E-04 -.130E-02
 -----------------------------------------------------------------------------------------------
   0.833E-01 -.330E-01 -.169E+01   0.924E-13 0.714E-12 0.426E-11   -.930E-01 0.432E-01 0.150E+01   -.119E-01 0.749E-02 0.187E+00
 
 
 POSITION                                       TOTAL-FORCE (eV/Angst)
 -----------------------------------------------------------------------------------
     10.55998      0.00001      1.11585         0.030677      0.039152      0.003617
      2.63544      1.53007      3.56833         0.000428      0.000832      0.004275
      0.00836      3.04362      6.01145        -0.002133      0.001639      0.019741
      0.00184      0.00130      8.37090         0.000643      0.001280      0.003438
      9.23998      2.28632      1.11585         0.046960      0.004305      0.069675
      1.32410      3.80822      3.61814         0.002692     -0.001686      0.004665
      1.32469      0.78570      6.01849        -0.002307      0.001607      0.008705
      9.23931      2.28205      8.36413         0.002034     -0.001359      0.020296
      1.31998      2.28632      1.11585        -0.000696      0.043533      0.088924
     -1.31290      3.80643      3.53877         0.001322      0.000058      0.003990
      3.95725      0.76334      5.92288        -0.000370      0.003139      0.002860
      1.31582      2.27455      8.67240         0.007102      0.001330      0.013116
      2.63998      0.00001      1.11585        -0.036860      0.009265     -0.025364
      0.00734      1.52910      3.58645         0.001562      0.001106      0.006744
      2.62587      3.05751      6.03547        -0.000091     -0.001404      0.004614
     -2.63664      9.14132      8.38473         0.001210     -0.000767      0.011002
      5.27998      0.00001      1.11585         0.006699     -0.022461     -0.049439
      7.92154      1.52407      3.55367         0.001841      0.000829     -0.001374
      5.27856      3.05197      5.92328        -0.005047      0.000065      0.002065
      0.00294      9.14320      8.38640         0.003352     -0.002188     -0.016459
      3.95998      2.28632      1.11585        -0.068453      0.037862      0.031996
      6.59845      3.80996      3.53859        -0.002079     -0.001233     -0.007680
      6.59566      0.76578      5.94972        -0.000672     -0.000830     -0.011504
      3.97007      2.28188      8.31386         0.000641      0.002205      0.005715
      6.59998      2.28632      1.11585         0.022136      0.004103     -0.050813
      3.95263      3.81153      3.56817         0.000401      0.000585      0.004722
      9.23966      0.76054      5.94490         0.002176      0.006243      0.009866
      6.60431      2.28681      8.38775         0.001358     -0.003308     -0.013668
      7.91998      0.00001      1.11585        -0.003310      0.001149     -0.020599
      5.27736      1.52575      3.52887        -0.002639      0.001387     -0.000736
      7.92239      3.05198      5.93619         0.004885     -0.003958     -0.006520
      7.92058      0.00127      8.37999         0.001033      0.003007      0.007169
      7.91998      4.57263      1.11585        -0.031467     -0.018782     -0.101881
      0.00715      6.09289      3.53910        -0.000205     -0.001379      0.002229
     -2.64175      7.62813      5.92195        -0.003070      0.000989     -0.020035
     -2.63971      4.57463      8.36205         0.002617     -0.001004     -0.035587
      6.59998      6.85894      1.11585        -0.011547      0.002920     -0.055609
     -1.32026      8.38471      3.53849         0.000095      0.001535     -0.005429
     -1.31739      5.33411      5.90707         0.004402      0.001278     -0.010768
      6.60017      6.86030      8.30762         0.002058     -0.000549     -0.021960
     -1.32002      6.85894      1.11585         0.003716      0.035738     -0.102294
     -3.96114      8.39173      3.54221        -0.000374      0.002850     -0.001901
      1.32844      5.33168      6.01006        -0.001706     -0.001204      0.012642
     -1.32030      6.85962      8.36812         0.001032      0.000013     -0.038668
     -0.00002      4.57263      1.11585         0.089212     -0.052110      0.053726
     -2.64138      6.09747      3.51954         0.001890      0.000136     -0.014750
     -0.00153      7.61869      5.93698         0.005539     -0.000264     -0.005854
     -0.00610      4.57688      8.36452         0.001766     -0.001807      0.024830
      2.63998      4.57263      1.11585        -0.036852     -0.021140      0.091668
      5.27181      6.09317      3.54402        -0.001704     -0.000928     -0.003710
      2.64237      7.62397      5.94581        -0.003956     -0.003444      0.010643
      2.64689      4.58510      8.65466         0.000604     -0.003744     -0.004520
      1.31998      6.85894      1.11585         0.018210     -0.043262      0.071156
      3.95691      8.38477      3.52898        -0.000376      0.001408      0.002401
      3.94258      5.32121      6.02115        -0.000356     -0.000159      0.006308
      1.32450      6.86426      8.36294         0.000591      0.002118      0.023663
      3.95998      6.85894      1.11585        -0.019447     -0.047790      0.006700
      1.32099      8.38171      3.55408        -0.001689     -0.001060     -0.001190
      6.59335      5.33413      5.92226        -0.000666      0.002053     -0.021642
      3.96173      6.86057      8.37654         0.003593     -0.000731      0.007984
      5.27998      4.57263      1.11585        -0.025899      0.029420     -0.022645
      2.63963      6.08798      3.58711        -0.001007     -0.002628      0.004672
      5.27526      7.62463      5.90276        -0.001073      0.002147     -0.000176
      5.28599      4.57395      8.38639         0.002912      0.000261      0.010826
      1.63675      3.66301     10.30249         0.019060      0.028915      0.008151
      2.33295      3.19758     10.30541        -0.030399     -0.035285      0.007981
 -----------------------------------------------------------------------------------
    total drift:                               -0.021603      0.017673      0.003657


--------------------------------------------------------------------------------------------------------



  FREE ENERGIE OF THE ION-ELECTRON SYSTEM (eV)
  ---------------------------------------------------
  free  energy   TOTEN  =      -411.50946551 eV

  energy  without entropy=     -411.46995473  energy(sigma->0) =     -411.49629525
 
 d Force = 0.1457081E-02[ 0.130E-02, 0.161E-02]  d Energy = 0.1169701E-02 0.287E-03
 d Force =-0.6969143E+01[-0.692E+01,-0.702E+01]  d Ewald  =-0.6969148E+01 0.560E-05


--------------------------------------------------------------------------------------------------------


    POTLOK:  cpu time    0.4939: real time    0.5088


--------------------------------------------------------------------------------------------------------


 NEB: the previous image is higher in energy: F
 NEB: the next image is higher in energy    : F
 NEB: image is at an extrema
 NEB: diff energy (min, max):     0.336435    0.605483

 NEB: Tangent
 ----------------------------------------------
      0.00000      0.00000      0.00000
      0.00302     -0.00482     -0.01627
     -0.01517      0.00448     -0.05820
     -0.00882     -0.00857      0.01266
      0.00000      0.00000      0.00000
     -0.00325      0.00194     -0.06497
     -0.00630     -0.01848     -0.04401
     -0.00781      0.00377      0.01514
      0.00000      0.00000      0.00000
     -0.00520      0.00179      0.00417
      0.00221     -0.00328      0.01058
     -0.00029      0.01437     -0.35350
      0.00000      0.00000      0.00000
     -0.00604     -0.00424     -0.02590
      0.00890     -0.00558     -0.07750
      0.00024      0.00131      0.00969
      0.00000      0.00000      0.00000
     -0.00130     -0.00031     -0.00036
      0.00411      0.00008      0.01116
     -0.00278      0.00143      0.00548
      0.00000      0.00000      0.00000
      0.00140     -0.00087      0.00733
      0.00184     -0.00080      0.00620
     -0.00179     -0.00046      0.01753
      0.00000      0.00000      0.00000
      0.00560     -0.00015     -0.01568
     -0.00571      0.00173      0.00659
     -0.00303      0.00004      0.00692
      0.00000      0.00000      0.00000
      0.00264     -0.00126      0.01133
     -0.00510      0.00059      0.00956
     -0.00496      0.00115      0.02143
      0.00000      0.00000      0.00000
     -0.00395      0.00382      0.00431
     -0.00226     -0.00246      0.01409
     -0.00411      0.00159      0.01319
      0.00000      0.00000      0.00000
      0.00174     -0.00048      0.00695
     -0.01023      0.00582      0.01337
     -0.00126     -0.00087      0.04715
      0.00000      0.00000      0.00000
      0.00050     -0.00353      0.00861
     -0.01082      0.01109     -0.05647
     -0.00428      0.00079      0.00990
      0.00000      0.00000      0.00000
      0.00043     -0.00005      0.01332
     -0.00294      0.00411      0.00920
     -0.00037     -0.00083     -0.02350
      0.00000      0.00000      0.00000
      0.00357      0.00184      0.00770
     -0.00452      0.00358      0.00621
     -0.01139     -0.01339     -0.33277
      0.00000      0.00000      0.00000
      0.00067     -0.00014      0.01403
      0.01383      0.01426     -0.04632
     -0.00809      0.00223      0.01657
      0.00000      0.00000      0.00000
     -0.00017      0.00182     -0.00042
      0.00103      0.00296      0.01485
      0.00070      0.00779      0.00855
      0.00000      0.00000      0.00000
      0.00067      0.00761     -0.02645
      0.00019      0.00036      0.02648
     -0.00191     -0.00267      0.01087
      0.16356     -0.07704      0.57363
     -0.12274      0.07414      0.59061

 NEB: forces: par spring, perp REAL, dneb     0.628585    0.111541    0.000000
 NEB: distance to prev, next image, angle between     0.744093    0.869810  145.876982
 NEB: projections on to tangent (spring, REAL)     0.628585    0.002028

 stress matrix after NEB project (eV)
     81.21838      0.03926      0.13622
      0.03925     81.42899     -0.07189
      0.13622     -0.07189     -1.47340
  FORCES: max atom, RMS     0.046815    0.013732
  FORCE total and by dimension    0.111560    0.038708
  Stress total and by dimension  115.018814   81.428992
 Quasi-Newton relaxation of ions (Broydens 2nd method)
  g(Force)  = 0.153E-02   g(Stress)= 0.000E+00

 retain information from N=  5 steps
 eigenvalues of (default step * inverse Hessian matrix)
  average eigenvalue of G=   2.8839
 eigenvalue spectrum of G is  5.7209  5.7209  1.3363  1.1043  0.5373


--------------------------------------------------------------------------------------------------------


  
 reached required accuracy - stopping structural energy minimisation
     LOOP+:  cpu time  439.0420: real time  440.3084
    4ORBIT:  cpu time    0.0000: real time    0.0000

 total amount of memory used by VASP MPI-rank0   200766. kBytes
=======================================================================

   base      :      30000. kBytes
   nonlr-proj:      31108. kBytes
   fftplans  :      17093. kBytes
   grid      :      44247. kBytes
   one-center:        528. kBytes
   wavefun   :      77790. kBytes
 
  
  
 General timing and accounting informations for this job:
 ========================================================
  
                  Total CPU time used (sec):     9006.781
                            User time (sec):     8784.332
                          System time (sec):      222.449
                         Elapsed time (sec):     9048.848
  
                   Maximum memory used (kb):      322320.
                   Average memory used (kb):           0.
  
                          Minor page faults:      2500633
                          Major page faults:            0
                 Voluntary context switches:        15371
