 vasp.5.4.4.18Apr17-6-g9f103f2a35 (build Nov 30 2020 22:55:02) complex          
  
 executed on             LinuxIFC date 2023.08.08  09:36:18
 running on   40 total cores
 distrk:  each k-point on   40 cores,    1 groups
 distr:  one band on NCORES_PER_BAND=   1 cores,   40 groups


--------------------------------------------------------------------------------------------------------


 INCAR:
 POTCAR:    PAW_PBE Pt 04Feb2005                  
 POTCAR:    PAW_PBE H 15Jun2001                   

 ----------------------------------------------------------------------------- 
|                                                                             |
|           W    W    AA    RRRRR   N    N  II  N    N   GGGG   !!!           |
|           W    W   A  A   R    R  NN   N  II  NN   N  G    G  !!!           |
|           W    W  A    A  R    R  N N  N  II  N N  N  G       !!!           |
|           W WW W  AAAAAA  RRRRR   N  N N  II  N  N N  G  GGG   !            |
|           WW  WW  A    A  R   R   N   NN  II  N   NN  G    G                |
|           W    W  A    A  R    R  N    N  II  N    N   GGGG   !!!           |
|                                                                             |
|      For optimal performance we recommend to set                            |
|        NCORE= 4 - approx SQRT( number of cores)                             |
|      NCORE specifies how many cores store one orbital (NPAR=cpu/NCORE).     |
|      This setting can  greatly improve the performance of VASP for DFT.     |
|      The default,   NCORE=1            might be grossly inefficient         |
|      on modern multi-core architectures or massively parallel machines.     |
|      Do your own testing !!!!                                               |
|      Unfortunately you need to use the default for GW and RPA calculations. |
|      (for HF NCORE is supported but not extensively tested yet)             |
|                                                                             |
 ----------------------------------------------------------------------------- 

 POTCAR:    PAW_PBE Pt 04Feb2005                  
   VRHFIN =Pt: s1d9                                                             
   LEXCH  = PE                                                                  
   EATOM  =   729.1176 eV,   53.5886 Ry                                         
                                                                                
   TITEL  = PAW_PBE Pt 04Feb2005                                                
   LULTRA =        F    use ultrasoft PP ?                                      
   IUNSCR =        1    unscreen: 0-lin 1-nonlin 2-no                           
   RPACOR =    2.330    partial core radius                                     
   POMASS =  195.080; ZVAL   =   10.000    mass and valenz                      
   RCORE  =    2.600    outmost cutoff radius                                   
   RWIGS  =    2.750; RWIGS  =    1.455    wigner-seitz radius (au A)           
   ENMAX  =  230.283; ENMIN  =  172.712 eV                                      
   ICORE  =        3    local potential                                         
   LCOR   =        T    correct aug charges                                     
   LPAW   =        T    paw PP                                                  
   EAUG   =  358.966                                                            
   DEXC   =    0.000                                                            
   RMAX   =    2.658    core radius for proj-oper                               
   RAUG   =    1.300    factor for augmentation sphere                          
   RDEP   =    2.761    radius for radial grids                                 
   RDEPT  =    2.203    core radius for aug-charge                              
                                                                                
   Atomic configuration                                                         
   16 entries                                                                   
     n  l   j            E        occ.                                          
     1  0  0.50    -78401.1885   2.0000                                         
     2  0  0.50    -13770.7750   2.0000                                         
     2  1  1.50    -11931.0468   6.0000                                         
     3  0  0.50     -3234.7234   2.0000                                         
     3  1  1.50     -2699.2216   6.0000                                         
     3  2  2.50     -2119.5714  10.0000                                         
     4  0  0.50      -695.1528   2.0000                                         
     4  1  1.50      -519.6034   6.0000                                         
     4  2  2.50      -306.6786  10.0000                                         
     4  3  3.50       -70.1041  14.0000                                         
     5  0  0.50      -101.7747   2.0000                                         
     5  1  1.50       -55.9873   6.0000                                         
     5  2  2.50        -6.1423   9.0000                                         
     6  0  0.50        -5.6573   1.0000                                         
     6  1  1.50        -6.8029   0.0000                                         
     5  3  2.50        -1.3606   0.0000                                         
   Description                                                                  
     l       E           TYP  RCUT    TYP  RCUT                                 
     2     -6.1423404     23  2.500                                             
     2     -7.5029230     23  2.500                                             
     0     -5.6573207     23  2.500                                             
     0      0.7416693     23  2.500                                             
     1     -2.7211652     23  2.600                                             
     1     20.4087390     23  2.600                                             
     3     -1.3605826     23  2.500                                             
  local pseudopotential read in
  partial core-charges read in
  partial kinetic energy density read in
  atomic valenz-charges read in
  non local Contribution for L=           2  read in
    real space projection operators read in
  non local Contribution for L=           2  read in
    real space projection operators read in
  non local Contribution for L=           0  read in
    real space projection operators read in
  non local Contribution for L=           0  read in
    real space projection operators read in
  non local Contribution for L=           1  read in
    real space projection operators read in
  non local Contribution for L=           1  read in
    real space projection operators read in
    PAW grid and wavefunctions read in
 
   number of l-projection  operators is LMAX  =           6
   number of lm-projection operators is LMMAX =          18
 
 POTCAR:    PAW_PBE H 15Jun2001                   
   VRHFIN =H: ultrasoft test                                                    
   LEXCH  = PE                                                                  
   EATOM  =    12.4884 eV,    0.9179 Ry                                         
                                                                                
   TITEL  = PAW_PBE H 15Jun2001                                                 
   LULTRA =        F    use ultrasoft PP ?                                      
   IUNSCR =        0    unscreen: 0-lin 1-nonlin 2-no                           
   RPACOR =    0.000    partial core radius                                     
   POMASS =    1.000; ZVAL   =    1.000    mass and valenz                      
   RCORE  =    1.100    outmost cutoff radius                                   
   RWIGS  =    0.700; RWIGS  =    0.370    wigner-seitz radius (au A)           
   ENMAX  =  250.000; ENMIN  =  200.000 eV                                      
   RCLOC  =    0.701    cutoff for local pot                                    
   LCOR   =        T    correct aug charges                                     
   LPAW   =        T    paw PP                                                  
   EAUG   =  400.000                                                            
   RMAX   =    1.123    core radius for proj-oper                               
   RAUG   =    1.200    factor for augmentation sphere                          
   RDEP   =    1.112    radius for radial grids                                 
   RDEPT  =    0.926    core radius for aug-charge                              
                                                                                
   Atomic configuration                                                         
    2 entries                                                                   
     n  l   j            E        occ.                                          
     1  0  0.50        -6.4927   1.0000                                         
     2  1  0.50        -3.4015   0.0000                                         
   Description                                                                  
     l       E           TYP  RCUT    TYP  RCUT                                 
     0     -6.4927494     23  1.100                                             
     0      6.8029130     23  1.100                                             
     1     -4.0817478     23  1.100                                             
  local pseudopotential read in
  atomic valenz-charges read in
  non local Contribution for L=           0  read in
    real space projection operators read in
  non local Contribution for L=           0  read in
    real space projection operators read in
  non local Contribution for L=           1  read in
    real space projection operators read in
    PAW grid and wavefunctions read in
 
   number of l-projection  operators is LMAX  =           3
   number of lm-projection operators is LMMAX =           5
 
 Optimization of the real space projectors (new method)

 maximal supplied QI-value         = 14.36
 optimisation between [QCUT,QGAM] = [ 11.92, 23.98] = [ 39.79,161.09] Ry 
 Optimized for a Real-space Cutoff    1.49 Angstroem

   l    n(q)    QCUT    max X(q) W(low)/X(q) W(high)/X(q)  e(spline) 
   2     10    11.920    66.195    0.79E-04    0.18E-03    0.24E-06
   2     10    11.920    64.643    0.81E-04    0.19E-03    0.24E-06
   0     11    11.920    95.520    0.28E-04    0.54E-04    0.18E-06
   0     11    11.920    63.403    0.27E-04    0.52E-04    0.17E-06
   1     10    11.920    19.961    0.18E-04    0.11E-03    0.23E-06
   1     10    11.920    13.289    0.25E-04    0.87E-04    0.19E-06
 Optimization of the real space projectors (new method)

 maximal supplied QI-value         = 34.20
 optimisation between [QCUT,QGAM] = [ 11.97, 23.94] = [ 40.13,160.53] Ry 
 Optimized for a Real-space Cutoff    1.18 Angstroem

   l    n(q)    QCUT    max X(q) W(low)/X(q) W(high)/X(q)  e(spline) 
   0      8    11.971    19.460    0.15E-03    0.31E-03    0.25E-06
   0      8    11.971    12.209    0.13E-03    0.29E-03    0.25E-06
   1      8    11.971     4.655    0.22E-03    0.24E-03    0.21E-06
  PAW_PBE Pt 04Feb2005                  :
 energy of atom  1       EATOM= -729.1176
 kinetic energy error for atom=    0.0021 (will be added to EATOM!!)
  PAW_PBE H 15Jun2001                   :
 energy of atom  2       EATOM=  -12.4884
 kinetic energy error for atom=    0.0008 (will be added to EATOM!!)
 
 
 POSCAR: Pt111\(1\1\1)\(2)                       
  positions in cartesian coordinates
  No initial velocities read in
 exchange correlation table for  LEXCH =        8
   RHO(1)=    0.500       N(1)  =     2000
   RHO(2)=  100.500       N(2)  =     4000
 


--------------------------------------------------------------------------------------------------------


 ion  position               nearest neighbor table
   1  1.000  0.000  0.056-   5 2.64   9 2.64  13 2.64  29 2.64  57 2.64  37 2.64  14 2.87  42 2.87
                            54 2.87
   2  0.333  0.167  0.177-  42 2.64  38 2.64  30 2.64  14 2.64  26 2.64   6 2.64  11 2.84   7 2.84
                            15 2.84  13 2.87  21 2.87   9 2.87
   3  0.167  0.333  0.297-  31 2.64  39 2.64  27 2.64  43 2.64   7 2.64  15 2.64  10 2.84  14 2.84
                             6 2.84  12 2.87   8 2.87  48 2.87
   4  1.000  1.000  0.419-  12 2.64  32 2.64  60 2.64   8 2.64  40 2.64  16 2.64  27 2.87   7 2.87
                            63 2.87
   5  1.000  0.250  0.056-   1 2.64  45 2.64  33 2.64   9 2.64  29 2.64  25 2.64  14 2.87  18 2.87
                            10 2.87
   6  0.333  0.417  0.177-  34 2.64  10 2.64  62 2.64  14 2.64  26 2.64   2 2.64  43 2.84   3 2.84
                            15 2.85  45 2.87   9 2.87  49 2.87
   7  0.167  0.083  0.297-  11 2.64  35 2.64  63 2.64  27 2.64  15 2.64   3 2.64  42 2.84   2 2.84
                            14 2.84  12 2.87   4 2.87  16 2.87
   8  1.000  0.250  0.419-  28 2.64  32 2.64  12 2.64   4 2.64  36 2.64  48 2.64   3 2.87  27 2.87
                            31 2.87
   9  0.250  0.250  0.056-  21 2.64  13 2.64   1 2.64  49 2.64  45 2.64   5 2.64   6 2.87  14 2.87
                             2 2.87
  10  0.083  0.417  0.177-   6 2.64  14 2.64  46 2.64  34 2.64  18 2.64  22 2.64  39 2.84   3 2.84
                            31 2.84   5 2.87  45 2.87  33 2.87
  11  0.417  0.083  0.297-  15 2.64   7 2.64  35 2.64  47 2.64  19 2.64  23 2.64  38 2.84   2 2.84
                            30 2.84  24 2.87  20 2.87  16 2.87
  12  0.250  0.250  0.419-   4 2.64   8 2.64  16 2.64  48 2.64  52 2.64  24 2.64  15 2.87   3 2.87
                             7 2.87
  13  0.250  0.000  0.056-  21 2.64   9 2.64  17 2.64   1 2.64  37 2.64  41 2.64   2 2.87  38 2.87
                            42 2.87
  14  0.083  0.167  0.177-  42 2.64  10 2.64   2 2.64  54 2.64   6 2.64  18 2.64  27 2.84   7 2.84
                             3 2.84   1 2.87   9 2.87   5 2.87
  15  0.417  0.333  0.297-  19 2.64  11 2.64  55 2.64   7 2.64  43 2.64   3 2.64  26 2.84   2 2.84
                             6 2.85  12 2.87  52 2.87  24 2.87
  16  0.250  0.000  0.419-  24 2.64  20 2.64  12 2.64  40 2.64  44 2.64   4 2.64   7 2.87  11 2.87
                            35 2.87
  17  0.500  0.000  0.056-  29 2.64  25 2.64  13 2.64  21 2.64  41 2.64  53 2.64  38 2.87  30 2.87
                            58 2.87
  18  0.833  0.167  0.177-  22 2.64  54 2.64  10 2.64  58 2.64  30 2.64  14 2.64  31 2.84  27 2.84
                            23 2.84   5 2.87  29 2.87  25 2.87
  19  0.667  0.333  0.297-  15 2.64  55 2.64  59 2.64  31 2.64  11 2.64  23 2.64  22 2.84  26 2.84
                            30 2.84  24 2.87  64 2.87  28 2.87
  20  0.500  1.000  0.419-  24 2.64  56 2.64  16 2.64  28 2.64  32 2.64  44 2.64  23 2.87  47 2.87
                            11 2.87
  21  0.500  0.250  0.056-  25 2.64  61 2.64   9 2.64  13 2.64  49 2.64  17 2.64  30 2.87   2 2.87
                            26 2.87
  22  0.833  0.417  0.177-  26 2.64  30 2.64  18 2.64  50 2.64  46 2.64  10 2.64  19 2.84  59 2.84
                            31 2.84  25 2.87  61 2.87  33 2.87
  23  0.667  0.083  0.297-  51 2.64  27 2.64  47 2.64  31 2.64  19 2.64  11 2.64  58 2.84  18 2.84
                            30 2.84  28 2.87  20 2.87  32 2.87
  24  0.500  0.250  0.419-  28 2.64  20 2.64  64 2.64  16 2.64  52 2.64  12 2.64  15 2.87  19 2.87
                            11 2.87
  25  0.750  0.250  0.056-  17 2.64  21 2.64  29 2.64  61 2.64  33 2.64   5 2.64  22 2.87  30 2.87
                            18 2.87
  26  0.583  0.417  0.177-  50 2.64  22 2.64  30 2.64  62 2.64   6 2.64   2 2.64  19 2.84  55 2.84
                            15 2.84  61 2.87  21 2.87  49 2.87
  27  0.917  0.083  0.297-   3 2.64  63 2.64   7 2.64  31 2.64  23 2.64  51 2.64  54 2.84  18 2.84
                            14 2.84   4 2.87   8 2.87  32 2.87
  28  0.750  0.250  0.419-  24 2.64   8 2.64  64 2.64  20 2.64  32 2.64  36 2.64  23 2.87  31 2.87
                            19 2.87
  29  0.750  0.000  0.056-  17 2.64  25 2.64   5 2.64  53 2.64   1 2.64  57 2.64  18 2.87  58 2.87
                            54 2.87
  30  0.583  0.167  0.177-  22 2.64  38 2.64  26 2.64   2 2.64  18 2.64  58 2.64  11 2.84  19 2.84
                            23 2.84  21 2.87  25 2.87  17 2.87
  31  0.917  0.333  0.297-   3 2.64  39 2.64  59 2.64  27 2.64  23 2.64  19 2.64  10 2.84  22 2.84
                            18 2.84  36 2.87   8 2.87  28 2.87
  32  0.750  1.000  0.419-  56 2.64   8 2.64   4 2.64  60 2.64  20 2.64  28 2.64  23 2.87  51 2.87
                            27 2.87
  33  1.000  0.500  0.056-  37 2.64  41 2.64   5 2.64  45 2.64  25 2.64  61 2.64  46 2.87  22 2.87
                            10 2.87
  34  0.333  0.667  0.177-   6 2.64  62 2.64  10 2.64  58 2.64  46 2.64  38 2.64  39 2.84  43 2.84
                            47 2.84  45 2.87  53 2.87  41 2.87
  35  0.167  0.833  0.297-   7 2.64  11 2.64  47 2.64  39 2.64  59 2.64  63 2.64  42 2.84  38 2.84
                            46 2.84  40 2.87  44 2.87  16 2.87
  36  0.000  0.500  0.419-  48 2.64  44 2.64   8 2.64  40 2.64  28 2.64  64 2.64  31 2.87  59 2.87
                            39 2.87
  37  1.000  0.750  0.056-  33 2.64  41 2.64  61 2.64  57 2.64  13 2.64   1 2.64  46 2.87  50 2.87
                            42 2.87
  38  0.333  0.917  0.177-   2 2.64  30 2.64  58 2.64  42 2.64  46 2.64  34 2.64  11 2.84  35 2.84
                            47 2.84  17 2.87  13 2.87  41 2.87
  39  0.167  0.583  0.297-   3 2.64  43 2.64  31 2.64  47 2.64  59 2.64  35 2.64  34 2.84  10 2.84
                            46 2.84  36 2.87  44 2.87  48 2.87
  40  0.000  0.750  0.419-  44 2.64  60 2.64   4 2.64  36 2.64  16 2.64  64 2.64  63 2.87  59 2.87
                            35 2.87
  41  0.250  0.750  0.056-  45 2.64  33 2.64  37 2.64  53 2.64  17 2.64  13 2.64  46 2.87  38 2.87
                            34 2.87
  42  0.083  0.917  0.177-   2 2.64  14 2.64  38 2.64  54 2.64  46 2.64  50 2.64   7 2.84  35 2.84
                            63 2.84  13 2.87   1 2.87  37 2.87
  43  0.417  0.583  0.297-  47 2.64  51 2.64  39 2.64   3 2.64  55 2.64  15 2.64  34 2.84  62 2.84
                             6 2.84  52 2.87  48 2.87  56 2.87
  44  0.250  0.750  0.419-  48 2.64  36 2.64  56 2.64  40 2.64  20 2.64  16 2.64  47 2.87  35 2.87
                            39 2.87
  45  0.250  0.500  0.056-  41 2.64  53 2.64   5 2.64   9 2.64  49 2.64  33 2.64   6 2.87  10 2.87
                            34 2.87
  46  0.083  0.667  0.177-  10 2.64  34 2.64  22 2.64  38 2.64  50 2.64  42 2.64  39 2.84  59 2.84
                            35 2.84  33 2.87  41 2.87  37 2.87
  47  0.417  0.833  0.297-  43 2.64  39 2.64  35 2.64  51 2.64  23 2.64  11 2.64  34 2.84  58 2.84
                            38 2.84  44 2.87  20 2.87  56 2.87
  48  0.250  0.500  0.419-  36 2.64  44 2.64   8 2.64  12 2.64  56 2.64  52 2.64   3 2.87  43 2.87
                            39 2.87
  49  0.500  0.500  0.056-  61 2.64  53 2.64  57 2.64  21 2.64   9 2.64  45 2.64   6 2.87  62 2.87
                            26 2.87
  50  0.833  0.667  0.177-  26 2.64  62 2.64  22 2.64  54 2.64  46 2.64  42 2.64  55 2.84  59 2.84
                            63 2.84  61 2.87  57 2.87  37 2.87
  51  0.667  0.833  0.297-  43 2.64  63 2.64  55 2.64  47 2.64  23 2.64  27 2.64  54 2.84  58 2.84
                            62 2.84  60 2.87  56 2.87  32 2.87
  52  0.500  0.500  0.419-  60 2.64  64 2.64  56 2.64  48 2.64  12 2.64  24 2.64  15 2.87  55 2.87
                            43 2.87
  53  0.500  0.750  0.056-  49 2.64  57 2.64  45 2.64  41 2.64  29 2.64  17 2.64  62 2.87  58 2.87
                            34 2.87
  54  0.833  0.917  0.177-  18 2.64  14 2.64  58 2.64  62 2.64  42 2.64  50 2.64  63 2.84  27 2.84
                            51 2.84  29 2.87   1 2.87  57 2.87
  55  0.667  0.583  0.297-  19 2.64  59 2.64  63 2.64  51 2.64  15 2.64  43 2.64  50 2.84  26 2.84
                            62 2.84  52 2.87  60 2.87  64 2.87
  56  0.500  0.750  0.419-  32 2.64  20 2.64  52 2.64  44 2.64  60 2.64  48 2.64  43 2.87  51 2.87
                            47 2.87
  57  0.750  0.750  0.056-  61 2.64  49 2.64  53 2.64  37 2.64   1 2.64  29 2.64  62 2.87  50 2.87
                            54 2.87
  58  0.583  0.917  0.177-  38 2.64  54 2.64  34 2.64  18 2.64  62 2.64  30 2.64  47 2.84  51 2.84
                            23 2.84  53 2.87  29 2.87  17 2.87
  59  0.917  0.583  0.297-  55 2.64  19 2.64  31 2.64  39 2.64  63 2.64  35 2.64  50 2.84  22 2.84
                            46 2.84  40 2.87  36 2.87  64 2.87
  60  0.750  0.750  0.419-  52 2.64  32 2.64   4 2.64  56 2.64  40 2.64  64 2.64  51 2.87  55 2.87
                            63 2.87
  61  0.750  0.500  0.056-  49 2.64  57 2.64  21 2.64  25 2.64  37 2.64  33 2.64  26 2.87  50 2.87
                            22 2.87
  62  0.583  0.667  0.177-  50 2.64  34 2.64  26 2.64   6 2.64  54 2.64  58 2.64  51 2.84  55 2.84
                            43 2.84  49 2.87  57 2.87  53 2.87
  63  0.917  0.833  0.297-  55 2.64   7 2.64  27 2.64  51 2.64  59 2.64  35 2.64  54 2.84  42 2.84
                            50 2.84  40 2.87  60 2.87   4 2.87
  64  0.750  0.500  0.419-  24 2.64  52 2.64  28 2.64  60 2.64  40 2.64  36 2.64  55 2.87  19 2.87
                            59 2.87
  65  0.380  0.411  0.567-  66 0.75
  66  0.372  0.337  0.573-  65 0.75
 
  LATTYP: Found a hexagonal cell.
 ALAT       =    10.5600004196
 C/A-ratio  =     1.8939393187
  
  Lattice vectors:
  
 A1 = (  10.5600004196,   0.0000000000,   0.0000000000)
 A2 = (  -5.2800002098,   9.1452286274,   0.0000000000)
 A3 = (   0.0000000000,   0.0000000000,  20.0000000000)


Analysis of symmetry for initial positions (statically):
=====================================================================
 Subroutine PRICEL returns:
 Original cell was already a primitive cell.
 

 Routine SETGRP: Setting up the symmetry group for a 
 hexagonal supercell.


 Subroutine GETGRP returns: Found  1 space group operations
 (whereof  1 operations were pure point group operations)
 out of a pool of 24 trial point group operations.


The static configuration has the point symmetry C_1 .


Analysis of symmetry for dynamics (positions and initial velocities):
=====================================================================
 Subroutine PRICEL returns:
 Original cell was already a primitive cell.
 

 Routine SETGRP: Setting up the symmetry group for a 
 hexagonal supercell.


 Subroutine GETGRP returns: Found  1 space group operations
 (whereof  1 operations were pure point group operations)
 out of a pool of 24 trial point group operations.


The dynamic configuration has the point symmetry C_1 .


Analysis of constrained symmetry for selective dynamics:
=====================================================================
 Subroutine PRICEL returns:
 Original cell was already a primitive cell.
 

 Routine SETGRP: Setting up the symmetry group for a 
 hexagonal supercell.


 Subroutine GETGRP returns: Found  1 space group operations
 (whereof  1 operations were pure point group operations)
 out of a pool of 24 trial point group operations.


The constrained configuration has the point symmetry C_1 .


Analysis of structural, dynamic, and magnetic symmetry:
=====================================================================
 Subroutine PRICEL returns:
 Original cell was already a primitive cell.
 

 Routine SETGRP: Setting up the symmetry group for a 
 hexagonal supercell.


 Subroutine GETGRP returns: Found  1 space group operations
 (whereof  1 operations were pure point group operations)
 out of a pool of 24 trial point group operations.


The magnetic configuration has the point symmetry C_1 .


 Subroutine INISYM returns: Found  1 space group operations
 (whereof  1 operations are pure point group operations),
 and found     1 'primitive' translations

 
 
 KPOINTS: mesh auto                               

Automatic generation of k-mesh.
Space group operators:
 irot       det(A)        alpha          n_x          n_y          n_z        tau_x        tau_y        tau_z
    1     1.000000     0.000000     1.000000     0.000000     0.000000     0.000000     0.000000     0.000000
 
 Subroutine IBZKPT returns following result:
 ===========================================
 
 Found      4 irreducible k-points:
 
 Following reciprocal coordinates:
            Coordinates               Weight
  0.000000  0.000000  0.000000      1.000000
  0.500000 -0.000000  0.000000      1.000000
  0.000000  0.500000  0.000000      1.000000
  0.500000  0.500000  0.000000      1.000000
 
 Following cartesian coordinates:
            Coordinates               Weight
  0.000000  0.000000  0.000000      1.000000
  0.047348  0.027337  0.000000      1.000000
  0.000000  0.054673  0.000000      1.000000
  0.047348  0.082010  0.000000      1.000000
 
 TETIRR: Found     12 inequivalent tetrahedra from       24
 
 Subroutine IBZKPT_HF returns following result:
 ==============================================
 
 Found      4 k-points in 1st BZ
 the following      4 k-points will be used (e.g. in the exchange kernel)
 Following reciprocal coordinates:   # in IRBZ
  0.000000  0.000000  0.000000    0.25000000   1 t-inv F
  0.500000 -0.000000  0.000000    0.25000000   2 t-inv F
  0.000000  0.500000  0.000000    0.25000000   3 t-inv F
  0.500000  0.500000  0.000000    0.25000000   4 t-inv F


--------------------------------------------------------------------------------------------------------




 Dimension of arrays:
   k-points           NKPTS =      4   k-points in BZ     NKDIM =      4   number of bands    NBANDS=    480
   number of dos      NEDOS =    301   number of ions     NIONS =     66
   non local maximal  LDIM  =      6   non local SUM 2l+1 LMDIM =     18
   total plane-waves  NPLWV = ******
   max r-space proj   IRMAX =   8171   max aug-charges    IRDMAX=  35597
   dimension x,y,z NGX =    84 NGY =   84 NGZ =  160
   dimension x,y,z NGXF=   168 NGYF=  168 NGZF=  320
   support grid    NGXF=   168 NGYF=  168 NGZF=  320
   ions per type =              64   2
   NGX,Y,Z   is equivalent  to a cutoff of  13.22, 13.22, 13.30 a.u.
   NGXF,Y,Z  is equivalent  to a cutoff of  26.45, 26.45, 26.60 a.u.

 SYSTEM =  Pt111                                   
 POSCAR =  Pt111\(1\1\1)\(2)                       

 Startparameter for this run:
   NWRITE =      2    write-flag & timer
   PREC   = accura    normal or accurate (medium, high low for compatibility)
   ISTART =      0    job   : 0-new  1-cont  2-samecut
   ICHARG =      2    charge: 1-file 2-atom 10-const
   ISPIN  =      2    spin polarized calculation?
   LNONCOLLINEAR =      F non collinear calculations
   LSORBIT =      F    spin-orbit coupling
   INIWAV =      1    electr: 0-lowe 1-rand  2-diag
   LASPH  =      F    aspherical Exc in radial PAW
   METAGGA=      F    non-selfconsistent MetaGGA calc.

 Electronic Relaxation 1
   ENCUT  =  550.0 eV  40.42 Ry    6.36 a.u.  20.19 20.19 38.24*2*pi/ulx,y,z
   ENINI  =  550.0     initial cutoff
   ENAUG  =  400.0 eV  augmentation charge cutoff
   NELM   =    200;   NELMIN=  2; NELMDL= -5     # of ELM steps 
   EDIFF  = 0.1E-04   stopping-criterion for ELM
   LREAL  =      T    real-space projection
   NLSPLINE    = F    spline interpolate recip. space projectors
   LCOMPAT=      F    compatible to vasp.4.4
   GGA_COMPAT  = T    GGA compatible to vasp.4.4-vasp.4.6
   LMAXPAW     = -100 max onsite density
   LMAXMIX     =    2 max onsite mixed and CHGCAR
   VOSKOWN=      0    Vosko Wilk Nusair interpolation
   ROPT   =   -0.00025  -0.00025
 Ionic relaxation
   EDIFFG = -.5E-01   stopping-criterion for IOM
   NSW    =    829    number of steps for IOM
   NBLOCK =      1;   KBLOCK =    829    inner block; outer block 
   IBRION =      5    ionic relax: 0-MD 1-quasi-New 2-CG
   NFREE  =      2    steps in history (QN), initial steepest desc. (CG)
   ISIF   =      2    stress and relaxation
   IWAVPR =     11    prediction:  0-non 1-charg 2-wave 3-comb
   ISYM   =      2    0-nonsym 1-usesym 2-fastsym
   LCORR  =      T    Harris-Foulkes like correction to forces

   POTIM  = 0.5000    time-step for ionic-motion
   TEIN   =    0.0    initial temperature
   TEBEG  =    0.0;   TEEND  =   0.0 temperature during run
   SMASS  =  -3.00    Nose mass-parameter (am)
   estimated Nose-frequenzy (Omega)   =  0.10E-29 period in steps =****** mass=  -0.255E-26a.u.
   SCALEE = 1.0000    scale energy and forces
   NPACO  =    256;   APACO  = 16.0  distance and # of slots for P.C.
   PSTRESS=    0.0 pullay stress

  Mass of Ions in am
   POMASS = 195.08  1.00
  Ionic Valenz
   ZVAL   =  10.00  1.00
  Atomic Wigner-Seitz radii
   RWIGS  =  -1.00 -1.00
  virtual crystal weights 
   VCA    =   1.00  1.00
   NELECT =     642.0000    total number of electrons
   NUPDOWN=      -1.0000    fix difference up-down

 DOS related values:
   EMIN   =  10.00;   EMAX   =-10.00  energy-range for DOS
   EFERMI =   0.00
   ISMEAR =    -5;   SIGMA  =   0.10  broadening in eV -4-tet -1-fermi 0-gaus

 Electronic relaxation 2 (details)
   IALGO  =     68    algorithm
   LDIAG  =      T    sub-space diagonalisation (order eigenvalues)
   LSUBROT=      F    optimize rotation matrix (better conditioning)
   TURBO    =      0    0=normal 1=particle mesh
   IRESTART =      0    0=no restart 2=restart with 2 vectors
   NREBOOT  =      0    no. of reboots
   NMIN     =      0    reboot dimension
   EREF     =   0.00    reference energy to select bands
   IMIX   =      4    mixing-type and parameters
     AMIX     =   0.40;   BMIX     =  1.00
     AMIX_MAG =   1.60;   BMIX_MAG =  1.00
     AMIN     =   0.10
     WC   =   100.;   INIMIX=   1;  MIXPRE=   1;  MAXMIX= -45

 Intra band minimization:
   WEIMIN = 0.0010     energy-eigenvalue tresh-hold
   EBREAK =  0.52E-08  absolut break condition
   DEPER  =   0.30     relativ break condition  

   TIME   =   0.40     timestep for ELM

  volume/ion in A,a.u.               =      29.26       197.49
  Fermi-wavevector in a.u.,A,eV,Ry     =   1.134028  2.143002 17.497349  1.286019
  Thomas-Fermi vector in A             =   2.270731
 
 Write flags
   LWAVE        =      F    write WAVECAR
   LDOWNSAMPLE  =      F    k-point downsampling of WAVECAR
   LCHARG       =      F    write CHGCAR
   LVTOT        =      F    write LOCPOT, total local potential
   LVHAR        =      F    write LOCPOT, Hartree potential only
   LELF         =      F    write electronic localiz. function (ELF)
   LORBIT       =      0    0 simple, 1 ext, 2 COOP (PROOUT), +10 PAW based schemes


 Dipole corrections
   LMONO  =      F    monopole corrections only (constant potential shift)
   LDIPOL =      F    correct potential (dipole corrections)
   IDIPOL =      0    1-x, 2-y, 3-z, 4-all directions 
   EPSILON=  1.0000000 bulk dielectric constant

 Exchange correlation treatment:
   GGA     =    --    GGA type
   LEXCH   =     8    internal setting for exchange type
   VOSKOWN=      0    Vosko Wilk Nusair interpolation
   LHFCALC =     F    Hartree Fock is set to
   LHFONE  =     F    Hartree Fock one center treatment
   AEXX    =    0.0000 exact exchange contribution

 Linear response parameters
   LEPSILON=     F    determine dielectric tensor
   LRPA    =     F    only Hartree local field effects (RPA)
   LNABLA  =     F    use nabla operator in PAW spheres
   LVEL    =     F    velocity operator in full k-point grid
   LINTERFAST=   F  fast interpolation
   KINTER  =     0    interpolate to denser k-point grid
   CSHIFT  =0.1000    complex shift for real part using Kramers Kronig
   OMEGAMAX=  -1.0    maximum frequency
   DEG_THRESHOLD= 0.2000000E-02 threshold for treating states as degnerate
   RTIME   =   -0.100 relaxation time in fs
  (WPLASMAI=    0.000 imaginary part of plasma frequency in eV, 0.658/RTIME)
   DFIELD  = 0.0000000 0.0000000 0.0000000 field for delta impulse in time
 
 Orbital magnetization related:
   ORBITALMAG=     F  switch on orbital magnetization
   LCHIMAG   =     F  perturbation theory with respect to B field
   DQ        =  0.001000  dq finite difference perturbation B field
   LLRAUG    =     F  two centre corrections for induced B field



--------------------------------------------------------------------------------------------------------


 finite differences
   using selective dynamics as specified on POSCAR
   WARNING: If single coordinates had been selected the selection of coordinates
            is made according to the corresponding   d i r e c t   coordinates!
            Don't support selection of single cartesian coordinates -- sorry ...
  !
 charge density and potential will be updated during run
 spin polarized calculation
 RMM-DIIS sequential band-by-band and
  variant of blocked Davidson during initial phase
 perform sub-space diagonalisation
    before iterative eigenvector-optimisation
 modified Broyden-mixing scheme, WC =      100.0
 initial mixing is a Kerker type mixing with AMIX =  0.4000 and BMIX =      1.0000
 Hartree-type preconditioning will be used
 using additional bands          159
 real space projection scheme for non local part
 use partial core corrections
 calculate Harris-corrections to forces 
   (improved forces if not selfconsistent)
 use gradient corrections 
 use of overlap-Matrix (Vanderbilt PP)
 Fermi weights with tetrahedron method with Bloechl corrections


--------------------------------------------------------------------------------------------------------


  energy-cutoff  :      550.00
  volume of cell :     1931.47
      direct lattice vectors                 reciprocal lattice vectors
    10.560000420  0.000000000  0.000000000     0.094696966  0.054673319  0.000000000
    -5.280000210  9.145228627  0.000000000     0.000000000  0.109346638  0.000000000
     0.000000000  0.000000000 20.000000000     0.000000000  0.000000000  0.050000000

  length of vectors
    10.560000420 10.560000420 20.000000000     0.109346638  0.109346638  0.050000000


 
 k-points in units of 2pi/SCALE and weight: mesh auto                               
   0.00000000  0.00000000  0.00000000       0.250
   0.04734848  0.02733666  0.00000000       0.250
   0.00000000  0.05467332  0.00000000       0.250
   0.04734848  0.08200998  0.00000000       0.250
 
 k-points in reciprocal lattice and weights: mesh auto                               
   0.00000000  0.00000000  0.00000000       0.250
   0.50000000 -0.00000000  0.00000000       0.250
   0.00000000  0.50000000  0.00000000       0.250
   0.50000000  0.50000000  0.00000000       0.250
 
 position of ions in fractional coordinates (direct lattice) 
   0.99999844  0.00000156  0.05579229
   0.33330939  0.16661761  0.17741435
   0.16661989  0.33334280  0.29742332
   0.99999036  0.99999973  0.41899388
   0.99999844  0.25000155  0.05579229
   0.33331077  0.41668842  0.17737564
   0.16667268  0.08330589  0.29740412
   0.99996586  0.24998022  0.41899694
   0.24999844  0.25000155  0.05579229
   0.08334647  0.41665222  0.17744450
   0.41663338  0.08333279  0.29738624
   0.24993520  0.24996072  0.41891649
   0.24999844  0.00000156  0.05579229
   0.08333508  0.16665645  0.17740636
   0.41670708  0.33330594  0.29746081
   0.25002040  0.00001028  0.41901736
   0.49999844  0.00000156  0.05579229
   0.83333275  0.16666816  0.17742047
   0.66666954  0.33336424  0.29739147
   0.50000293  0.99999905  0.41898757
   0.49999843  0.25000155  0.05579229
   0.83330566  0.41664004  0.17742368
   0.66667134  0.08332874  0.29742048
   0.50005757  0.24994752  0.41898165
   0.74999841  0.25000155  0.05579229
   0.58336932  0.41668353  0.17741817
   0.91668657  0.08333731  0.29740692
   0.74999891  0.24999474  0.41898403
   0.74999842  0.00000156  0.05579229
   0.58332887  0.16667238  0.17741966
   0.91669105  0.33334975  0.29740687
   0.74999940  0.99999669  0.41900250
   0.99999844  0.50000154  0.05579229
   0.33334597  0.66664844  0.17744668
   0.16667489  0.83333779  0.29738856
   0.00002046  0.50000068  0.41898672
   0.99999843  0.75000151  0.05579229
   0.33335542  0.91669984  0.17742425
   0.16667128  0.58332911  0.29737816
   0.00000295  0.74999906  0.41898632
   0.24999843  0.75000151  0.05579229
   0.08338594  0.91676599  0.17743977
   0.41666857  0.58339076  0.29741488
   0.24999876  0.74998246  0.41898629
   0.24999844  0.50000154  0.05579229
   0.08334382  0.66664790  0.17740297
   0.41665738  0.83331172  0.29740572
   0.24998527  0.50001339  0.41899840
   0.49999844  0.50000154  0.05579229
   0.83324481  0.66661670  0.17743306
   0.66666042  0.83331287  0.29740763
   0.50004511  0.50006652  0.41892128
   0.49999843  0.75000151  0.05579229
   0.83332973  0.91667199  0.17743000
   0.66669499  0.58333474  0.29740238
   0.50001996  0.75003742  0.41900930
   0.74999841  0.75000151  0.05579229
   0.58333015  0.91666455  0.17742197
   0.91666561  0.58332854  0.29738962
   0.75000146  0.75000710  0.41899159
   0.74999839  0.50000154  0.05579229
   0.58333267  0.66665930  0.17741315
   0.91666351  0.83333635  0.29739343
   0.74998231  0.49997909  0.41900720
   0.37995442  0.41128480  0.56705975
   0.37203530  0.33730555  0.57305144
 
 position of ions in cartesian coordinates  (Angst):
  10.55997578  0.00001422  1.11584590
   2.64000624  1.52375615  3.54828703
  -0.00054402  3.04849616  5.94846632
   5.27989986  9.14522614  8.37987764
   9.23997574  2.28632132  1.11584590
   1.31964690  3.81071087  3.54751280
   1.32020851  0.76185140  5.94808240
   9.23974425  2.28612628  8.37993870
   1.31997542  2.28632132  1.11584590
  -1.31978507  3.81037980  3.54889002
   3.95965152  0.76209741  5.94772474
   1.31952315  2.28594791  8.37832989
   2.63997547  0.00001422  1.11584590
   0.00007235  1.52411138  3.54812726
   2.64057152  3.04815899  5.94921626
   2.64016132  0.00009398  8.38034727
   5.27997557  0.00001422  1.11584590
   7.91998627  1.52421845  3.54840938
   5.27986740  3.04869219  5.94782931
   0.00003594  9.14521994  8.37975137
   3.95997540  2.28632132  1.11584590
   6.59984861  3.81026839  3.54847361
   6.60007388  0.76206039  5.94840969
   3.96088522  2.28582722  8.37963302
   6.59997527  2.28632132  1.11584590
   3.96029119  3.81066610  3.54836340
   9.24018961  0.76213871  5.94813833
   6.60001652  2.28625908  8.37968059
   7.91997543  0.00001422  1.11584590
   5.27992293  1.52425700  3.54839319
   7.92017107  3.04855969  5.94813744
   2.64001129  9.14519833  8.38004998
   7.91997567  4.57262842  1.11584590
   0.00022966  6.09665243  3.54893353
  -2.63993681  7.62106457  5.94777122
  -2.63978768  4.57262051  8.37973450
   6.59997574  6.85893527  1.11584590
  -1.31994197  8.38342964  3.54848509
  -1.31992900  5.33467809  5.94756312
  -3.95996404  6.85891288  8.37972632
  -1.32002457  6.85893527  1.11584590
  -3.95996901  8.38403455  3.54879532
   1.31971694  5.33524190  5.94829761
  -1.31992049  6.85876105  8.37972570
  -0.00002464  4.57262842  1.11584590
  -2.63979029  6.09664744  3.54805935
   0.00001611  7.62082619  5.94811445
  -0.00022622  4.57273673  8.37996798
   2.63997546  4.57262842  1.11584590
   5.27932927  6.09636212  3.54866120
   2.64004223  7.62083670  5.94815256
   2.64012522  4.57322263  8.37842550
   1.31997553  6.85893527  1.11584590
   3.95993398  8.38317496  3.54860003
   3.96029183  5.33472959  5.94804765
   1.32001321  6.85926370  8.38018594
   3.95997540  6.85893527  1.11584590
   1.31997766  8.38310690  3.54843931
   6.60001438  5.33467288  5.94779236
   3.95997808  6.85898644  8.37983181
   5.27997509  4.57262842  1.11584590
   2.64003194  6.09675172  3.54826291
   5.27995091  7.62105144  5.94786851
   5.27992385  4.57242306  8.38014390
   1.84073507  3.76129350 11.34119491
   2.14771953  3.08473638 11.46102885
 


--------------------------------------------------------------------------------------------------------


 k-point  1 :   0.0000 0.0000 0.0000  plane waves:   56579
 k-point  2 :   0.5000-0.0000 0.0000  plane waves:   56606
 k-point  3 :   0.0000 0.5000 0.0000  plane waves:   56606
 k-point  4 :   0.5000 0.5000 0.0000  plane waves:   56606

 maximum and minimum number of plane-waves per node :     56606    56579

 maximum number of plane-waves:     56606
 maximum index in each direction: 
   IXMAX=   20   IYMAX=   20   IZMAX=   38
   IXMIN=  -20   IYMIN=  -20   IZMIN=  -38


 serial   3D FFT for wavefunctions
 parallel 3D FFT for charge:
    minimum data exchange during FFTs selected (reduces bandwidth)


 total amount of memory used by VASP MPI-rank0   335957. kBytes
=======================================================================

   base      :      30000. kBytes
   nonlr-proj:      89575. kBytes
   fftplans  :      13334. kBytes
   grid      :     112154. kBytes
   one-center:       2052. kBytes
   wavefun   :      88842. kBytes
 
     INWAV:  cpu time    0.0000: real time    0.0000
 Broyden mixing: mesh for mixing (old mesh)
   NGX = 41   NGY = 41   NGZ = 77
  (NGX  =168   NGY  =168   NGZ  =320)
  gives a total of 129437 points

 initial charge density was supplied:
 charge density of overlapping atoms calculated
 number of electron     642.0000000 magnetization     130.0000000
 keeping initial charge density in first step


--------------------------------------------------------------------------------------------------------


 Maximum index for non-local projection operator         7908
 Maximum index for augmentation-charges         2177 (set IRDMAX)


--------------------------------------------------------------------------------------------------------


 First call to EWALD:  gamma=   0.142
 Maximum number of real-space cells 4x 4x 2
 Maximum number of reciprocal cells 2x 2x 4

    FEWALD:  cpu time    0.0045: real time    0.0045


--------------------------------------- Iteration      1(   1)  ---------------------------------------


    POTLOK:  cpu time    0.5464: real time    0.5620
    SETDIJ:  cpu time    0.0431: real time    0.0434
     EDDAV:  cpu time   52.0167: real time   52.1721
 BZINTS: Fermi energy: 13.976148;642.000000 electrons
         Band energy:4675.842276;  BLOECHL correction: -0.004743
       DOS:  cpu time    0.0233: real time    0.0234
    --------------------------------------------
      LOOP:  cpu time   52.6295: real time   52.8009

 eigenvalue-minimisations  :  7680
 total energy-change (2. order) : 0.4348319E+04  (-0.3121184E+05)
 number of electron     642.0000000 magnetization     130.0000000
 augmentation part      642.0000000 magnetization     130.0000000

 Free energy of the ion-electron system (eV)
  ---------------------------------------------------
  alpha Z        PSCENC =      2023.78361127
  Ewald energy   TEWEN  =    125210.30216697
  -Hartree energ DENC   =   -176322.48275453
  -exchange      EXHF   =         0.00000000
  -V(xc)+E(xc)   XCENC  =       263.46526111
  PAW double counting   =     44535.65345321   -42726.61560978
  entropy T*S    EENTRO =         0.00000000
  eigenvalues    EBANDS =      4675.84227593
  atomic energy  EATOM  =     46688.37031544
  Solvation  Ediel_sol  =         0.00000000
  ---------------------------------------------------
  free energy    TOTEN  =      4348.31871962 eV

  energy without entropy =     4348.31871962  energy(sigma->0) =     4348.31871962


--------------------------------------------------------------------------------------------------------




--------------------------------------- Iteration      1(   2)  ---------------------------------------


     EDDAV:  cpu time   55.7431: real time   55.8808
 BZINTS: Fermi energy:  4.279807;642.000000 electrons
         Band energy: 153.992782;  BLOECHL correction: -0.634297
       DOS:  cpu time    0.0195: real time    0.0196
    --------------------------------------------
      LOOP:  cpu time   55.7626: real time   55.9003

 eigenvalue-minimisations  :  8440
 total energy-change (2. order) :-0.4521849E+04  (-0.4143024E+04)
 number of electron     642.0000000 magnetization     130.0000000
 augmentation part      642.0000000 magnetization     130.0000000

 Free energy of the ion-electron system (eV)
  ---------------------------------------------------
  alpha Z        PSCENC =      2023.78361127
  Ewald energy   TEWEN  =    125210.30216697
  -Hartree energ DENC   =   -176322.48275453
  -exchange      EXHF   =         0.00000000
  -V(xc)+E(xc)   XCENC  =       263.46526111
  PAW double counting   =     44535.65345321   -42726.61560978
  entropy T*S    EENTRO =         0.00000000
  eigenvalues    EBANDS =       153.99278249
  atomic energy  EATOM  =     46688.37031544
  Solvation  Ediel_sol  =         0.00000000
  ---------------------------------------------------
  free energy    TOTEN  =      -173.53077381 eV

  energy without entropy =     -173.53077381  energy(sigma->0) =     -173.53077381


--------------------------------------------------------------------------------------------------------




--------------------------------------- Iteration      1(   3)  ---------------------------------------


     EDDAV:  cpu time   57.4531: real time   57.6107
 BZINTS: Fermi energy:  3.824605;642.000000 electrons
         Band energy: -38.926653;  BLOECHL correction: -0.938456
       DOS:  cpu time    0.0192: real time    0.0192
    --------------------------------------------
      LOOP:  cpu time   57.4722: real time   57.6299

 eigenvalue-minimisations  :  8760
 total energy-change (2. order) :-0.1929194E+03  (-0.1859624E+03)
 number of electron     642.0000000 magnetization     130.0000000
 augmentation part      642.0000000 magnetization     130.0000000

 Free energy of the ion-electron system (eV)
  ---------------------------------------------------
  alpha Z        PSCENC =      2023.78361127
  Ewald energy   TEWEN  =    125210.30216697
  -Hartree energ DENC   =   -176322.48275453
  -exchange      EXHF   =         0.00000000
  -V(xc)+E(xc)   XCENC  =       263.46526111
  PAW double counting   =     44535.65345321   -42726.61560978
  entropy T*S    EENTRO =         0.00000000
  eigenvalues    EBANDS =       -38.92665331
  atomic energy  EATOM  =     46688.37031544
  Solvation  Ediel_sol  =         0.00000000
  ---------------------------------------------------
  free energy    TOTEN  =      -366.45020962 eV

  energy without entropy =     -366.45020962  energy(sigma->0) =     -366.45020962


--------------------------------------------------------------------------------------------------------




--------------------------------------- Iteration      1(   4)  ---------------------------------------


     EDDAV:  cpu time   59.6319: real time   59.8147
 BZINTS: Fermi energy:  3.815307;642.000000 electrons
         Band energy: -42.201866;  BLOECHL correction: -0.936287
       DOS:  cpu time    0.0199: real time    0.0200
    --------------------------------------------
      LOOP:  cpu time   59.6518: real time   59.8347

 eigenvalue-minimisations  :  9200
 total energy-change (2. order) :-0.3275213E+01  (-0.3269706E+01)
 number of electron     642.0000000 magnetization     130.0000000
 augmentation part      642.0000000 magnetization     130.0000000

 Free energy of the ion-electron system (eV)
  ---------------------------------------------------
  alpha Z        PSCENC =      2023.78361127
  Ewald energy   TEWEN  =    125210.30216697
  -Hartree energ DENC   =   -176322.48275453
  -exchange      EXHF   =         0.00000000
  -V(xc)+E(xc)   XCENC  =       263.46526111
  PAW double counting   =     44535.65345321   -42726.61560978
  entropy T*S    EENTRO =         0.00000000
  eigenvalues    EBANDS =       -42.20186636
  atomic energy  EATOM  =     46688.37031544
  Solvation  Ediel_sol  =         0.00000000
  ---------------------------------------------------
  free energy    TOTEN  =      -369.72542267 eV

  energy without entropy =     -369.72542267  energy(sigma->0) =     -369.72542267


--------------------------------------------------------------------------------------------------------




--------------------------------------- Iteration      1(   5)  ---------------------------------------


     EDDAV:  cpu time   57.8198: real time   57.9954
 BZINTS: Fermi energy:  3.815061;642.000000 electrons
         Band energy: -42.280150;  BLOECHL correction: -0.936096
       DOS:  cpu time    0.0216: real time    0.0216
    CHARGE:  cpu time    2.5140: real time    2.5217
    MIXING:  cpu time    0.0113: real time    0.0120
    --------------------------------------------
      LOOP:  cpu time   60.3668: real time   60.5509

 eigenvalue-minimisations  :  8840
 total energy-change (2. order) :-0.7828360E-01  (-0.7833973E-01)
 number of electron     642.0000120 magnetization     117.8173150
 augmentation part      185.5758447 magnetization      92.2432817

 Broyden mixing:
  rms(total) = 0.11310E+02    rms(broyden)= 0.11310E+02
  rms(prec ) = 0.11401E+02
  weight for this iteration     100.00

 Free energy of the ion-electron system (eV)
  ---------------------------------------------------
  alpha Z        PSCENC =      2023.78361127
  Ewald energy   TEWEN  =    125210.30216697
  -Hartree energ DENC   =   -176322.48275453
  -exchange      EXHF   =         0.00000000
  -V(xc)+E(xc)   XCENC  =       263.46526111
  PAW double counting   =     44535.65345321   -42726.61560978
  entropy T*S    EENTRO =         0.00000000
  eigenvalues    EBANDS =       -42.28014996
  atomic energy  EATOM  =     46688.37031544
  Solvation  Ediel_sol  =         0.00000000
  ---------------------------------------------------
  free energy    TOTEN  =      -369.80370627 eV

  energy without entropy =     -369.80370627  energy(sigma->0) =     -369.80370627


--------------------------------------------------------------------------------------------------------




--------------------------------------- Iteration      1(   6)  ---------------------------------------


    POTLOK:  cpu time    0.4809: real time    0.4824
    SETDIJ:  cpu time    0.0434: real time    0.0435
    EDDIAG:  cpu time    7.9706: real time    7.9963
  RMM-DIIS:  cpu time   32.0268: real time   32.1252
    ORTHCH:  cpu time    1.1798: real time    1.1834
 BZINTS: Fermi energy:  2.960405;642.000000 electrons
         Band energy:-479.875358;  BLOECHL correction: -0.284953
       DOS:  cpu time    0.0202: real time    0.0202
    CHARGE:  cpu time    2.4865: real time    2.4942
    MIXING:  cpu time    0.0118: real time    0.2201
    --------------------------------------------
      LOOP:  cpu time   44.2199: real time   44.5654

 eigenvalue-minimisations  :  7713
 total energy-change (2. order) : 0.5891181E+02  (-0.1072028E+02)
 number of electron     642.0000123 magnetization     102.6345133
 augmentation part      196.2913022 magnetization      78.7520073

 Broyden mixing:
  rms(total) = 0.72042E+01    rms(broyden)= 0.72042E+01
  rms(prec ) = 0.74271E+01
  weight for this iteration     100.00

 eigenvalues of (default mixing * dielectric matrix)
  average eigenvalue GAMMA=   0.9983
  0.9983

 Free energy of the ion-electron system (eV)
  ---------------------------------------------------
  alpha Z        PSCENC =      2023.78361127
  Ewald energy   TEWEN  =    125210.30216697
  -Hartree energ DENC   =   -175722.51727189
  -exchange      EXHF   =         0.00000000
  -V(xc)+E(xc)   XCENC  =       268.64983015
  PAW double counting   =     50959.73740267   -49259.34259086
  entropy T*S    EENTRO =         0.00000000
  eigenvalues    EBANDS =      -479.87535758
  atomic energy  EATOM  =     46688.37031544
  Solvation  Ediel_sol  =         0.00000000
  ---------------------------------------------------
  free energy    TOTEN  =      -310.89189383 eV

  energy without entropy =     -310.89189383  energy(sigma->0) =     -310.89189383


--------------------------------------------------------------------------------------------------------




--------------------------------------- Iteration      1(   7)  ---------------------------------------


    POTLOK:  cpu time    0.4794: real time    0.4807
    SETDIJ:  cpu time    0.0434: real time    0.0435
    EDDIAG:  cpu time    8.0329: real time    8.0602
  RMM-DIIS:  cpu time   31.7056: real time   31.7834
    ORTHCH:  cpu time    1.1853: real time    1.1881
 BZINTS: Fermi energy:  4.425987;642.000000 electrons
         Band energy:  25.343964;  BLOECHL correction: -0.307777
       DOS:  cpu time    0.0215: real time    0.0215
    CHARGE:  cpu time    2.5009: real time    2.5069
    MIXING:  cpu time    0.0120: real time    0.0120
    --------------------------------------------
      LOOP:  cpu time   43.9810: real time   44.0963

 eigenvalue-minimisations  :  7700
 total energy-change (2. order) :-0.6597382E+02  (-0.8080228E+01)
 number of electron     642.0000130 magnetization      93.9641900
 augmentation part      194.7164685 magnetization      67.9466498

 Broyden mixing:
  rms(total) = 0.88930E+01    rms(broyden)= 0.88930E+01
  rms(prec ) = 0.10956E+02
  weight for this iteration     100.00

 eigenvalues of (default mixing * dielectric matrix)
  average eigenvalue GAMMA=   0.9046
  1.3682  0.4409

 Free energy of the ion-electron system (eV)
  ---------------------------------------------------
  alpha Z        PSCENC =      2023.78361127
  Ewald energy   TEWEN  =    125210.30216697
  -Hartree energ DENC   =   -176243.25901567
  -exchange      EXHF   =         0.00000000
  -V(xc)+E(xc)   XCENC  =       273.34114078
  PAW double counting   =     56395.46651675   -54750.21441348
  entropy T*S    EENTRO =         0.00000000
  eigenvalues    EBANDS =        25.34396379
  atomic energy  EATOM  =     46688.37031544
  Solvation  Ediel_sol  =         0.00000000
  ---------------------------------------------------
  free energy    TOTEN  =      -376.86571416 eV

  energy without entropy =     -376.86571416  energy(sigma->0) =     -376.86571416


--------------------------------------------------------------------------------------------------------




--------------------------------------- Iteration      1(   8)  ---------------------------------------


    POTLOK:  cpu time    0.4805: real time    0.4817
    SETDIJ:  cpu time    0.0432: real time    0.0433
    EDDIAG:  cpu time    8.1498: real time    8.1695
  RMM-DIIS:  cpu time   32.1177: real time   32.2035
    ORTHCH:  cpu time    1.1902: real time    1.1931
 BZINTS: Fermi energy:  3.306123;642.000000 electrons
         Band energy:-285.420666;  BLOECHL correction: -0.000048
       DOS:  cpu time    0.0198: real time    0.0199
    CHARGE:  cpu time    2.4778: real time    2.4837
    MIXING:  cpu time    0.0126: real time    0.0126
    --------------------------------------------
      LOOP:  cpu time   44.4917: real time   44.6073

 eigenvalue-minimisations  :  7723
 total energy-change (2. order) : 0.8370413E+02  (-0.4865300E+01)
 number of electron     642.0000126 magnetization      86.2818230
 augmentation part      199.1075996 magnetization      63.0362189

 Broyden mixing:
  rms(total) = 0.48522E+01    rms(broyden)= 0.48522E+01
  rms(prec ) = 0.59662E+01
  weight for this iteration     100.00

 eigenvalues of (default mixing * dielectric matrix)
  average eigenvalue GAMMA=   0.9398
  1.9383  0.6299  0.2513

 Free energy of the ion-electron system (eV)
  ---------------------------------------------------
  alpha Z        PSCENC =      2023.78361127
  Ewald energy   TEWEN  =    125210.30216697
  -Hartree energ DENC   =   -175828.72961756
  -exchange      EXHF   =         0.00000000
  -V(xc)+E(xc)   XCENC  =       282.08313250
  PAW double counting   =     58981.80735399   -57365.35787613
  entropy T*S    EENTRO =         0.00000000
  eigenvalues    EBANDS =      -285.42066638
  atomic energy  EATOM  =     46688.37031544
  Solvation  Ediel_sol  =         0.00000000
  ---------------------------------------------------
  free energy    TOTEN  =      -293.16157991 eV

  energy without entropy =     -293.16157991  energy(sigma->0) =     -293.16157991


--------------------------------------------------------------------------------------------------------




--------------------------------------- Iteration      1(   9)  ---------------------------------------


    POTLOK:  cpu time    0.4804: real time    0.4815
    SETDIJ:  cpu time    0.0436: real time    0.0437
    EDDIAG:  cpu time    7.9658: real time    7.9850
  RMM-DIIS:  cpu time   31.8463: real time   31.9219
    ORTHCH:  cpu time    1.1925: real time    1.1954
 BZINTS: Fermi energy:  3.662038;642.000000 electrons
         Band energy:-357.683588;  BLOECHL correction: -0.026296
       DOS:  cpu time    0.0198: real time    0.0198
    CHARGE:  cpu time    2.4606: real time    2.4664
    MIXING:  cpu time    0.0121: real time    0.0121
    --------------------------------------------
      LOOP:  cpu time   44.0211: real time   44.1259

 eigenvalue-minimisations  :  7707
 total energy-change (2. order) :-0.4880834E+02  (-0.2229587E+01)
 number of electron     642.0000128 magnetization      80.0418873
 augmentation part      198.1356501 magnetization      58.4197841

 Broyden mixing:
  rms(total) = 0.71371E+01    rms(broyden)= 0.71371E+01
  rms(prec ) = 0.10974E+02
  weight for this iteration     100.00

 eigenvalues of (default mixing * dielectric matrix)
  average eigenvalue GAMMA=   0.8394
  2.2238  0.6961  0.2724  0.1654

 Free energy of the ion-electron system (eV)
  ---------------------------------------------------
  alpha Z        PSCENC =      2023.78361127
  Ewald energy   TEWEN  =    125210.30216697
  -Hartree energ DENC   =   -175787.58722759
  -exchange      EXHF   =         0.00000000
  -V(xc)+E(xc)   XCENC  =       277.79780793
  PAW double counting   =     60544.55308846   -58941.50609410
  entropy T*S    EENTRO =         0.00000000
  eigenvalues    EBANDS =      -357.68358830
  atomic energy  EATOM  =     46688.37031544
  Solvation  Ediel_sol  =         0.00000000
  ---------------------------------------------------
  free energy    TOTEN  =      -341.96991991 eV

  energy without entropy =     -341.96991991  energy(sigma->0) =     -341.96991991


--------------------------------------------------------------------------------------------------------




--------------------------------------- Iteration      1(  10)  ---------------------------------------


    POTLOK:  cpu time    0.4792: real time    0.4804
    SETDIJ:  cpu time    0.0441: real time    0.0442
    EDDIAG:  cpu time    7.9543: real time    7.9733
  RMM-DIIS:  cpu time   32.0041: real time   32.0822
    ORTHCH:  cpu time    1.2482: real time    1.2523
 BZINTS: Fermi energy:  3.377369;642.000000 electrons
         Band energy:-163.523297;  BLOECHL correction: -0.372505
       DOS:  cpu time    0.0206: real time    0.0207
    CHARGE:  cpu time    2.4759: real time    2.4833
    MIXING:  cpu time    0.0161: real time    0.0161
    --------------------------------------------
      LOOP:  cpu time   44.2424: real time   44.3524

 eigenvalue-minimisations  :  7721
 total energy-change (2. order) : 0.3624817E+02  (-0.1498415E+01)
 number of electron     642.0000124 magnetization      74.4031555
 augmentation part      198.2987489 magnetization      53.9055538

 Broyden mixing:
  rms(total) = 0.39207E+01    rms(broyden)= 0.39207E+01
  rms(prec ) = 0.46075E+01
  weight for this iteration     100.00

 eigenvalues of (default mixing * dielectric matrix)
  average eigenvalue GAMMA=   0.7724
  2.3406  0.7320  0.4016  0.2637  0.1241

 Free energy of the ion-electron system (eV)
  ---------------------------------------------------
  alpha Z        PSCENC =      2023.78361127
  Ewald energy   TEWEN  =    125210.30216697
  -Hartree energ DENC   =   -175929.76438092
  -exchange      EXHF   =         0.00000000
  -V(xc)+E(xc)   XCENC  =       271.43182841
  PAW double counting   =     61666.61408944   -60072.93607918
  entropy T*S    EENTRO =         0.00000000
  eigenvalues    EBANDS =      -163.52329739
  atomic energy  EATOM  =     46688.37031544
  Solvation  Ediel_sol  =         0.00000000
  ---------------------------------------------------
  free energy    TOTEN  =      -305.72174596 eV

  energy without entropy =     -305.72174596  energy(sigma->0) =     -305.72174596


--------------------------------------------------------------------------------------------------------




--------------------------------------- Iteration      1(  11)  ---------------------------------------


    POTLOK:  cpu time    0.4810: real time    0.4827
    SETDIJ:  cpu time    0.0429: real time    0.0430
    EDDIAG:  cpu time    7.9193: real time    7.9432
  RMM-DIIS:  cpu time   32.0620: real time   32.1438
    ORTHCH:  cpu time    1.1779: real time    1.1807
 BZINTS: Fermi energy:  3.458956;642.000000 electrons
         Band energy:-106.532035;  BLOECHL correction: -0.147312
       DOS:  cpu time    0.0204: real time    0.0204
    CHARGE:  cpu time    2.4706: real time    2.4765
    MIXING:  cpu time    0.0118: real time    0.0119
    --------------------------------------------
      LOOP:  cpu time   44.1859: real time   44.3022

 eigenvalue-minimisations  :  7730
 total energy-change (2. order) : 0.4182916E+00  (-0.6534085E+00)
 number of electron     642.0000123 magnetization      71.6597922
 augmentation part      198.0133721 magnetization      52.0741277

 Broyden mixing:
  rms(total) = 0.21281E+01    rms(broyden)= 0.21281E+01
  rms(prec ) = 0.22589E+01
  weight for this iteration     100.00

 eigenvalues of (default mixing * dielectric matrix)
  average eigenvalue GAMMA=   0.7179
  2.1801  0.7165  0.7165  0.2855  0.2855  0.1236

 Free energy of the ion-electron system (eV)
  ---------------------------------------------------
  alpha Z        PSCENC =      2023.78361127
  Ewald energy   TEWEN  =    125210.30216697
  -Hartree energ DENC   =   -175976.75653138
  -exchange      EXHF   =         0.00000000
  -V(xc)+E(xc)   XCENC  =       265.39268162
  PAW double counting   =     62081.09482103   -60490.95848457
  entropy T*S    EENTRO =         0.00000000
  eigenvalues    EBANDS =      -106.53203470
  atomic energy  EATOM  =     46688.37031544
  Solvation  Ediel_sol  =         0.00000000
  ---------------------------------------------------
  free energy    TOTEN  =      -305.30345432 eV

  energy without entropy =     -305.30345432  energy(sigma->0) =     -305.30345432


--------------------------------------------------------------------------------------------------------




--------------------------------------- Iteration      1(  12)  ---------------------------------------


    POTLOK:  cpu time    0.4787: real time    0.4799
    SETDIJ:  cpu time    0.0431: real time    0.0432
    EDDIAG:  cpu time    7.9179: real time    7.9370
  RMM-DIIS:  cpu time   32.0665: real time   32.1430
    ORTHCH:  cpu time    1.1848: real time    1.1876
 BZINTS: Fermi energy:  3.385647;642.000000 electrons
         Band energy:-141.863602;  BLOECHL correction: -0.206262
       DOS:  cpu time    0.0198: real time    0.0199
    CHARGE:  cpu time    2.4840: real time    2.4899
    MIXING:  cpu time    0.0140: real time    0.0140
    --------------------------------------------
      LOOP:  cpu time   44.2089: real time   44.3146

 eigenvalue-minimisations  :  7726
 total energy-change (2. order) :-0.5446945E+01  (-0.1589081E+00)
 number of electron     642.0000122 magnetization      66.2292477
 augmentation part      197.6341175 magnetization      47.0510836

 Broyden mixing:
  rms(total) = 0.17662E+01    rms(broyden)= 0.17662E+01
  rms(prec ) = 0.18544E+01
  weight for this iteration     100.00

 eigenvalues of (default mixing * dielectric matrix)
  average eigenvalue GAMMA=   0.7142
  2.1682  0.7062  0.7062  0.7346  0.2807  0.2807  0.1231

 Free energy of the ion-electron system (eV)
  ---------------------------------------------------
  alpha Z        PSCENC =      2023.78361127
  Ewald energy   TEWEN  =    125210.30216697
  -Hartree energ DENC   =   -175952.21390405
  -exchange      EXHF   =         0.00000000
  -V(xc)+E(xc)   XCENC  =       263.42407285
  PAW double counting   =     61299.01803570   -59701.57109586
  entropy T*S    EENTRO =         0.00000000
  eigenvalues    EBANDS =      -141.86360196
  atomic energy  EATOM  =     46688.37031544
  Solvation  Ediel_sol  =         0.00000000
  ---------------------------------------------------
  free energy    TOTEN  =      -310.75039963 eV

  energy without entropy =     -310.75039963  energy(sigma->0) =     -310.75039963


--------------------------------------------------------------------------------------------------------




--------------------------------------- Iteration      1(  13)  ---------------------------------------


    POTLOK:  cpu time    0.4792: real time    0.4804
    SETDIJ:  cpu time    0.0432: real time    0.0433
    EDDIAG:  cpu time    7.9954: real time    8.0145
  RMM-DIIS:  cpu time   31.8174: real time   31.9114
    ORTHCH:  cpu time    1.2228: real time    1.2266
 BZINTS: Fermi energy:  3.385765;642.000000 electrons
         Band energy:-137.895144;  BLOECHL correction: -0.225722
       DOS:  cpu time    0.0210: real time    0.0211
    CHARGE:  cpu time    2.4277: real time    2.4351
    MIXING:  cpu time    0.0125: real time    0.0126
    --------------------------------------------
      LOOP:  cpu time   44.0194: real time   44.1450

 eigenvalue-minimisations  :  7717
 total energy-change (2. order) :-0.6235331E+01  (-0.1790968E+00)
 number of electron     642.0000122 magnetization      57.2014627
 augmentation part      197.5685855 magnetization      38.9807412

 Broyden mixing:
  rms(total) = 0.17612E+01    rms(broyden)= 0.17612E+01
  rms(prec ) = 0.18984E+01
  weight for this iteration     100.00

 eigenvalues of (default mixing * dielectric matrix)
  average eigenvalue GAMMA=   0.7230
  2.1087  0.8780  0.8780  0.8760  0.3584  0.2808  0.2808  0.1230

 Free energy of the ion-electron system (eV)
  ---------------------------------------------------
  alpha Z        PSCENC =      2023.78361127
  Ewald energy   TEWEN  =    125210.30216697
  -Hartree energ DENC   =   -175958.80523141
  -exchange      EXHF   =         0.00000000
  -V(xc)+E(xc)   XCENC  =       260.28471135
  PAW double counting   =     61214.18424483   -59617.21040438
  entropy T*S    EENTRO =         0.00000000
  eigenvalues    EBANDS =      -137.89514443
  atomic energy  EATOM  =     46688.37031544
  Solvation  Ediel_sol  =         0.00000000
  ---------------------------------------------------
  free energy    TOTEN  =      -316.98573036 eV

  energy without entropy =     -316.98573036  energy(sigma->0) =     -316.98573036


--------------------------------------------------------------------------------------------------------




--------------------------------------- Iteration      1(  14)  ---------------------------------------


    POTLOK:  cpu time    0.4694: real time    0.4707
    SETDIJ:  cpu time    0.0424: real time    0.0425
    EDDIAG:  cpu time    8.0672: real time    8.0915
  RMM-DIIS:  cpu time   31.9324: real time   32.0302
    ORTHCH:  cpu time    1.4366: real time    1.4409
 BZINTS: Fermi energy:  3.386915;642.000000 electrons
         Band energy:-136.646573;  BLOECHL correction: -0.191823
       DOS:  cpu time    0.0212: real time    0.0213
    CHARGE:  cpu time    2.4539: real time    2.4611
    MIXING:  cpu time    0.0147: real time    0.0148
    --------------------------------------------
      LOOP:  cpu time   44.4378: real time   44.5728

 eigenvalue-minimisations  :  7715
 total energy-change (2. order) :-0.1044714E+02  (-0.3831195E+00)
 number of electron     642.0000122 magnetization      45.5251048
 augmentation part      197.3661088 magnetization      29.3693137

 Broyden mixing:
  rms(total) = 0.15033E+01    rms(broyden)= 0.15033E+01
  rms(prec ) = 0.16267E+01
  weight for this iteration     100.00

 eigenvalues of (default mixing * dielectric matrix)
  average eigenvalue GAMMA=   0.7680
  1.9538  1.9538  0.7848  0.7848  0.4996  0.1230  0.2822  0.2822  0.2477

 Free energy of the ion-electron system (eV)
  ---------------------------------------------------
  alpha Z        PSCENC =      2023.78361127
  Ewald energy   TEWEN  =    125210.30216697
  -Hartree energ DENC   =   -175962.59962900
  -exchange      EXHF   =         0.00000000
  -V(xc)+E(xc)   XCENC  =       253.58368591
  PAW double counting   =     61148.65765726   -59552.88410292
  entropy T*S    EENTRO =         0.00000000
  eigenvalues    EBANDS =      -136.64657265
  atomic energy  EATOM  =     46688.37031544
  Solvation  Ediel_sol  =         0.00000000
  ---------------------------------------------------
  free energy    TOTEN  =      -327.43286772 eV

  energy without entropy =     -327.43286772  energy(sigma->0) =     -327.43286772


--------------------------------------------------------------------------------------------------------




--------------------------------------- Iteration      1(  15)  ---------------------------------------


    POTLOK:  cpu time    0.4669: real time    0.4683
    SETDIJ:  cpu time    0.0423: real time    0.0424
    EDDIAG:  cpu time    8.0723: real time    8.0972
  RMM-DIIS:  cpu time   32.0628: real time   32.1659
    ORTHCH:  cpu time    1.2336: real time    1.2376
 BZINTS: Fermi energy:  3.365118;642.000000 electrons
         Band energy:-154.366200;  BLOECHL correction: -0.068078
       DOS:  cpu time    0.0222: real time    0.0223
    CHARGE:  cpu time    2.4070: real time    2.4151
    MIXING:  cpu time    0.0158: real time    0.0158
    --------------------------------------------
      LOOP:  cpu time   44.3229: real time   44.4646

 eigenvalue-minimisations  :  7698
 total energy-change (2. order) :-0.1598963E+02  (-0.7389267E+00)
 number of electron     642.0000122 magnetization      34.3461963
 augmentation part      197.2412209 magnetization      22.4475738

 Broyden mixing:
  rms(total) = 0.11200E+01    rms(broyden)= 0.11200E+01
  rms(prec ) = 0.11592E+01
  weight for this iteration     100.00

 eigenvalues of (default mixing * dielectric matrix)
  average eigenvalue GAMMA=   0.8197
  2.0974  2.0974  0.9971  0.9971  0.5502  0.5502  0.1230  0.2771  0.2771  0.2307

 Free energy of the ion-electron system (eV)
  ---------------------------------------------------
  alpha Z        PSCENC =      2023.78361127
  Ewald energy   TEWEN  =    125210.30216697
  -Hartree energ DENC   =   -175951.33020545
  -exchange      EXHF   =         0.00000000
  -V(xc)+E(xc)   XCENC  =       243.27316250
  PAW double counting   =     60845.87434057   -59249.32969186
  entropy T*S    EENTRO =         0.00000000
  eigenvalues    EBANDS =      -154.36620007
  atomic energy  EATOM  =     46688.37031544
  Solvation  Ediel_sol  =         0.00000000
  ---------------------------------------------------
  free energy    TOTEN  =      -343.42250064 eV

  energy without entropy =     -343.42250064  energy(sigma->0) =     -343.42250064


--------------------------------------------------------------------------------------------------------




--------------------------------------- Iteration      1(  16)  ---------------------------------------


    POTLOK:  cpu time    0.4738: real time    0.4753
    SETDIJ:  cpu time    0.0422: real time    0.0423
    EDDIAG:  cpu time    8.0490: real time    8.0763
  RMM-DIIS:  cpu time   32.0171: real time   32.1339
    ORTHCH:  cpu time    1.2429: real time    1.2471
 BZINTS: Fermi energy:  3.295348;642.000000 electrons
         Band energy:-173.350886;  BLOECHL correction: -0.101408
       DOS:  cpu time    0.0199: real time    0.0199
    CHARGE:  cpu time    2.4021: real time    2.4107
    MIXING:  cpu time    0.0144: real time    0.0144
    --------------------------------------------
      LOOP:  cpu time   44.2614: real time   44.4198

 eigenvalue-minimisations  :  7704
 total energy-change (2. order) :-0.1168060E+02  (-0.6507757E+00)
 number of electron     642.0000122 magnetization      22.3062555
 augmentation part      197.1206707 magnetization      11.6690579

 Broyden mixing:
  rms(total) = 0.85840E+00    rms(broyden)= 0.85840E+00
  rms(prec ) = 0.91811E+00
  weight for this iteration     100.00

 eigenvalues of (default mixing * dielectric matrix)
  average eigenvalue GAMMA=   0.9899
  4.1039  2.2095  0.9483  0.9483  0.7768  0.4952  0.4952  0.1230  0.2797  0.2797
  0.2290

 Free energy of the ion-electron system (eV)
  ---------------------------------------------------
  alpha Z        PSCENC =      2023.78361127
  Ewald energy   TEWEN  =    125210.30216697
  -Hartree energ DENC   =   -175934.86422101
  -exchange      EXHF   =         0.00000000
  -V(xc)+E(xc)   XCENC  =       235.56628224
  PAW double counting   =     60833.06895004   -59237.97932256
  entropy T*S    EENTRO =         0.00000000
  eigenvalues    EBANDS =      -173.35088580
  atomic energy  EATOM  =     46688.37031544
  Solvation  Ediel_sol  =         0.00000000
  ---------------------------------------------------
  free energy    TOTEN  =      -355.10310342 eV

  energy without entropy =     -355.10310342  energy(sigma->0) =     -355.10310342


--------------------------------------------------------------------------------------------------------




--------------------------------------- Iteration      1(  17)  ---------------------------------------


    POTLOK:  cpu time    0.4714: real time    0.4733
    SETDIJ:  cpu time    0.0424: real time    0.0426
    EDDIAG:  cpu time    8.0470: real time    8.0757
  RMM-DIIS:  cpu time   32.7579: real time   32.8768
    ORTHCH:  cpu time    1.2156: real time    1.2201
 BZINTS: Fermi energy:  3.212024;642.000000 electrons
         Band energy:-206.318402;  BLOECHL correction: -0.144606
       DOS:  cpu time    0.0227: real time    0.0227
    CHARGE:  cpu time    2.4850: real time    2.4939
    MIXING:  cpu time    0.0164: real time    0.0165
    --------------------------------------------
      LOOP:  cpu time   45.0585: real time   45.2215

 eigenvalue-minimisations  :  7700
 total energy-change (2. order) :-0.1090449E+02  (-0.8804505E+00)
 number of electron     642.0000123 magnetization      18.7749122
 augmentation part      197.0031633 magnetization       9.8272500

 Broyden mixing:
  rms(total) = 0.83910E+00    rms(broyden)= 0.83910E+00
  rms(prec ) = 0.94836E+00
  weight for this iteration     100.00

 eigenvalues of (default mixing * dielectric matrix)
  average eigenvalue GAMMA=   1.0898
  5.7078  2.3245  0.9702  0.9702  0.8830  0.5119  0.5119  0.1230  0.2787  0.2787
  0.2901  0.2280

 Free energy of the ion-electron system (eV)
  ---------------------------------------------------
  alpha Z        PSCENC =      2023.78361127
  Ewald energy   TEWEN  =    125210.30216697
  -Hartree energ DENC   =   -175905.05301731
  -exchange      EXHF   =         0.00000000
  -V(xc)+E(xc)   XCENC  =       228.36301615
  PAW double counting   =     60708.94039007   -59114.39567236
  entropy T*S    EENTRO =         0.00000000
  eigenvalues    EBANDS =      -206.31840159
  atomic energy  EATOM  =     46688.37031544
  Solvation  Ediel_sol  =         0.00000000
  ---------------------------------------------------
  free energy    TOTEN  =      -366.00759135 eV

  energy without entropy =     -366.00759135  energy(sigma->0) =     -366.00759135


--------------------------------------------------------------------------------------------------------




--------------------------------------- Iteration      1(  18)  ---------------------------------------


    POTLOK:  cpu time    0.4922: real time    0.4941
    SETDIJ:  cpu time    0.0480: real time    0.0482
    EDDIAG:  cpu time    8.0760: real time    8.1057
  RMM-DIIS:  cpu time   32.6560: real time   32.7764
    ORTHCH:  cpu time    1.3161: real time    1.3211
 BZINTS: Fermi energy:  3.165838;642.000000 electrons
         Band energy:-237.925053;  BLOECHL correction: -0.106502
       DOS:  cpu time    0.0219: real time    0.0220
    CHARGE:  cpu time    2.4877: real time    2.4966
    MIXING:  cpu time    0.0176: real time    0.0177
    --------------------------------------------
      LOOP:  cpu time   45.1156: real time   45.2818

 eigenvalue-minimisations  :  7710
 total energy-change (2. order) :-0.3176699E+01  (-0.2837695E+00)
 number of electron     642.0000123 magnetization      18.0470660
 augmentation part      196.9452878 magnetization      10.1707369

 Broyden mixing:
  rms(total) = 0.56222E+00    rms(broyden)= 0.56222E+00
  rms(prec ) = 0.62237E+00
  weight for this iteration     100.00

 eigenvalues of (default mixing * dielectric matrix)
  average eigenvalue GAMMA=   1.1018
  6.3086  2.3444  1.0649  1.0649  0.8167  0.5513  0.5513  0.4648  0.1230  0.2788
  0.2788  0.2508  0.2248

 Free energy of the ion-electron system (eV)
  ---------------------------------------------------
  alpha Z        PSCENC =      2023.78361127
  Ewald energy   TEWEN  =    125210.30216697
  -Hartree energ DENC   =   -175875.81888220
  -exchange      EXHF   =         0.00000000
  -V(xc)+E(xc)   XCENC  =       226.24079854
  PAW double counting   =     60527.36122447   -58931.49847179
  entropy T*S    EENTRO =         0.00000000
  eigenvalues    EBANDS =      -237.92505347
  atomic energy  EATOM  =     46688.37031544
  Solvation  Ediel_sol  =         0.00000000
  ---------------------------------------------------
  free energy    TOTEN  =      -369.18429077 eV

  energy without entropy =     -369.18429077  energy(sigma->0) =     -369.18429077


--------------------------------------------------------------------------------------------------------




--------------------------------------- Iteration      1(  19)  ---------------------------------------


    POTLOK:  cpu time    0.5113: real time    0.5128
    SETDIJ:  cpu time    0.0450: real time    0.0451
    EDDIAG:  cpu time    8.0079: real time    8.0372
  RMM-DIIS:  cpu time   32.5078: real time   32.5872
    ORTHCH:  cpu time    1.2078: real time    1.2107
 BZINTS: Fermi energy:  3.122018;642.000000 electrons
         Band energy:-266.039867;  BLOECHL correction: -0.101870
       DOS:  cpu time    0.0217: real time    0.0218
    CHARGE:  cpu time    2.4868: real time    2.4928
    MIXING:  cpu time    0.0175: real time    0.0175
    --------------------------------------------
      LOOP:  cpu time   44.8058: real time   44.9251

 eigenvalue-minimisations  :  7706
 total energy-change (2. order) :-0.1058379E+01  (-0.6948351E-01)
 number of electron     642.0000123 magnetization      17.1164192
 augmentation part      196.9334876 magnetization       9.5110273

 Broyden mixing:
  rms(total) = 0.53288E+00    rms(broyden)= 0.53288E+00
  rms(prec ) = 0.59862E+00
  weight for this iteration     100.00

 eigenvalues of (default mixing * dielectric matrix)
  average eigenvalue GAMMA=   1.1134
  6.8834  2.3441  1.2170  1.2170  0.6838  0.6838  0.5825  0.5825  0.1230  0.2793
  0.2793  0.2868  0.2280  0.1969

 Free energy of the ion-electron system (eV)
  ---------------------------------------------------
  alpha Z        PSCENC =      2023.78361127
  Ewald energy   TEWEN  =    125210.30216697
  -Hartree energ DENC   =   -175848.26935464
  -exchange      EXHF   =         0.00000000
  -V(xc)+E(xc)   XCENC  =       225.38121008
  PAW double counting   =     60496.97230691   -58900.74305873
  entropy T*S    EENTRO =         0.00000000
  eigenvalues    EBANDS =      -266.03986675
  atomic energy  EATOM  =     46688.37031544
  Solvation  Ediel_sol  =         0.00000000
  ---------------------------------------------------
  free energy    TOTEN  =      -370.24266944 eV

  energy without entropy =     -370.24266944  energy(sigma->0) =     -370.24266944


--------------------------------------------------------------------------------------------------------




[...]
 
   4 f  =    3.102058 THz    19.490805 2PiTHz  103.473515 cm-1    12.829085 meV
             X         Y         Z           dx          dy          dz
     10.559976  0.000014  1.115846            0           0           0  
      2.640006  1.523756  3.548287            0           0           0  
     -0.000544  3.048496  5.948466            0           0           0  
      5.279900  9.145226  8.379878            0           0           0  
      9.239976  2.286321  1.115846            0           0           0  
      1.319647  3.810711  3.547513            0           0           0  
      1.320209  0.761851  5.948082            0           0           0  
      9.239744  2.286126  8.379939            0           0           0  
      1.319975  2.286321  1.115846            0           0           0  
     -1.319785  3.810380  3.548890            0           0           0  
      3.959652  0.762097  5.947725            0           0           0  
      1.319523  2.285948  8.378330            0           0           0  
      2.639975  0.000014  1.115846            0           0           0  
      0.000072  1.524111  3.548127            0           0           0  
      2.640572  3.048159  5.949216            0           0           0  
      2.640161  0.000094  8.380347            0           0           0  
      5.279976  0.000014  1.115846            0           0           0  
      7.919986  1.524218  3.548409            0           0           0  
      5.279867  3.048692  5.947829            0           0           0  
      0.000036  9.145220  8.379751            0           0           0  
      3.959975  2.286321  1.115846            0           0           0  
      6.599849  3.810268  3.548474            0           0           0  
      6.600074  0.762060  5.948410            0           0           0  
      3.960885  2.285827  8.379633            0           0           0  
      6.599975  2.286321  1.115846            0           0           0  
      3.960291  3.810666  3.548363            0           0           0  
      9.240190  0.762139  5.948138            0           0           0  
      6.600017  2.286259  8.379681            0           0           0  
      7.919975  0.000014  1.115846            0           0           0  
      5.279923  1.524257  3.548393            0           0           0  
      7.920171  3.048560  5.948137            0           0           0  
      2.640011  9.145198  8.380050            0           0           0  
      7.919976  4.572628  1.115846            0           0           0  
      0.000230  6.096652  3.548934            0           0           0  
     -2.639937  7.621065  5.947771            0           0           0  
     -2.639788  4.572621  8.379734            0           0           0  
      6.599976  6.858935  1.115846            0           0           0  
     -1.319942  8.383430  3.548485            0           0           0  
     -1.319929  5.334678  5.947563            0           0           0  
     -3.959964  6.858913  8.379726            0           0           0  
     -1.320025  6.858935  1.115846            0           0           0  
     -3.959969  8.384035  3.548795            0           0           0  
      1.319717  5.335242  5.948298            0           0           0  
     -1.319920  6.858761  8.379726            0           0           0  
     -0.000025  4.572628  1.115846            0           0           0  
     -2.639790  6.096647  3.548059            0           0           0  
      0.000016  7.620826  5.948114            0           0           0  
     -0.000226  4.572737  8.379968            0           0           0  
      2.639975  4.572628  1.115846            0           0           0  
      5.279329  6.096362  3.548661            0           0           0  
      2.640042  7.620837  5.948153            0           0           0  
      2.640125  4.573223  8.378426            0           0           0  
      1.319976  6.858935  1.115846            0           0           0  
      3.959934  8.383175  3.548600            0           0           0  
      3.960292  5.334730  5.948048            0           0           0  
      1.320013  6.859264  8.380186            0           0           0  
      3.959975  6.858935  1.115846            0           0           0  
      1.319978  8.383107  3.548439            0           0           0  
      6.600014  5.334673  5.947792            0           0           0  
      3.959978  6.858986  8.379832            0           0           0  
      5.279975  4.572628  1.115846            0           0           0  
      2.640032  6.096752  3.548263            0           0           0  
      5.279951  7.621051  5.947869            0           0           0  
      5.279924  4.572423  8.380144            0           0           0  
      1.840735  3.761294 11.341195    -0.063644    0.120848    0.789837  
      2.147720  3.084736 11.461029    -0.011778   -0.099322   -0.589491  
 
   5 f/i=    5.137641 THz    32.280750 2PiTHz  171.373247 cm-1    21.247582 meV
             X         Y         Z           dx          dy          dz
     10.559976  0.000014  1.115846            0           0           0  
      2.640006  1.523756  3.548287            0           0           0  
     -0.000544  3.048496  5.948466            0           0           0  
      5.279900  9.145226  8.379878            0           0           0  
      9.239976  2.286321  1.115846            0           0           0  
      1.319647  3.810711  3.547513            0           0           0  
      1.320209  0.761851  5.948082            0           0           0  
      9.239744  2.286126  8.379939            0           0           0  
      1.319975  2.286321  1.115846            0           0           0  
     -1.319785  3.810380  3.548890            0           0           0  
      3.959652  0.762097  5.947725            0           0           0  
      1.319523  2.285948  8.378330            0           0           0  
      2.639975  0.000014  1.115846            0           0           0  
      0.000072  1.524111  3.548127            0           0           0  
      2.640572  3.048159  5.949216            0           0           0  
      2.640161  0.000094  8.380347            0           0           0  
      5.279976  0.000014  1.115846            0           0           0  
      7.919986  1.524218  3.548409            0           0           0  
      5.279867  3.048692  5.947829            0           0           0  
      0.000036  9.145220  8.379751            0           0           0  
      3.959975  2.286321  1.115846            0           0           0  
      6.599849  3.810268  3.548474            0           0           0  
      6.600074  0.762060  5.948410            0           0           0  
      3.960885  2.285827  8.379633            0           0           0  
      6.599975  2.286321  1.115846            0           0           0  
      3.960291  3.810666  3.548363            0           0           0  
      9.240190  0.762139  5.948138            0           0           0  
      6.600017  2.286259  8.379681            0           0           0  
      7.919975  0.000014  1.115846            0           0           0  
      5.279923  1.524257  3.548393            0           0           0  
      7.920171  3.048560  5.948137            0           0           0  
      2.640011  9.145198  8.380050            0           0           0  
      7.919976  4.572628  1.115846            0           0           0  
      0.000230  6.096652  3.548934            0           0           0  
     -2.639937  7.621065  5.947771            0           0           0  
     -2.639788  4.572621  8.379734            0           0           0  
      6.599976  6.858935  1.115846            0           0           0  
     -1.319942  8.383430  3.548485            0           0           0  
     -1.319929  5.334678  5.947563            0           0           0  
     -3.959964  6.858913  8.379726            0           0           0  
     -1.320025  6.858935  1.115846            0           0           0  
     -3.959969  8.384035  3.548795            0           0           0  
      1.319717  5.335242  5.948298            0           0           0  
     -1.319920  6.858761  8.379726            0           0           0  
     -0.000025  4.572628  1.115846            0           0           0  
     -2.639790  6.096647  3.548059            0           0           0  
      0.000016  7.620826  5.948114            0           0           0  
     -0.000226  4.572737  8.379968            0           0           0  
      2.639975  4.572628  1.115846            0           0           0  
      5.279329  6.096362  3.548661            0           0           0  
      2.640042  7.620837  5.948153            0           0           0  
      2.640125  4.573223  8.378426            0           0           0  
      1.319976  6.858935  1.115846            0           0           0  
      3.959934  8.383175  3.548600            0           0           0  
      3.960292  5.334730  5.948048            0           0           0  
      1.320013  6.859264  8.380186            0           0           0  
      3.959975  6.858935  1.115846            0           0           0  
      1.319978  8.383107  3.548439            0           0           0  
      6.600014  5.334673  5.947792            0           0           0  
      3.959978  6.858986  8.379832            0           0           0  
      5.279975  4.572628  1.115846            0           0           0  
      2.640032  6.096752  3.548263            0           0           0  
      5.279951  7.621051  5.947869            0           0           0  
      5.279924  4.572423  8.380144            0           0           0  
      1.840735  3.761294 11.341195     0.657947    0.199650    0.085774  
      2.147720  3.084736 11.461029     0.689587    0.207500    0.036081  
 
   6 f/i=    9.434518 THz    59.278825 2PiTHz  314.701639 cm-1    39.018044 meV
             X         Y         Z           dx          dy          dz
     10.559976  0.000014  1.115846            0           0           0  
      2.640006  1.523756  3.548287            0           0           0  
     -0.000544  3.048496  5.948466            0           0           0  
      5.279900  9.145226  8.379878            0           0           0  
      9.239976  2.286321  1.115846            0           0           0  
      1.319647  3.810711  3.547513            0           0           0  
      1.320209  0.761851  5.948082            0           0           0  
      9.239744  2.286126  8.379939            0           0           0  
      1.319975  2.286321  1.115846            0           0           0  
     -1.319785  3.810380  3.548890            0           0           0  
      3.959652  0.762097  5.947725            0           0           0  
      1.319523  2.285948  8.378330            0           0           0  
      2.639975  0.000014  1.115846            0           0           0  
      0.000072  1.524111  3.548127            0           0           0  
      2.640572  3.048159  5.949216            0           0           0  
      2.640161  0.000094  8.380347            0           0           0  
      5.279976  0.000014  1.115846            0           0           0  
      7.919986  1.524218  3.548409            0           0           0  
      5.279867  3.048692  5.947829            0           0           0  
      0.000036  9.145220  8.379751            0           0           0  
      3.959975  2.286321  1.115846            0           0           0  
      6.599849  3.810268  3.548474            0           0           0  
      6.600074  0.762060  5.948410            0           0           0  
      3.960885  2.285827  8.379633            0           0           0  
      6.599975  2.286321  1.115846            0           0           0  
      3.960291  3.810666  3.548363            0           0           0  
      9.240190  0.762139  5.948138            0           0           0  
      6.600017  2.286259  8.379681            0           0           0  
      7.919975  0.000014  1.115846            0           0           0  
      5.279923  1.524257  3.548393            0           0           0  
      7.920171  3.048560  5.948137            0           0           0  
      2.640011  9.145198  8.380050            0           0           0  
      7.919976  4.572628  1.115846            0           0           0  
      0.000230  6.096652  3.548934            0           0           0  
     -2.639937  7.621065  5.947771            0           0           0  
     -2.639788  4.572621  8.379734            0           0           0  
      6.599976  6.858935  1.115846            0           0           0  
     -1.319942  8.383430  3.548485            0           0           0  
     -1.319929  5.334678  5.947563            0           0           0  
     -3.959964  6.858913  8.379726            0           0           0  
     -1.320025  6.858935  1.115846            0           0           0  
     -3.959969  8.384035  3.548795            0           0           0  
      1.319717  5.335242  5.948298            0           0           0  
     -1.319920  6.858761  8.379726            0           0           0  
     -0.000025  4.572628  1.115846            0           0           0  
     -2.639790  6.096647  3.548059            0           0           0  
      0.000016  7.620826  5.948114            0           0           0  
     -0.000226  4.572737  8.379968            0           0           0  
      2.639975  4.572628  1.115846            0           0           0  
      5.279329  6.096362  3.548661            0           0           0  
      2.640042  7.620837  5.948153            0           0           0  
      2.640125  4.573223  8.378426            0           0           0  
      1.319976  6.858935  1.115846            0           0           0  
      3.959934  8.383175  3.548600            0           0           0  
      3.960292  5.334730  5.948048            0           0           0  
      1.320013  6.859264  8.380186            0           0           0  
      3.959975  6.858935  1.115846            0           0           0  
      1.319978  8.383107  3.548439            0           0           0  
      6.600014  5.334673  5.947792            0           0           0  
      3.959978  6.858986  8.379832            0           0           0  
      5.279975  4.572628  1.115846            0           0           0  
      2.640032  6.096752  3.548263            0           0           0  
      5.279951  7.621051  5.947869            0           0           0  
      5.279924  4.572423  8.380144            0           0           0  
      1.840735  3.761294 11.341195    -0.178208    0.688325   -0.067469  
      2.147720  3.084736 11.461029    -0.218650    0.663839   -0.037530  
 
 Finite differences POTIM=  1.500000000000000E-002
  LATTYP: Found a hexagonal cell.
 ALAT       =    10.5600004196
 C/A-ratio  =     1.8939393187
  
  Lattice vectors:
  
 A1 = (  10.5600004196,   0.0000000000,   0.0000000000)
 A2 = (  -5.2800002098,   9.1452286274,   0.0000000000)
 A3 = (   0.0000000000,   0.0000000000,  20.0000000000)


Analysis of symmetry for initial positions (statically):
=====================================================================
 Subroutine PRICEL returns:
 Original cell was already a primitive cell.
 

 Routine SETGRP: Setting up the symmetry group for a 
 hexagonal supercell.


 Subroutine GETGRP returns: Found  1 space group operations
 (whereof  1 operations were pure point group operations)
 out of a pool of 24 trial point group operations.


The static configuration has the point symmetry C_1 .


Analysis of symmetry for dynamics (positions and initial velocities):
=====================================================================
 Subroutine PRICEL returns:
 Original cell was already a primitive cell.
 

 Routine SETGRP: Setting up the symmetry group for a 
 hexagonal supercell.


 Subroutine GETGRP returns: Found  1 space group operations
 (whereof  1 operations were pure point group operations)
 out of a pool of 24 trial point group operations.


The dynamic configuration has the point symmetry C_1 .


Analysis of constrained symmetry for selective dynamics:
=====================================================================
 Subroutine PRICEL returns:
 Original cell was already a primitive cell.
 

 Routine SETGRP: Setting up the symmetry group for a 
 hexagonal supercell.


 Subroutine GETGRP returns: Found  1 space group operations
 (whereof  1 operations were pure point group operations)
 out of a pool of 24 trial point group operations.


The constrained configuration has the point symmetry C_1 .


Analysis of structural, dynamic, and magnetic symmetry:
=====================================================================
 Subroutine PRICEL returns:
 Original cell was already a primitive cell.
 

 Routine SETGRP: Setting up the symmetry group for a 
 hexagonal supercell.


 Subroutine GETGRP returns: Found  1 space group operations
 (whereof  1 operations were pure point group operations)
 out of a pool of 24 trial point group operations.


The magnetic configuration has the point symmetry C_1 .


 Subroutine INISYM returns: Found  1 space group operations
 (whereof  1 operations are pure point group operations),
 and found     1 'primitive' translations

 
 KPOINTS: mesh auto                               

Automatic generation of k-mesh.
Space group operators:
 irot       det(A)        alpha          n_x          n_y          n_z        tau_x        tau_y        tau_z
    1     1.000000     0.000000     1.000000     0.000000     0.000000     0.000000     0.000000     0.000000
 
 Subroutine IBZKPT returns following result:
 ===========================================
 
 Found      4 irreducible k-points:
 
 Following reciprocal coordinates:
            Coordinates               Weight
  0.000000  0.000000  0.000000      1.000000
  0.500000 -0.000000  0.000000      1.000000
  0.000000  0.500000  0.000000      1.000000
  0.500000  0.500000  0.000000      1.000000
 
 Following cartesian coordinates:
            Coordinates               Weight
  0.000000  0.000000  0.000000      1.000000
  0.047348  0.027337  0.000000      1.000000
  0.000000  0.054673  0.000000      1.000000
  0.047348  0.082010  0.000000      1.000000
 
 TETIRR: Found     12 inequivalent tetrahedra from       24
     LOOP+:  cpu time 1405.6168: real time 1409.7401
    4ORBIT:  cpu time    0.0000: real time    0.0000
 BZINTS: Fermi energy:  2.743395;642.000000 electrons
         Band energy:-498.252789;  BLOECHL correction: -0.115058

 total amount of memory used by VASP MPI-rank0   335957. kBytes
=======================================================================

   base      :      30000. kBytes
   nonlr-proj:      89575. kBytes
   fftplans  :      13334. kBytes
   grid      :     112154. kBytes
   one-center:       2052. kBytes
   wavefun   :      88842. kBytes
 
  
  
 General timing and accounting informations for this job:
 ========================================================
  
                  Total CPU time used (sec):    24894.600
                            User time (sec):    24790.976
                          System time (sec):      103.623
                         Elapsed time (sec):    24967.693
  
                   Maximum memory used (kb):     1475632.
                   Average memory used (kb):           0.
  
                          Minor page faults:      8669726
                          Major page faults:            0
                 Voluntary context switches:         4839
