 vasp.5.4.4.18Apr17-6-g9f103f2a35 (build Nov 30 2020 22:55:02) complex          
  
 executed on             LinuxIFC date 2023.06.11  18:26:50
 running on   40 total cores
 distrk:  each k-point on   40 cores,    1 groups
 distr:  one band on NCORES_PER_BAND=   1 cores,   40 groups


--------------------------------------------------------------------------------------------------------


 INCAR:
 POTCAR:    PAW_PBE Pt 04Feb2005                  
 POTCAR:    PAW_PBE H 15Jun2001                   

 ----------------------------------------------------------------------------- 
|                                                                             |
|           W    W    AA    RRRRR   N    N  II  N    N   GGGG   !!!           |
|           W    W   A  A   R    R  NN   N  II  NN   N  G    G  !!!           |
|           W    W  A    A  R    R  N N  N  II  N N  N  G       !!!           |
|           W WW W  AAAAAA  RRRRR   N  N N  II  N  N N  G  GGG   !            |
|           WW  WW  A    A  R   R   N   NN  II  N   NN  G    G                |
|           W    W  A    A  R    R  N    N  II  N    N   GGGG   !!!           |
|                                                                             |
|      For optimal performance we recommend to set                            |
|        NCORE= 4 - approx SQRT( number of cores)                             |
|      NCORE specifies how many cores store one orbital (NPAR=cpu/NCORE).     |
|      This setting can  greatly improve the performance of VASP for DFT.     |
|      The default,   NCORE=1            might be grossly inefficient         |
|      on modern multi-core architectures or massively parallel machines.     |
|      Do your own testing !!!!                                               |
|      Unfortunately you need to use the default for GW and RPA calculations. |
|      (for HF NCORE is supported but not extensively tested yet)             |
|                                                                             |
 ----------------------------------------------------------------------------- 

 POTCAR:    PAW_PBE Pt 04Feb2005                  
   VRHFIN =Pt: s1d9                                                             
   LEXCH  = PE                                                                  
   EATOM  =   729.1176 eV,   53.5886 Ry                                         
                                                                                
   TITEL  = PAW_PBE Pt 04Feb2005                                                
   LULTRA =        F    use ultrasoft PP ?                                      
   IUNSCR =        1    unscreen: 0-lin 1-nonlin 2-no                           
   RPACOR =    2.330    partial core radius                                     
   POMASS =  195.080; ZVAL   =   10.000    mass and valenz                      
   RCORE  =    2.600    outmost cutoff radius                                   
   RWIGS  =    2.750; RWIGS  =    1.455    wigner-seitz radius (au A)           
   ENMAX  =  230.283; ENMIN  =  172.712 eV                                      
   ICORE  =        3    local potential                                         
   LCOR   =        T    correct aug charges                                     
   LPAW   =        T    paw PP                                                  
   EAUG   =  358.966                                                            
   DEXC   =    0.000                                                            
   RMAX   =    2.658    core radius for proj-oper                               
   RAUG   =    1.300    factor for augmentation sphere                          
   RDEP   =    2.761    radius for radial grids                                 
   RDEPT  =    2.203    core radius for aug-charge                              
                                                                                
   Atomic configuration                                                         
   16 entries                                                                   
     n  l   j            E        occ.                                          
     1  0  0.50    -78401.1885   2.0000                                         
     2  0  0.50    -13770.7750   2.0000                                         
     2  1  1.50    -11931.0468   6.0000                                         
     3  0  0.50     -3234.7234   2.0000                                         
     3  1  1.50     -2699.2216   6.0000                                         
     3  2  2.50     -2119.5714  10.0000                                         
     4  0  0.50      -695.1528   2.0000                                         
     4  1  1.50      -519.6034   6.0000                                         
     4  2  2.50      -306.6786  10.0000                                         
     4  3  3.50       -70.1041  14.0000                                         
     5  0  0.50      -101.7747   2.0000                                         
     5  1  1.50       -55.9873   6.0000                                         
     5  2  2.50        -6.1423   9.0000                                         
     6  0  0.50        -5.6573   1.0000                                         
     6  1  1.50        -6.8029   0.0000                                         
     5  3  2.50        -1.3606   0.0000                                         
   Description                                                                  
     l       E           TYP  RCUT    TYP  RCUT                                 
     2     -6.1423404     23  2.500                                             
     2     -7.5029230     23  2.500                                             
     0     -5.6573207     23  2.500                                             
     0      0.7416693     23  2.500                                             
     1     -2.7211652     23  2.600                                             
     1     20.4087390     23  2.600                                             
     3     -1.3605826     23  2.500                                             
  local pseudopotential read in
  partial core-charges read in
  partial kinetic energy density read in
  atomic valenz-charges read in
  non local Contribution for L=           2  read in
    real space projection operators read in
  non local Contribution for L=           2  read in
    real space projection operators read in
  non local Contribution for L=           0  read in
    real space projection operators read in
  non local Contribution for L=           0  read in
    real space projection operators read in
  non local Contribution for L=           1  read in
    real space projection operators read in
  non local Contribution for L=           1  read in
    real space projection operators read in
    PAW grid and wavefunctions read in
 
   number of l-projection  operators is LMAX  =           6
   number of lm-projection operators is LMMAX =          18
 
 POTCAR:    PAW_PBE H 15Jun2001                   
   VRHFIN =H: ultrasoft test                                                    
   LEXCH  = PE                                                                  
   EATOM  =    12.4884 eV,    0.9179 Ry                                         
                                                                                
   TITEL  = PAW_PBE H 15Jun2001                                                 
   LULTRA =        F    use ultrasoft PP ?                                      
   IUNSCR =        0    unscreen: 0-lin 1-nonlin 2-no                           
   RPACOR =    0.000    partial core radius                                     
   POMASS =    1.000; ZVAL   =    1.000    mass and valenz                      
   RCORE  =    1.100    outmost cutoff radius                                   
   RWIGS  =    0.700; RWIGS  =    0.370    wigner-seitz radius (au A)           
   ENMAX  =  250.000; ENMIN  =  200.000 eV                                      
   RCLOC  =    0.701    cutoff for local pot                                    
   LCOR   =        T    correct aug charges                                     
   LPAW   =        T    paw PP                                                  
   EAUG   =  400.000                                                            
   RMAX   =    1.123    core radius for proj-oper                               
   RAUG   =    1.200    factor for augmentation sphere                          
   RDEP   =    1.112    radius for radial grids                                 
   RDEPT  =    0.926    core radius for aug-charge                              
                                                                                
   Atomic configuration                                                         
    2 entries                                                                   
     n  l   j            E        occ.                                          
     1  0  0.50        -6.4927   1.0000                                         
     2  1  0.50        -3.4015   0.0000                                         
   Description                                                                  
     l       E           TYP  RCUT    TYP  RCUT                                 
     0     -6.4927494     23  1.100                                             
     0      6.8029130     23  1.100                                             
     1     -4.0817478     23  1.100                                             
  local pseudopotential read in
  atomic valenz-charges read in
  non local Contribution for L=           0  read in
    real space projection operators read in
  non local Contribution for L=           0  read in
    real space projection operators read in
  non local Contribution for L=           1  read in
    real space projection operators read in
    PAW grid and wavefunctions read in
 
   number of l-projection  operators is LMAX  =           3
   number of lm-projection operators is LMMAX =           5
 
 Optimization of the real space projectors (new method)

 maximal supplied QI-value         = 14.36
 optimisation between [QCUT,QGAM] = [ 11.92, 23.98] = [ 39.79,161.09] Ry 
 Optimized for a Real-space Cutoff    1.49 Angstroem

   l    n(q)    QCUT    max X(q) W(low)/X(q) W(high)/X(q)  e(spline) 
   2     10    11.920    66.195    0.79E-04    0.18E-03    0.24E-06
   2     10    11.920    64.643    0.81E-04    0.19E-03    0.24E-06
   0     11    11.920    95.520    0.28E-04    0.54E-04    0.18E-06
   0     11    11.920    63.403    0.27E-04    0.52E-04    0.17E-06
   1     10    11.920    19.961    0.18E-04    0.11E-03    0.23E-06
   1     10    11.920    13.289    0.25E-04    0.87E-04    0.19E-06
 Optimization of the real space projectors (new method)

 maximal supplied QI-value         = 34.20
 optimisation between [QCUT,QGAM] = [ 11.97, 23.94] = [ 40.13,160.53] Ry 
 Optimized for a Real-space Cutoff    1.18 Angstroem

   l    n(q)    QCUT    max X(q) W(low)/X(q) W(high)/X(q)  e(spline) 
   0      8    11.971    19.460    0.15E-03    0.31E-03    0.25E-06
   0      8    11.971    12.209    0.13E-03    0.29E-03    0.25E-06
   1      8    11.971     4.655    0.22E-03    0.24E-03    0.21E-06
  PAW_PBE Pt 04Feb2005                  :
 energy of atom  1       EATOM= -729.1176
 kinetic energy error for atom=    0.0021 (will be added to EATOM!!)
  PAW_PBE H 15Jun2001                   :
 energy of atom  2       EATOM=  -12.4884
 kinetic energy error for atom=    0.0008 (will be added to EATOM!!)
 
 
 POSCAR: Pt111                                   
  positions in cartesian coordinates
  No initial velocities read in
 exchange correlation table for  LEXCH =        8
   RHO(1)=    0.500       N(1)  =     2000
   RHO(2)=  100.500       N(2)  =     4000
 


--------------------------------------------------------------------------------------------------------


 ion  position               nearest neighbor table
   1  0.785  0.869  0.327-  71 2.74  20 2.74  55 2.74  35 2.79  27 2.79  34 2.80  43 2.81  73 2.81
                            56 2.81  72 2.81   2 2.81   3 2.81
   2  0.035  0.869  0.327-  65 2.74  55 2.74  68 2.74  39 2.78  29 2.79  27 2.80  23 2.80  47 2.81
                            72 2.81   3 2.81   1 2.81  57 2.81
   3  0.035  0.619  0.327-  12 2.74  55 2.74  76 2.74  39 2.78  28 2.79  35 2.80  15 2.80   9 2.81
                            56 2.81   2 2.81   1 2.81  57 2.81
   4  0.786  0.868  0.023-  21 2.79  78 2.79  19 2.80  44 2.80  75 2.81  74 2.81  58 2.81   5 2.81
                             6 2.81
   5  0.036  0.868  0.023-  49 2.79  70 2.79  78 2.79  48 2.80   6 2.80  24 2.81  59 2.81   4 2.81
                            74 2.81
   6  0.036  0.618  0.023-  46 2.79  70 2.79  21 2.79  10 2.80   5 2.80  18 2.81  59 2.81   4 2.81
                            58 2.81
   7  0.619  0.202  0.126-  71 2.74  79 2.74  80 2.74  42 2.79  44 2.79  74 2.80  53 2.80  61 2.80
                            11 2.80  22 2.80  19 2.81  78 2.81
   8  0.369  0.952  0.126-  26 2.74  66 2.74  69 2.74  16 2.79  24 2.79  75 2.79  25 2.80  60 2.81
                            19 2.81  49 2.81  54 2.81  53 2.81
   9  0.035  0.369  0.327-  12 2.73  77 2.74  62 2.74  28 2.79  33 2.79  30 2.79  13 2.80   3 2.81
                            47 2.81  56 2.81  15 2.81  63 2.81
  10  0.036  0.369  0.023-  54 2.78  46 2.79  45 2.80  58 2.80   6 2.80  18 2.81  64 2.81  16 2.81
                            48 2.81
  11  0.869  0.202  0.126-  77 2.74  65 2.74  79 2.74  64 2.79  74 2.79  48 2.79   7 2.80  22 2.81
                            78 2.81  45 2.81  54 2.81  49 2.81
  12  0.952  0.536  0.226-   9 2.73   3 2.74  21 2.74  45 2.74  56 2.74  46 2.74  20 2.80  55 2.80
                            77 2.81  62 2.81  67 2.81  76 2.81
  13  0.285  0.119  0.327-  62 2.74  26 2.74  69 2.74  31 2.79  36 2.79  33 2.79   9 2.80  47 2.80
                            73 2.81  43 2.81  15 2.81  23 2.81
  14  0.535  0.619  0.328-  51 2.74  66 2.75  67 2.76  52 2.79  57 2.80  41 2.80  63 2.80  23 2.80
                            56 2.81  73 2.81  38 2.82  37 2.82
  15  0.285  0.369  0.327-  76 2.74  80 2.74  62 2.75  50 2.79  36 2.79  28 2.79  41 2.80  57 2.80
                             3 2.80  43 2.81  13 2.81   9 2.81
  16  0.287  0.118  0.023-  54 2.79   8 2.79  53 2.79  75 2.80  44 2.80  24 2.81  18 2.81  10 2.81
                            48 2.81
  17  0.536  0.618  0.023-  25 2.79  22 2.79  60 2.80  42 2.80  64 2.80  59 2.80  58 2.81  75 2.81
                            24 2.81
  18  0.286  0.368  0.023-  53 2.79  46 2.79  61 2.79  59 2.80  42 2.81   6 2.81  44 2.81  10 2.81
                            16 2.81
  19  0.619  0.952  0.126-  20 2.74  71 2.74  69 2.74  44 2.79  75 2.79   4 2.80  21 2.80  78 2.80
                             8 2.81  53 2.81  25 2.81   7 2.81
  20  0.702  0.785  0.226-  25 2.74  56 2.74  19 2.74   1 2.74  73 2.74  21 2.74  12 2.80  69 2.81
                            67 2.81  66 2.81  55 2.81  71 2.81
  21  0.869  0.702  0.126-  12 2.74  55 2.74  20 2.74  58 2.79   4 2.79   6 2.79  78 2.80  19 2.80
                            46 2.81  45 2.81  70 2.81  25 2.81
  22  0.619  0.452  0.126-  79 2.74  67 2.74  51 2.75  17 2.79  42 2.79  64 2.80  61 2.80  60 2.80
                             7 2.80  25 2.80  11 2.81  45 2.81
  23  0.285  0.869  0.327-  68 2.74  66 2.74  26 2.75  37 2.79  31 2.79  29 2.79  57 2.80  14 2.80
                             2 2.80  73 2.81  47 2.81  13 2.81
  24  0.286  0.868  0.023-   8 2.79  60 2.79  49 2.79  59 2.80   5 2.81  17 2.81  48 2.81  75 2.81
                            16 2.81
  25  0.619  0.702  0.126-  20 2.74  67 2.74  66 2.74  17 2.79  75 2.79  58 2.80   8 2.80  45 2.80
                            60 2.80  22 2.80  19 2.81  21 2.81
  26  0.202  0.036  0.226-  49 2.74  13 2.74   8 2.74  54 2.74  47 2.74  23 2.75  62 2.80  77 2.80
                            69 2.81  65 2.81  66 2.81  68 2.81
  27  0.868  0.953  0.430-  39 2.78  40 2.78   1 2.79  72 2.79   2 2.80  29 2.80  32 2.80  35 2.81
                            34 2.81
  28  0.117  0.453  0.430-  50 2.77   9 2.79  30 2.79   3 2.79  15 2.79  33 2.80  35 2.80  39 2.81
                            36 2.81
  29  0.117  0.954  0.430-  37 2.77  47 2.79  32 2.79   2 2.79  23 2.79  33 2.80  27 2.80  39 2.81
                            31 2.81
  30  0.869  0.453  0.430-  38 2.77  28 2.79  56 2.79  63 2.79   9 2.79  33 2.80  35 2.80  52 2.81
                            32 2.81
  31  0.368  0.953  0.430-  37 2.77  13 2.79  36 2.79  23 2.79  73 2.80  34 2.80  33 2.80  52 2.81
                            29 2.81
  32  0.869  0.202  0.430-  38 2.77  63 2.79  29 2.79  72 2.79  47 2.79  33 2.80  27 2.80  40 2.81
                            30 2.81
  33  0.118  0.203  0.430-   9 2.79  47 2.79  13 2.79  32 2.80  30 2.80  29 2.80  28 2.80  36 2.80
                            31 2.80
  34  0.618  0.953  0.430-  52 2.78  40 2.78  43 2.79  73 2.79   1 2.80  31 2.80  36 2.80  27 2.81
                            35 2.81
  35  0.868  0.703  0.430-  39 2.78  52 2.78   1 2.79  56 2.79   3 2.80  28 2.80  30 2.80  27 2.81
                            34 2.81
  36  0.368  0.202  0.430-  50 2.77  13 2.79  15 2.79  31 2.79  43 2.80  33 2.80  34 2.80  40 2.81
                            28 2.81
  37  0.365  0.708  0.432-  81 1.86  31 2.77  29 2.77  23 2.79  57 2.82  14 2.82  39 2.83  52 2.83
                            38 2.89  50 2.89
  38  0.623  0.450  0.432-  81 1.86  32 2.77  30 2.77  63 2.79  14 2.82  41 2.82  52 2.83  40 2.83
                            50 2.89  37 2.89
  39  0.115  0.704  0.430-  35 2.78  27 2.78   2 2.78   3 2.78  57 2.80  28 2.81  29 2.81  37 2.83
                            50 2.83
  40  0.619  0.200  0.430-  34 2.78  27 2.78  43 2.78  72 2.79  41 2.79  36 2.81  32 2.81  50 2.83
                            38 2.83
  41  0.535  0.369  0.328-  51 2.74  80 2.75  79 2.76  40 2.79  14 2.80  57 2.80  63 2.80  15 2.80
                            72 2.81  43 2.81  38 2.82  50 2.82
  42  0.536  0.368  0.023-   7 2.79  22 2.79  61 2.80  59 2.80  17 2.80  64 2.80  18 2.81  74 2.81
                            44 2.81
  43  0.535  0.119  0.327-  80 2.73  69 2.74  71 2.74  40 2.78  34 2.79  36 2.80  15 2.81   1 2.81
                            73 2.81  72 2.81  13 2.81  41 2.81
  44  0.536  0.118  0.023-  19 2.79   7 2.79  53 2.79  16 2.80  74 2.80   4 2.80  18 2.81  42 2.81
                            75 2.81
  45  0.869  0.452  0.126-  77 2.73  12 2.74  67 2.74  58 2.79  64 2.79  10 2.80  25 2.80  21 2.81
                            22 2.81  11 2.81  54 2.81  46 2.81
  46  0.119  0.452  0.126-  62 2.73  76 2.74  12 2.74   6 2.79  10 2.79  18 2.79  70 2.80  21 2.81
                            61 2.81  53 2.81  54 2.81  45 2.81
  47  0.035  0.119  0.327-  65 2.74  77 2.74  26 2.74  29 2.79  33 2.79  32 2.79  13 2.80   2 2.81
                             9 2.81  72 2.81  23 2.81  63 2.81
  48  0.036  0.118  0.023-  54 2.78  49 2.79  11 2.79  74 2.80   5 2.80  24 2.81  64 2.81  16 2.81
                            10 2.81
  49  0.119  0.952  0.126-  26 2.74  68 2.74  65 2.74  48 2.79   5 2.79  24 2.79  70 2.80  78 2.81
                            60 2.81   8 2.81  54 2.81  11 2.81
  50  0.365  0.450  0.432-  81 1.86  36 2.77  28 2.77  15 2.79  57 2.82  41 2.82  40 2.83  39 2.83
                            38 2.89  37 2.89
  51  0.452  0.536  0.227-  41 2.74  14 2.74  60 2.74  61 2.74  57 2.75  22 2.75  68 2.80  76 2.80
                            80 2.80  66 2.80  67 2.80  79 2.80
  52  0.619  0.704  0.430-  34 2.78  35 2.78  73 2.78  56 2.79  14 2.79  31 2.81  30 2.81  37 2.83
                            38 2.83
  53  0.369  0.202  0.126-  69 2.74  62 2.74  80 2.74  18 2.79  16 2.79  44 2.79   7 2.80  61 2.81
                            19 2.81  46 2.81  54 2.81   8 2.81
  54  0.119  0.202  0.125-  26 2.74  62 2.74  77 2.75  10 2.78  48 2.78  16 2.79  45 2.81  11 2.81
                            46 2.81  49 2.81  53 2.81   8 2.81
  55  0.952  0.786  0.226-   3 2.74  78 2.74   2 2.74  21 2.74  70 2.74   1 2.74  12 2.80  65 2.81
                            20 2.81  71 2.81  68 2.81  76 2.81
  56  0.785  0.619  0.327-  67 2.74  20 2.74  12 2.74  52 2.79  30 2.79  35 2.79  63 2.81   9 2.81
                             1 2.81  73 2.81   3 2.81  14 2.81
  57  0.285  0.619  0.328-  51 2.75  68 2.75  76 2.75  39 2.80  14 2.80  41 2.80  23 2.80  15 2.80
                             2 2.81   3 2.81  50 2.82  37 2.82
  58  0.786  0.618  0.023-  45 2.79  21 2.79  25 2.80  10 2.80  75 2.80  17 2.81   4 2.81  64 2.81
                             6 2.81
  59  0.286  0.618  0.023-  61 2.79  60 2.79  70 2.79  42 2.80  17 2.80  18 2.80  24 2.80   5 2.81
                             6 2.81
  60  0.369  0.702  0.126-  66 2.74  68 2.74  51 2.74  59 2.79  24 2.79  17 2.80  22 2.80  61 2.80
                            25 2.80  70 2.80   8 2.81  49 2.81
  61  0.369  0.452  0.126-  80 2.74  76 2.74  51 2.74  59 2.79  18 2.79  42 2.80  22 2.80  60 2.80
                             7 2.80  70 2.80  53 2.81  46 2.81
  62  0.202  0.285  0.226-  46 2.73  13 2.74  53 2.74   9 2.74  54 2.74  15 2.75  26 2.80  77 2.80
                            69 2.81  12 2.81  76 2.81  80 2.81
  63  0.784  0.369  0.327-  67 2.74  79 2.74  77 2.76  32 2.79  38 2.79  30 2.79  41 2.80  14 2.80
                            72 2.81  56 2.81   9 2.81  47 2.81
  64  0.786  0.368  0.023-  11 2.79  45 2.79  22 2.80  42 2.80  17 2.80  74 2.81  58 2.81  48 2.81
                            10 2.81
  65  0.952  0.036  0.226-  47 2.74   2 2.74  11 2.74  78 2.74  72 2.74  49 2.74  71 2.80  55 2.81
                            77 2.81  26 2.81  79 2.81  68 2.81
  66  0.452  0.785  0.227-  73 2.73  60 2.74   8 2.74  23 2.74  25 2.74  14 2.75  68 2.80  51 2.80
                            67 2.81  20 2.81  69 2.81  26 2.81
  67  0.702  0.535  0.227-  56 2.74  63 2.74  22 2.74  25 2.74  45 2.74  14 2.76  79 2.80  51 2.80
                            66 2.81  20 2.81  12 2.81  77 2.81
  68  0.202  0.785  0.227-  23 2.74   2 2.74  49 2.74  70 2.74  60 2.74  57 2.75  66 2.80  51 2.80
                            76 2.81  55 2.81  65 2.81  26 2.81
  69  0.452  0.036  0.226-  73 2.74  43 2.74  53 2.74   8 2.74  13 2.74  19 2.74  71 2.81  62 2.81
                            26 2.81  20 2.81  80 2.81  66 2.81
  70  0.119  0.702  0.126-  76 2.74  68 2.74  55 2.74   5 2.79   6 2.79  59 2.79  46 2.80  49 2.80
                            61 2.80  60 2.80  21 2.81  78 2.81
  71  0.702  0.036  0.226-   7 2.74  72 2.74   1 2.74  19 2.74  43 2.74  78 2.74  65 2.80  69 2.81
                            79 2.81  80 2.81  55 2.81  20 2.81
  72  0.785  0.119  0.327-  79 2.73  71 2.74  65 2.74  40 2.79  32 2.79  27 2.79  63 2.81  47 2.81
                            43 2.81   1 2.81   2 2.81  41 2.81
  73  0.535  0.869  0.327-  66 2.73  69 2.74  20 2.74  52 2.78  34 2.79  31 2.80  23 2.81  43 2.81
                            13 2.81   1 2.81  56 2.81  14 2.81
  74  0.786  0.118  0.023-  78 2.79  11 2.79   7 2.80  48 2.80  44 2.80  64 2.81   4 2.81  42 2.81
                             5 2.81
  75  0.536  0.868  0.023-  19 2.79  25 2.79   8 2.79  16 2.80  58 2.80   4 2.81  17 2.81  24 2.81
                            44 2.81
  76  0.202  0.535  0.227-  15 2.74   3 2.74  70 2.74  46 2.74  61 2.74  57 2.75  80 2.80  51 2.80
                            68 2.81  55 2.81  12 2.81  62 2.81
  77  0.952  0.285  0.226-  45 2.73  11 2.74  47 2.74   9 2.74  54 2.75  63 2.76  26 2.80  62 2.80
                            65 2.81  12 2.81  67 2.81  79 2.81
  78  0.869  0.952  0.126-  55 2.74  65 2.74  71 2.74  74 2.79   4 2.79   5 2.79  21 2.80  19 2.80
                            49 2.81  11 2.81  70 2.81   7 2.81
  79  0.702  0.286  0.227-  72 2.73  22 2.74  63 2.74   7 2.74  11 2.74  41 2.76  67 2.80  51 2.80
                            80 2.81  71 2.81  65 2.81  77 2.81
  80  0.452  0.286  0.227-  43 2.73  61 2.74  15 2.74  53 2.74   7 2.74  41 2.75  76 2.80  51 2.80
                            79 2.81  71 2.81  69 2.81  62 2.81
  81  0.451  0.536  0.470-  50 1.86  37 1.86  38 1.86
 
  LATTYP: Found a hexagonal cell.
 ALAT       =    11.2227001190
 C/A-ratio  =     1.9603125600
  
  Lattice vectors:
  
 A1 = (   5.6113500595,  -9.7191434021,   0.0000000000)
 A2 = ( -11.2227001190,   0.0000000000,   0.0000000000)
 A3 = (   0.0000000000,   0.0000000000, -22.0000000000)


Analysis of symmetry for initial positions (statically):
=====================================================================
 Subroutine PRICEL returns:
 Original cell was already a primitive cell.
 

 Routine SETGRP: Setting up the symmetry group for a 
 hexagonal supercell.


 Subroutine GETGRP returns: Found  1 space group operations
 (whereof  1 operations were pure point group operations)
 out of a pool of 24 trial point group operations.


The static configuration has the point symmetry C_1 .


Analysis of symmetry for dynamics (positions and initial velocities):
=====================================================================
 Subroutine PRICEL returns:
 Original cell was already a primitive cell.
 

 Routine SETGRP: Setting up the symmetry group for a 
 hexagonal supercell.


 Subroutine GETGRP returns: Found  1 space group operations
 (whereof  1 operations were pure point group operations)
 out of a pool of 24 trial point group operations.


The dynamic configuration has the point symmetry C_1 .


Analysis of constrained symmetry for selective dynamics:
=====================================================================
 Subroutine PRICEL returns:
 Original cell was already a primitive cell.
 

 Routine SETGRP: Setting up the symmetry group for a 
 hexagonal supercell.


 Subroutine GETGRP returns: Found  1 space group operations
 (whereof  1 operations were pure point group operations)
 out of a pool of 24 trial point group operations.


The constrained configuration has the point symmetry C_1 .


Analysis of structural, dynamic, and magnetic symmetry:
=====================================================================
 Subroutine PRICEL returns:
 Original cell was already a primitive cell.
 

 Routine SETGRP: Setting up the symmetry group for a 
 hexagonal supercell.


 Subroutine GETGRP returns: Found  1 space group operations
 (whereof  1 operations were pure point group operations)
 out of a pool of 24 trial point group operations.


The magnetic configuration has the point symmetry C_1 .


 Subroutine INISYM returns: Found  1 space group operations
 (whereof  1 operations are pure point group operations),
 and found     1 'primitive' translations

 
 
 KPOINTS: mesh auto                               

Automatic generation of k-mesh.
Space group operators:
 irot       det(A)        alpha          n_x          n_y          n_z        tau_x        tau_y        tau_z
    1     1.000000     0.000000     1.000000     0.000000     0.000000     0.000000     0.000000     0.000000
 
 Subroutine IBZKPT returns following result:
 ===========================================
 
 Found     10 irreducible k-points:
 
 Following reciprocal coordinates:
            Coordinates               Weight
  0.000000  0.000000  0.000000      1.000000
  0.250000  0.000000  0.000000      2.000000
  0.500000  0.000000  0.000000      1.000000
  0.000000  0.250000  0.000000      2.000000
  0.250000  0.250000  0.000000      2.000000
  0.500000  0.250000  0.000000      2.000000
 -0.250000  0.250000  0.000000      2.000000
  0.000000  0.500000  0.000000      1.000000
  0.250000  0.500000  0.000000      2.000000
  0.500000  0.500000  0.000000      1.000000
 
 Following cartesian coordinates:
            Coordinates               Weight
  0.000000  0.000000  0.000000      1.000000
  0.022276 -0.012861  0.000000      2.000000
  0.044553 -0.025722  0.000000      1.000000
  0.000000  0.025722  0.000000      2.000000
  0.022276  0.012861  0.000000      2.000000
  0.044553  0.000000  0.000000      2.000000
 -0.022276  0.038584  0.000000      2.000000
  0.000000  0.051445  0.000000      1.000000
  0.022276  0.038584  0.000000      2.000000
  0.044553  0.025722  0.000000      1.000000
 
 TETIRR: Found     48 inequivalent tetrahedra from       96
 
 Subroutine IBZKPT_HF returns following result:
 ==============================================
 
 Found     16 k-points in 1st BZ
 the following     16 k-points will be used (e.g. in the exchange kernel)
 Following reciprocal coordinates:   # in IRBZ
  0.000000  0.000000  0.000000    0.06250000   1 t-inv F
  0.250000  0.000000  0.000000    0.06250000   2 t-inv F
  0.500000  0.000000  0.000000    0.06250000   3 t-inv F
  0.000000  0.250000  0.000000    0.06250000   4 t-inv F
  0.250000  0.250000  0.000000    0.06250000   5 t-inv F
  0.500000  0.250000  0.000000    0.06250000   6 t-inv F
 -0.250000  0.250000  0.000000    0.06250000   7 t-inv F
  0.000000  0.500000  0.000000    0.06250000   8 t-inv F
  0.250000  0.500000  0.000000    0.06250000   9 t-inv F
  0.500000  0.500000  0.000000    0.06250000  10 t-inv F
 -0.250000  0.000000  0.000000    0.06250000   2 t-inv T
  0.000000 -0.250000  0.000000    0.06250000   4 t-inv T
 -0.250000 -0.250000  0.000000    0.06250000   5 t-inv T
 -0.500000 -0.250000  0.000000    0.06250000   6 t-inv T
  0.250000 -0.250000  0.000000    0.06250000   7 t-inv T
 -0.250000 -0.500000  0.000000    0.06250000   9 t-inv T


--------------------------------------------------------------------------------------------------------




 Dimension of arrays:
   k-points           NKPTS =     10   k-points in BZ     NKDIM =     10   number of bands    NBANDS=    560
   number of dos      NEDOS =    301   number of ions     NIONS =     81
   non local maximal  LDIM  =      6   non local SUM 2l+1 LMDIM =     18
   total plane-waves  NPLWV = ******
   max r-space proj   IRMAX =   7929   max aug-charges    IRDMAX=  34542
   dimension x,y,z NGX =    90 NGY =   90 NGZ =  168
   dimension x,y,z NGXF=   180 NGYF=  180 NGZF=  336
   support grid    NGXF=   180 NGYF=  180 NGZF=  336
   ions per type =              80   1
   NGX,Y,Z   is equivalent  to a cutoff of  13.33, 13.33, 12.70 a.u.
   NGXF,Y,Z  is equivalent  to a cutoff of  26.66, 26.66, 25.39 a.u.

 SYSTEM =  Pt111                                   
 POSCAR =  Pt111                                   

 Startparameter for this run:
   NWRITE =      2    write-flag & timer
   PREC   = accura    normal or accurate (medium, high low for compatibility)
   ISTART =      0    job   : 0-new  1-cont  2-samecut
   ICHARG =      2    charge: 1-file 2-atom 10-const
   ISPIN  =      2    spin polarized calculation?
   LNONCOLLINEAR =      F non collinear calculations
   LSORBIT =      F    spin-orbit coupling
   INIWAV =      1    electr: 0-lowe 1-rand  2-diag
   LASPH  =      F    aspherical Exc in radial PAW
   METAGGA=      F    non-selfconsistent MetaGGA calc.

 Electronic Relaxation 1
   ENCUT  =  550.0 eV  40.42 Ry    6.36 a.u.  21.46 21.46 42.07*2*pi/ulx,y,z
   ENINI  =  550.0     initial cutoff
   ENAUG  =  400.0 eV  augmentation charge cutoff
   NELM   =    200;   NELMIN=  2; NELMDL= -5     # of ELM steps 
   EDIFF  = 0.1E-07   stopping-criterion for ELM
   LREAL  =      T    real-space projection
   NLSPLINE    = F    spline interpolate recip. space projectors
   LCOMPAT=      F    compatible to vasp.4.4
   GGA_COMPAT  = T    GGA compatible to vasp.4.4-vasp.4.6
   LMAXPAW     = -100 max onsite density
   LMAXMIX     =    2 max onsite mixed and CHGCAR
   VOSKOWN=      0    Vosko Wilk Nusair interpolation
   ROPT   =   -0.00025  -0.00025
 Ionic relaxation
   EDIFFG = -.1E-01   stopping-criterion for IOM
   NSW    =   1009    number of steps for IOM
   NBLOCK =      1;   KBLOCK =   1009    inner block; outer block 
   IBRION =      5    ionic relax: 0-MD 1-quasi-New 2-CG
   NFREE  =      2    steps in history (QN), initial steepest desc. (CG)
   ISIF   =      2    stress and relaxation
   IWAVPR =     11    prediction:  0-non 1-charg 2-wave 3-comb
   ISYM   =      2    0-nonsym 1-usesym 2-fastsym
   LCORR  =      T    Harris-Foulkes like correction to forces

   POTIM  = 0.5000    time-step for ionic-motion
   TEIN   =    0.0    initial temperature
   TEBEG  =    0.0;   TEEND  =   0.0 temperature during run
   SMASS  =  -3.00    Nose mass-parameter (am)
   estimated Nose-frequenzy (Omega)   =  0.10E-29 period in steps =****** mass=  -0.288E-26a.u.
   SCALEE = 1.0000    scale energy and forces
   NPACO  =    256;   APACO  = 16.0  distance and # of slots for P.C.
   PSTRESS=    0.0 pullay stress

  Mass of Ions in am
   POMASS = 195.08  1.00
  Ionic Valenz
   ZVAL   =  10.00  1.00
  Atomic Wigner-Seitz radii
   RWIGS  =  -1.00 -1.00
  virtual crystal weights 
   VCA    =   1.00  1.00
   NELECT =     801.0000    total number of electrons
   NUPDOWN=      -1.0000    fix difference up-down

 DOS related values:
   EMIN   =  10.00;   EMAX   =-10.00  energy-range for DOS
   EFERMI =   0.00
   ISMEAR =    -5;   SIGMA  =   0.10  broadening in eV -4-tet -1-fermi 0-gaus

 Electronic relaxation 2 (details)
   IALGO  =     68    algorithm
   LDIAG  =      T    sub-space diagonalisation (order eigenvalues)
   LSUBROT=      F    optimize rotation matrix (better conditioning)
   TURBO    =      0    0=normal 1=particle mesh
   IRESTART =      0    0=no restart 2=restart with 2 vectors
   NREBOOT  =      0    no. of reboots
   NMIN     =      0    reboot dimension
   EREF     =   0.00    reference energy to select bands
   IMIX   =      4    mixing-type and parameters
     AMIX     =   0.40;   BMIX     =  1.00
     AMIX_MAG =   1.60;   BMIX_MAG =  1.00
     AMIN     =   0.10
     WC   =   100.;   INIMIX=   1;  MIXPRE=   1;  MAXMIX= -45

 Intra band minimization:
   WEIMIN = 0.0010     energy-eigenvalue tresh-hold
   EBREAK =  0.45E-11  absolut break condition
   DEPER  =   0.30     relativ break condition  

   TIME   =   0.40     timestep for ELM

  volume/ion in A,a.u.               =      29.63       199.92
  Fermi-wavevector in a.u.,A,eV,Ry     =   1.135629  2.146027 17.546785  1.289652
  Thomas-Fermi vector in A             =   2.272333
 
 Write flags
   LWAVE        =      F    write WAVECAR
   LDOWNSAMPLE  =      F    k-point downsampling of WAVECAR
   LCHARG       =      F    write CHGCAR
   LVTOT        =      F    write LOCPOT, total local potential
   LVHAR        =      F    write LOCPOT, Hartree potential only
   LELF         =      F    write electronic localiz. function (ELF)
   LORBIT       =      0    0 simple, 1 ext, 2 COOP (PROOUT), +10 PAW based schemes


 Dipole corrections
   LMONO  =      F    monopole corrections only (constant potential shift)
   LDIPOL =      F    correct potential (dipole corrections)
   IDIPOL =      0    1-x, 2-y, 3-z, 4-all directions 
   EPSILON=  1.0000000 bulk dielectric constant

 Exchange correlation treatment:
   GGA     =    --    GGA type
   LEXCH   =     8    internal setting for exchange type
   VOSKOWN=      0    Vosko Wilk Nusair interpolation
   LHFCALC =     F    Hartree Fock is set to
   LHFONE  =     F    Hartree Fock one center treatment
   AEXX    =    0.0000 exact exchange contribution

 Linear response parameters
   LEPSILON=     F    determine dielectric tensor
   LRPA    =     F    only Hartree local field effects (RPA)
   LNABLA  =     F    use nabla operator in PAW spheres
   LVEL    =     F    velocity operator in full k-point grid
   LINTERFAST=   F  fast interpolation
   KINTER  =     0    interpolate to denser k-point grid
   CSHIFT  =0.1000    complex shift for real part using Kramers Kronig
   OMEGAMAX=  -1.0    maximum frequency
   DEG_THRESHOLD= 0.2000000E-02 threshold for treating states as degnerate
   RTIME   =   -0.100 relaxation time in fs
  (WPLASMAI=    0.000 imaginary part of plasma frequency in eV, 0.658/RTIME)
   DFIELD  = 0.0000000 0.0000000 0.0000000 field for delta impulse in time
 
 Orbital magnetization related:
   ORBITALMAG=     F  switch on orbital magnetization
   LCHIMAG   =     F  perturbation theory with respect to B field
   DQ        =  0.001000  dq finite difference perturbation B field
   LLRAUG    =     F  two centre corrections for induced B field



--------------------------------------------------------------------------------------------------------


 finite differences
   using selective dynamics as specified on POSCAR
   WARNING: If single coordinates had been selected the selection of coordinates
            is made according to the corresponding   d i r e c t   coordinates!
            Don't support selection of single cartesian coordinates -- sorry ...
  !
 charge density and potential will be updated during run
 spin polarized calculation
 RMM-DIIS sequential band-by-band and
  variant of blocked Davidson during initial phase
 perform sub-space diagonalisation
    before iterative eigenvector-optimisation
 modified Broyden-mixing scheme, WC =      100.0
 initial mixing is a Kerker type mixing with AMIX =  0.4000 and BMIX =      1.0000
 Hartree-type preconditioning will be used
 using additional bands          159
 real space projection scheme for non local part
 use partial core corrections
 calculate Harris-corrections to forces 
   (improved forces if not selfconsistent)
 use gradient corrections 
 use of overlap-Matrix (Vanderbilt PP)
 Fermi weights with tetrahedron method with Bloechl corrections


--------------------------------------------------------------------------------------------------------


  energy-cutoff  :      550.00
  volume of cell :     2399.65
      direct lattice vectors                 reciprocal lattice vectors
    11.222700119  0.000000000  0.000000000     0.089105116 -0.051444863  0.000000000
     5.611350060  9.719143402  0.000000000     0.000000000  0.102889726  0.000000000
     0.000000000  0.000000000 22.000000000     0.000000000  0.000000000  0.045454545

  length of vectors
    11.222700119 11.222700119 22.000000000     0.102889726  0.102889726  0.045454545


 
 k-points in units of 2pi/SCALE and weight: mesh auto                               
   0.00000000  0.00000000  0.00000000       0.062
   0.02227628 -0.01286122  0.00000000       0.125
   0.04455256 -0.02572243  0.00000000       0.062
   0.00000000  0.02572243  0.00000000       0.125
   0.02227628  0.01286122  0.00000000       0.125
   0.04455256  0.00000000  0.00000000       0.125
  -0.02227628  0.03858365  0.00000000       0.125
   0.00000000  0.05144486  0.00000000       0.062
   0.02227628  0.03858365  0.00000000       0.125
   0.04455256  0.02572243  0.00000000       0.062
 
 k-points in reciprocal lattice and weights: mesh auto                               
   0.00000000  0.00000000  0.00000000       0.062
   0.25000000  0.00000000  0.00000000       0.125
   0.50000000  0.00000000  0.00000000       0.062
   0.00000000  0.25000000  0.00000000       0.125
   0.25000000  0.25000000  0.00000000       0.125
   0.50000000  0.25000000  0.00000000       0.125
  -0.25000000  0.25000000  0.00000000       0.125
   0.00000000  0.50000000  0.00000000       0.062
   0.25000000  0.50000000  0.00000000       0.125
   0.50000000  0.50000000  0.00000000       0.062
 
 position of ions in fractional coordinates (direct lattice) 
   0.78485128  0.86918798  0.32683689
   0.03495064  0.86919166  0.32678503
   0.03496814  0.61909495  0.32678474
   0.78628007  0.86823023  0.02256706
   0.03643843  0.86806091  0.02268562
   0.03642284  0.61822022  0.02268058
   0.61897582  0.20209799  0.12608852
   0.36931403  0.95162418  0.12604596
   0.03489914  0.36915667  0.32664316
   0.03617886  0.36857821  0.02270881
   0.86884714  0.20202943  0.12605216
   0.95192646  0.53565475  0.22643499
   0.28481786  0.11923349  0.32667457
   0.53470552  0.61899291  0.32780424
   0.28518828  0.36946124  0.32710570
   0.28666481  0.11802724  0.02275130
   0.53636746  0.61813417  0.02280227
   0.28639154  0.36823190  0.02273335
   0.61919697  0.95184519  0.12597283
   0.70196762  0.78548360  0.22639848
   0.86913708  0.70196502  0.12594632
   0.61885956  0.45202590  0.12626107
   0.28513422  0.86865036  0.32708929
   0.28634552  0.86812949  0.02272382
   0.61902727  0.70182230  0.12609777
   0.20185012  0.03587126  0.22618029
   0.86784408  0.95272126  0.43033274
   0.11718892  0.45265758  0.43014337
   0.11715336  0.95351409  0.43015926
   0.86851443  0.45270399  0.43018205
   0.36774880  0.95345426  0.43018738
   0.86851382  0.20212424  0.43016813
   0.11773776  0.20279170  0.43004562
   0.61771429  0.95277924  0.43031613
   0.86787883  0.70270531  0.43031039
   0.36768624  0.20217069  0.43018550
   0.36524055  0.70788096  0.43201353
   0.62285075  0.45024185  0.43201573
   0.11469495  0.70430690  0.43012678
   0.61933632  0.19954815  0.43020098
   0.53474576  0.36948962  0.32781076
   0.53629996  0.36833304  0.02280434
   0.53487100  0.11918441  0.32680659
   0.53640731  0.11820116  0.02269461
   0.86884881  0.45209246  0.12604359
   0.11921317  0.45208638  0.12604492
   0.03492760  0.11915516  0.32663435
   0.03616421  0.11798663  0.02272790
   0.11922023  0.95163170  0.12605543
   0.36533674  0.45020429  0.43201255
   0.45194653  0.53560106  0.22705430
   0.61937257  0.70437869  0.43015772
   0.36931314  0.20198871  0.12605659
   0.11903315  0.20198196  0.12546580
   0.95204677  0.78553062  0.22639385
   0.78485619  0.61915237  0.32680349
   0.28524123  0.61902714  0.32778997
   0.78630148  0.61822153  0.02269578
   0.28648479  0.61812172  0.02282905
   0.36925839  0.70168542  0.12623186
   0.36925694  0.45197883  0.12625555
   0.20185895  0.28541849  0.22619303
   0.78428027  0.36946790  0.32712127
   0.78621882  0.36823465  0.02273493
   0.95192416  0.03553581  0.22642826
   0.45186488  0.78549483  0.22661437
   0.70189110  0.53545629  0.22663019
   0.20221178  0.78542954  0.22661353
   0.45201532  0.03558639  0.22644307
   0.11929592  0.70180471  0.12610483
   0.70195736  0.03565993  0.22639753
   0.78487344  0.11922958  0.32681792
   0.53481968  0.86920317  0.32678047
   0.78628714  0.11822383  0.02271717
   0.53639853  0.86811131  0.02269142
   0.20219652  0.53544026  0.22663066
   0.95220672  0.28545316  0.22620348
   0.86912935  0.95184785  0.12594816
   0.70189816  0.28572778  0.22662234
   0.45188830  0.28578221  0.22663526
   0.45101654  0.53617999  0.46971071
 
 position of ions in cartesian coordinates  (Angst):
  13.68546863  8.44776267  7.19041162
   5.26957920  8.44779839  7.18927061
   3.86639545  6.01707255  7.18926434
  13.69612925  8.43845415  0.49647528
   5.27993121  8.43680849  0.49908358
   3.87781270  6.00857098  0.49897285
   8.08062263  1.96421938  2.77394741
   9.48459702  9.24897184  2.77301107
   2.46312992  3.58788658  7.18614952
   2.47424586  3.58226448  0.49959384
  10.88446880  1.96355304  2.77314760
  13.68893150  5.20610528  4.98156976
   3.86548628  1.15884741  7.18684062
   9.47422559  6.01608089  7.21169327
   5.27375886  3.59084675  7.19632546
   3.87944532  1.14712366  0.50052862
   9.48805833  6.00773462  0.50164991
   5.28036449  3.57889863  0.50013371
  12.29019845  9.25111994  2.77140222
  12.28559552  7.63422774  4.98076648
  13.69303627  6.82249873  2.77081914
   9.48175084  4.39330450  2.77774351
   8.07427708  8.44253740  7.19596449
   8.08494834  8.43747501  0.49992405
  10.88532805  6.82111160  2.77415099
   2.46658953  0.34863787  4.97596642
  15.08560634  9.25963458  9.46732031
   3.85519627  4.39944389  9.46315407
   6.66527835  9.26734016  9.46350380
  12.28735750  4.39989499  9.46400502
   9.47730008  9.26675869  9.46412226
  10.88126004  1.96447449  9.46369880
   2.45927087  1.97096165  9.46100368
  12.27880013  9.26019808  9.46695484
  13.68306935  6.82969369  9.46682860
   5.26088295  1.96492594  9.46408110
   8.07115300  6.87999654  9.50429763
   9.51653185  4.37596512  9.50434601
   5.23929962  6.84525975  9.46278912
   8.07036031  1.93943712  9.46442163
   8.07462691  3.59112259  7.21183682
   8.08557924  3.57988161  0.50169538
   6.67148229  1.15837035  7.18974500
   6.68320651  1.14881404  0.49928147
  12.28767862  4.39395141  2.77295906
   3.87470863  4.39389234  2.77298830
   1.06060327  1.15808607  7.18595561
   1.06792438  1.14672897  0.50001384
   6.67791147  9.24904496  2.77321950
   6.62631854  4.37560010  9.50427611
   8.07750542  5.20558348  4.99519460
  10.90354808  6.84595751  9.46346992
   5.27811995  1.96315727  2.77324501
   2.46926482  1.96309165  2.76024766
  15.09242267  7.63468479  4.98066467
  12.28248640  6.01763072  7.18967684
   6.67475476  6.01641357  7.21137939
  12.29348308  6.00858369  0.49930726
   6.68363028  6.00761364  0.50223913
   8.08147875  6.81978122  2.77710096
   6.68027130  4.39284709  2.77762202
   3.86698549  2.77402321  4.97624671
  10.87495596  3.59091149  7.19666792
  10.88979155  3.57892538  0.50016845
  10.88256329  0.34537763  4.98142163
   9.47883058  7.63433694  4.98551614
  10.88174600  5.20417650  4.98586429
   6.67668222  7.63370233  4.98549773
   5.27252015  0.34586927  4.98174751
   5.27689430  6.82094065  2.77430621
   8.07795734  0.34658396  4.98074575
   9.47743819  1.15880943  7.18999414
  10.87952416  8.44791023  7.18917026
   9.48766005  1.14903439  0.49977774
  10.89111631  8.43729834  0.49921132
   5.27373367  5.20402063  4.98587441
  12.28810805  2.77436019  4.97647658
  15.09512961  9.25114580  2.77085941
   9.48051109  2.77702924  4.98569155
   6.67503088  2.77755827  4.98597580
   8.07031702  5.21121017 10.33363571
 


--------------------------------------------------------------------------------------------------------


 k-point  1 :   0.0000 0.0000 0.0000  plane waves:   70321
 k-point  2 :   0.2500 0.0000 0.0000  plane waves:   70283
 k-point  3 :   0.5000 0.0000 0.0000  plane waves:   70264
 k-point  4 :   0.0000 0.2500 0.0000  plane waves:   70283
 k-point  5 :   0.2500 0.2500 0.0000  plane waves:   70283
 k-point  6 :   0.5000 0.2500 0.0000  plane waves:   70273
 k-point  7 :  -0.2500 0.2500 0.0000  plane waves:   70273
 k-point  8 :   0.0000 0.5000 0.0000  plane waves:   70264
 k-point  9 :   0.2500 0.5000 0.0000  plane waves:   70273
 k-point 10 :   0.5000 0.5000 0.0000  plane waves:   70264

 maximum and minimum number of plane-waves per node :     70321    70264

 maximum number of plane-waves:     70321
 maximum index in each direction: 
   IXMAX=   21   IYMAX=   21   IZMAX=   42
   IXMIN=  -21   IYMIN=  -21   IZMIN=  -42


 serial   3D FFT for wavefunctions
 parallel 3D FFT for charge:
    minimum data exchange during FFTs selected (reduces bandwidth)


 total amount of memory used by VASP MPI-rank0   611281. kBytes
=======================================================================

   base      :      30000. kBytes
   nonlr-proj:     107965. kBytes
   fftplans  :      15524. kBytes
   grid      :     133430. kBytes
   one-center:       2519. kBytes
   wavefun   :     321843. kBytes
 
     INWAV:  cpu time    0.0001: real time    0.0001
 Broyden mixing: mesh for mixing (old mesh)
   NGX = 43   NGY = 43   NGZ = 85
  (NGX  =180   NGY  =180   NGZ  =336)
  gives a total of 157165 points

 initial charge density was supplied:
 charge density of overlapping atoms calculated
 number of electron     801.0000000 magnetization      81.0000000
 keeping initial charge density in first step


--------------------------------------------------------------------------------------------------------


 Maximum index for non-local projection operator         7660
 Maximum index for augmentation-charges         1773 (set IRDMAX)


--------------------------------------------------------------------------------------------------------


 First call to EWALD:  gamma=   0.132
 Maximum number of real-space cells 4x 4x 2
 Maximum number of reciprocal cells 2x 2x 4

    FEWALD:  cpu time    0.0043: real time    0.0043


--------------------------------------- Iteration      1(   1)  ---------------------------------------


    POTLOK:  cpu time    0.5573: real time    0.5608
    SETDIJ:  cpu time    0.0404: real time    0.0407
     EDDAV:  cpu time  152.8879: real time  153.3845
 BZINTS: Fermi energy: 14.451882;801.000000 electrons
         Band energy:5999.593999;  BLOECHL correction: -0.003202
       DOS:  cpu time    0.0681: real time    0.0683
    --------------------------------------------
      LOOP:  cpu time  153.5537: real time  154.0544

 eigenvalue-minimisations  : 22400
 total energy-change (2. order) : 0.5355457E+04  (-0.3876757E+05)
 number of electron     801.0000000 magnetization      81.0000000
 augmentation part      801.0000000 magnetization      81.0000000

 Free energy of the ion-electron system (eV)
  ---------------------------------------------------
  alpha Z        PSCENC =      2539.23836485
  Ewald energy   TEWEN  =    178066.26963806
  -Hartree energ DENC   =   -242142.72286724
  -exchange      EXHF   =         0.00000000
  -V(xc)+E(xc)   XCENC  =       289.02919493
  PAW double counting   =     55685.49641431   -53423.17961727
  entropy T*S    EENTRO =         0.00000000
  eigenvalues    EBANDS =      5999.59399852
  atomic energy  EATOM  =     58341.73154849
  Solvation  Ediel_sol  =         0.00000000
  ---------------------------------------------------
  free energy    TOTEN  =      5355.45667466 eV

  energy without entropy =     5355.45667466  energy(sigma->0) =     5355.45667466


--------------------------------------------------------------------------------------------------------




--------------------------------------- Iteration      1(   2)  ---------------------------------------


     EDDAV:  cpu time  165.6810: real time  166.1327
 BZINTS: Fermi energy:  4.338927;801.000000 electrons
         Band energy: 413.430236;  BLOECHL correction: -0.081020
       DOS:  cpu time    0.0677: real time    0.0679
    --------------------------------------------
      LOOP:  cpu time  165.7487: real time  166.2006

 eigenvalue-minimisations  : 24800
 total energy-change (2. order) :-0.5586164E+04  (-0.5113577E+04)
 number of electron     801.0000000 magnetization      81.0000000
 augmentation part      801.0000000 magnetization      81.0000000

 Free energy of the ion-electron system (eV)
  ---------------------------------------------------
  alpha Z        PSCENC =      2539.23836485
  Ewald energy   TEWEN  =    178066.26963806
  -Hartree energ DENC   =   -242142.72286724
  -exchange      EXHF   =         0.00000000
  -V(xc)+E(xc)   XCENC  =       289.02919493
  PAW double counting   =     55685.49641431   -53423.17961727
  entropy T*S    EENTRO =         0.00000000
  eigenvalues    EBANDS =       413.43023650
  atomic energy  EATOM  =     58341.73154849
  Solvation  Ediel_sol  =         0.00000000
  ---------------------------------------------------
  free energy    TOTEN  =      -230.70708737 eV

  energy without entropy =     -230.70708737  energy(sigma->0) =     -230.70708737


--------------------------------------------------------------------------------------------------------




--------------------------------------- Iteration      1(   3)  ---------------------------------------


     EDDAV:  cpu time  168.6829: real time  169.1422
 BZINTS: Fermi energy:  3.814988;801.000000 electrons
         Band energy: 154.374340;  BLOECHL correction: -0.118298
       DOS:  cpu time    0.0681: real time    0.0685
    --------------------------------------------
      LOOP:  cpu time  168.7510: real time  169.2107

 eigenvalue-minimisations  : 25480
 total energy-change (2. order) :-0.2590559E+03  (-0.2451803E+03)
 number of electron     801.0000000 magnetization      81.0000000
 augmentation part      801.0000000 magnetization      81.0000000

 Free energy of the ion-electron system (eV)
  ---------------------------------------------------
  alpha Z        PSCENC =      2539.23836485
  Ewald energy   TEWEN  =    178066.26963806
  -Hartree energ DENC   =   -242142.72286724
  -exchange      EXHF   =         0.00000000
  -V(xc)+E(xc)   XCENC  =       289.02919493
  PAW double counting   =     55685.49641431   -53423.17961727
  entropy T*S    EENTRO =         0.00000000
  eigenvalues    EBANDS =       154.37434035
  atomic energy  EATOM  =     58341.73154849
  Solvation  Ediel_sol  =         0.00000000
  ---------------------------------------------------
  free energy    TOTEN  =      -489.76298351 eV

  energy without entropy =     -489.76298351  energy(sigma->0) =     -489.76298351


--------------------------------------------------------------------------------------------------------




--------------------------------------- Iteration      1(   4)  ---------------------------------------


     EDDAV:  cpu time  172.0407: real time  172.4974
 BZINTS: Fermi energy:  3.800303;801.000000 electrons
         Band energy: 148.947729;  BLOECHL correction: -0.118897
       DOS:  cpu time    0.0673: real time    0.0674
    --------------------------------------------
      LOOP:  cpu time  172.1080: real time  172.5648

 eigenvalue-minimisations  : 26200
 total energy-change (2. order) :-0.5426611E+01  (-0.5399286E+01)
 number of electron     801.0000000 magnetization      81.0000000
 augmentation part      801.0000000 magnetization      81.0000000

 Free energy of the ion-electron system (eV)
  ---------------------------------------------------
  alpha Z        PSCENC =      2539.23836485
  Ewald energy   TEWEN  =    178066.26963806
  -Hartree energ DENC   =   -242142.72286724
  -exchange      EXHF   =         0.00000000
  -V(xc)+E(xc)   XCENC  =       289.02919493
  PAW double counting   =     55685.49641431   -53423.17961727
  entropy T*S    EENTRO =         0.00000000
  eigenvalues    EBANDS =       148.94772949
  atomic energy  EATOM  =     58341.73154849
  Solvation  Ediel_sol  =         0.00000000
  ---------------------------------------------------
  free energy    TOTEN  =      -495.18959437 eV

  energy without entropy =     -495.18959437  energy(sigma->0) =     -495.18959437


--------------------------------------------------------------------------------------------------------




--------------------------------------- Iteration      1(   5)  ---------------------------------------


     EDDAV:  cpu time  168.2095: real time  168.6690
 BZINTS: Fermi energy:  3.799787;801.000000 electrons
         Band energy: 148.799796;  BLOECHL correction: -0.118862
       DOS:  cpu time    0.0654: real time    0.0655
    CHARGE:  cpu time    8.0474: real time    8.0698
    MIXING:  cpu time    0.0104: real time    0.0111
    --------------------------------------------
      LOOP:  cpu time  176.3328: real time  176.8155

 eigenvalue-minimisations  : 25440
 total energy-change (2. order) :-0.1479334E+00  (-0.1478941E+00)
 number of electron     800.9999974 magnetization      75.9489591
 augmentation part      233.1697515 magnetization      54.5369707

 Broyden mixing:
  rms(total) = 0.10266E+02    rms(broyden)= 0.10266E+02
  rms(prec ) = 0.10401E+02
  weight for this iteration     100.00

 Free energy of the ion-electron system (eV)
  ---------------------------------------------------
  alpha Z        PSCENC =      2539.23836485
  Ewald energy   TEWEN  =    178066.26963806
  -Hartree energ DENC   =   -242142.72286724
  -exchange      EXHF   =         0.00000000
  -V(xc)+E(xc)   XCENC  =       289.02919493
  PAW double counting   =     55685.49641431   -53423.17961727
  entropy T*S    EENTRO =         0.00000000
  eigenvalues    EBANDS =       148.79979611
  atomic energy  EATOM  =     58341.73154849
  Solvation  Ediel_sol  =         0.00000000
  ---------------------------------------------------
  free energy    TOTEN  =      -495.33752776 eV

  energy without entropy =     -495.33752776  energy(sigma->0) =     -495.33752776


--------------------------------------------------------------------------------------------------------




--------------------------------------- Iteration      1(   6)  ---------------------------------------


    POTLOK:  cpu time    0.4995: real time    0.5006
    SETDIJ:  cpu time    0.0412: real time    0.0413
    EDDIAG:  cpu time   24.5379: real time   24.6057
  RMM-DIIS:  cpu time   99.1070: real time   99.3490
    ORTHCH:  cpu time    3.3193: real time    3.3271
 BZINTS: Fermi energy:  2.658330;801.000000 electrons
         Band energy:-706.291400;  BLOECHL correction: -0.022127
       DOS:  cpu time    0.0711: real time    0.0713
    CHARGE:  cpu time    8.1808: real time    8.2001
    MIXING:  cpu time    0.0118: real time    0.0119
    --------------------------------------------
      LOOP:  cpu time  135.7686: real time  136.1072

 eigenvalue-minimisations  : 22483
 total energy-change (2. order) : 0.1283867E+02  (-0.7692761E+01)
 number of electron     800.9999974 magnetization      72.5864238
 augmentation part      246.2316133 magnetization      50.9340110

 Broyden mixing:
  rms(total) = 0.82332E+01    rms(broyden)= 0.82332E+01
  rms(prec ) = 0.91061E+01
  weight for this iteration     100.00

 eigenvalues of (default mixing * dielectric matrix)
  average eigenvalue GAMMA=   0.7791
  0.7791

 Free energy of the ion-electron system (eV)
  ---------------------------------------------------
  alpha Z        PSCENC =      2539.23836485
  Ewald energy   TEWEN  =    178066.26963806
  -Hartree energ DENC   =   -241137.58166980
  -exchange      EXHF   =         0.00000000
  -V(xc)+E(xc)   XCENC  =       271.56602214
  PAW double counting   =     61986.83767927   -59844.26904488
  entropy T*S    EENTRO =         0.00000000
  eigenvalues    EBANDS =      -706.29140031
  atomic energy  EATOM  =     58341.73154849
  Solvation  Ediel_sol  =         0.00000000
  ---------------------------------------------------
  free energy    TOTEN  =      -482.49886219 eV

  energy without entropy =     -482.49886219  energy(sigma->0) =     -482.49886219


--------------------------------------------------------------------------------------------------------




--------------------------------------- Iteration      1(   7)  ---------------------------------------


    POTLOK:  cpu time    0.5027: real time    0.5039
    SETDIJ:  cpu time    0.0402: real time    0.0403
    EDDIAG:  cpu time   24.5627: real time   24.6209
  RMM-DIIS:  cpu time   97.9376: real time   98.1720
    ORTHCH:  cpu time    3.3145: real time    3.3223
 BZINTS: Fermi energy:  4.412735;801.000000 electrons
         Band energy: 196.309997;  BLOECHL correction: -0.064883
       DOS:  cpu time    0.0668: real time    0.0670
    CHARGE:  cpu time    7.9995: real time    8.0184
    MIXING:  cpu time    0.0110: real time    0.0110
    --------------------------------------------
      LOOP:  cpu time  134.4349: real time  134.7557

 eigenvalue-minimisations  : 22485
 total energy-change (2. order) :-0.9153664E+02  (-0.1074731E+02)
 number of electron     800.9999973 magnetization      64.8645958
 augmentation part      240.2710722 magnetization      55.3215210

 Broyden mixing:
  rms(total) = 0.91803E+01    rms(broyden)= 0.91803E+01
  rms(prec ) = 0.11668E+02
  weight for this iteration     100.00

 eigenvalues of (default mixing * dielectric matrix)
  average eigenvalue GAMMA=   0.7572
  1.2223  0.2922

 Free energy of the ion-electron system (eV)
  ---------------------------------------------------
  alpha Z        PSCENC =      2539.23836485
  Ewald energy   TEWEN  =    178066.26963806
  -Hartree energ DENC   =   -242091.16183882
  -exchange      EXHF   =         0.00000000
  -V(xc)+E(xc)   XCENC  =       264.98975070
  PAW double counting   =     65113.26360001   -63004.67655763
  entropy T*S    EENTRO =         0.00000000
  eigenvalues    EBANDS =       196.30999714
  atomic energy  EATOM  =     58341.73154849
  Solvation  Ediel_sol  =         0.00000000
  ---------------------------------------------------
  free energy    TOTEN  =      -574.03549720 eV

  energy without entropy =     -574.03549720  energy(sigma->0) =     -574.03549720


--------------------------------------------------------------------------------------------------------




--------------------------------------- Iteration      1(   8)  ---------------------------------------


    POTLOK:  cpu time    0.4994: real time    0.5006
    SETDIJ:  cpu time    0.0402: real time    0.0402
    EDDIAG:  cpu time   24.8010: real time   24.8600
  RMM-DIIS:  cpu time   98.9926: real time   99.2304
    ORTHCH:  cpu time    3.3295: real time    3.3373
 BZINTS: Fermi energy:  2.852869;801.000000 electrons
         Band energy:-423.859925;  BLOECHL correction: -0.038597
       DOS:  cpu time    0.0659: real time    0.0661
    CHARGE:  cpu time    8.0764: real time    8.1055
    MIXING:  cpu time    0.0115: real time    0.0115
    --------------------------------------------
      LOOP:  cpu time  135.8165: real time  136.1517

 eigenvalue-minimisations  : 22534
 total energy-change (2. order) : 0.1053298E+03  (-0.5145941E+01)
 number of electron     800.9999974 magnetization      61.0307661
 augmentation part      249.7218110 magnetization      44.1779312

 Broyden mixing:
  rms(total) = 0.43429E+01    rms(broyden)= 0.43429E+01
  rms(prec ) = 0.48457E+01
  weight for this iteration     100.00

 eigenvalues of (default mixing * dielectric matrix)
  average eigenvalue GAMMA=   0.9303
  2.0067  0.5328  0.2515

 Free energy of the ion-electron system (eV)
  ---------------------------------------------------
  alpha Z        PSCENC =      2539.23836485
  Ewald energy   TEWEN  =    178066.26963806
  -Hartree energ DENC   =   -241298.35012187
  -exchange      EXHF   =         0.00000000
  -V(xc)+E(xc)   XCENC  =       263.22316210
  PAW double counting   =     69929.12794948   -67886.08634784
  entropy T*S    EENTRO =         0.00000000
  eigenvalues    EBANDS =      -423.85992455
  atomic energy  EATOM  =     58341.73154849
  Solvation  Ediel_sol  =         0.00000000
  ---------------------------------------------------
  free energy    TOTEN  =      -468.70573127 eV

  energy without entropy =     -468.70573127  energy(sigma->0) =     -468.70573127


--------------------------------------------------------------------------------------------------------




--------------------------------------- Iteration      1(   9)  ---------------------------------------


    POTLOK:  cpu time    0.4978: real time    0.4990
    SETDIJ:  cpu time    0.0408: real time    0.0409
    EDDIAG:  cpu time   24.5552: real time   24.6225
  RMM-DIIS:  cpu time   98.5957: real time   98.8667
    ORTHCH:  cpu time    3.3199: real time    3.3288
 BZINTS: Fermi energy:  2.972548;801.000000 electrons
         Band energy:-459.083976;  BLOECHL correction: -0.055089
       DOS:  cpu time    0.0689: real time    0.0690
    CHARGE:  cpu time    8.0467: real time    8.0688
    MIXING:  cpu time    0.0117: real time    0.0118
    --------------------------------------------
      LOOP:  cpu time  135.1368: real time  135.5074

 eigenvalue-minimisations  : 22538
 total energy-change (2. order) :-0.9920436E+01  (-0.4315826E+01)
 number of electron     800.9999972 magnetization      58.8980467
 augmentation part      249.1803984 magnetization      44.2334685

 Broyden mixing:
  rms(total) = 0.50229E+01    rms(broyden)= 0.50229E+01
  rms(prec ) = 0.72881E+01
  weight for this iteration     100.00

 eigenvalues of (default mixing * dielectric matrix)
  average eigenvalue GAMMA=   0.8137
  2.1757  0.5658  0.2353  0.2778

 Free energy of the ion-electron system (eV)
  ---------------------------------------------------
  alpha Z        PSCENC =      2539.23836485
  Ewald energy   TEWEN  =    178066.26963806
  -Hartree energ DENC   =   -241263.24786664
  -exchange      EXHF   =         0.00000000
  -V(xc)+E(xc)   XCENC  =       264.26857432
  PAW double counting   =     71363.17218515   -69330.97463516
  entropy T*S    EENTRO =         0.00000000
  eigenvalues    EBANDS =      -459.08397589
  atomic energy  EATOM  =     58341.73154849
  Solvation  Ediel_sol  =         0.00000000
  ---------------------------------------------------
  free energy    TOTEN  =      -478.62616682 eV

  energy without entropy =     -478.62616682  energy(sigma->0) =     -478.62616682


--------------------------------------------------------------------------------------------------------




--------------------------------------- Iteration      1(  10)  ---------------------------------------


    POTLOK:  cpu time    0.4952: real time    0.4968
    SETDIJ:  cpu time    0.0409: real time    0.0410
    EDDIAG:  cpu time   24.6036: real time   24.6714
  RMM-DIIS:  cpu time   98.1430: real time   98.4115
    ORTHCH:  cpu time    3.3208: real time    3.3286
 BZINTS: Fermi energy:  3.185819;801.000000 electrons
         Band energy:-438.243886;  BLOECHL correction: -0.046247
       DOS:  cpu time    0.0699: real time    0.0700
    CHARGE:  cpu time    8.0244: real time    8.0433
    MIXING:  cpu time    0.0123: real time    0.0123
    --------------------------------------------
      LOOP:  cpu time  134.7099: real time  135.0750

 eigenvalue-minimisations  : 22500
 total energy-change (2. order) :-0.1705381E+02  (-0.1154242E+01)
 number of electron     800.9999973 magnetization      55.9881248
 augmentation part      248.6156727 magnetization      42.8860952

 Broyden mixing:
  rms(total) = 0.58134E+01    rms(broyden)= 0.58133E+01
  rms(prec ) = 0.93507E+01
  weight for this iteration     100.00

 eigenvalues of (default mixing * dielectric matrix)
  average eigenvalue GAMMA=   0.7308
  2.2985  0.6336  0.3544  0.2543  0.1134

 Free energy of the ion-electron system (eV)
  ---------------------------------------------------
  alpha Z        PSCENC =      2539.23836485
  Ewald energy   TEWEN  =    178066.26963806
  -Hartree energ DENC   =   -241298.64913592
  -exchange      EXHF   =         0.00000000
  -V(xc)+E(xc)   XCENC  =       264.94946863
  PAW double counting   =     71864.26924568   -69835.24521736
  entropy T*S    EENTRO =         0.00000000
  eigenvalues    EBANDS =      -438.24388620
  atomic energy  EATOM  =     58341.73154849
  Solvation  Ediel_sol  =         0.00000000
  ---------------------------------------------------
  free energy    TOTEN  =      -495.67997376 eV

  energy without entropy =     -495.67997376  energy(sigma->0) =     -495.67997376


--------------------------------------------------------------------------------------------------------




--------------------------------------- Iteration      1(  11)  ---------------------------------------


    POTLOK:  cpu time    0.4974: real time    0.4988
    SETDIJ:  cpu time    0.0405: real time    0.0406
    EDDIAG:  cpu time   24.6068: real time   24.6649
  RMM-DIIS:  cpu time   98.7972: real time   99.0423
    ORTHCH:  cpu time    3.2965: real time    3.3053
 BZINTS: Fermi energy:  2.918616;801.000000 electrons
         Band energy:-316.250444;  BLOECHL correction: -0.123341
       DOS:  cpu time    0.0693: real time    0.0695
    CHARGE:  cpu time    8.0445: real time    8.0663
    MIXING:  cpu time    0.0125: real time    0.0125
    --------------------------------------------
      LOOP:  cpu time  135.3647: real time  135.7002

 eigenvalue-minimisations  : 22528
 total energy-change (2. order) : 0.4091556E+02  (-0.7018903E+00)
 number of electron     800.9999972 magnetization      54.6982921
 augmentation part      249.0479719 magnetization      37.3987801

 Broyden mixing:
  rms(total) = 0.19904E+01    rms(broyden)= 0.19904E+01
  rms(prec ) = 0.24373E+01
  weight for this iteration     100.00

 eigenvalues of (default mixing * dielectric matrix)
  average eigenvalue GAMMA=   0.7033
  2.1180  0.7147  0.7147  0.2867  0.2867  0.0994

 Free energy of the ion-electron system (eV)
  ---------------------------------------------------
  alpha Z        PSCENC =      2539.23836485
  Ewald energy   TEWEN  =    178066.26963806
  -Hartree energ DENC   =   -241376.23716050
  -exchange      EXHF   =         0.00000000
  -V(xc)+E(xc)   XCENC  =       265.40607585
  PAW double counting   =     72393.77978344   -70368.70222150
  entropy T*S    EENTRO =         0.00000000
  eigenvalues    EBANDS =      -316.25044390
  atomic energy  EATOM  =     58341.73154849
  Solvation  Ediel_sol  =         0.00000000
  ---------------------------------------------------
  free energy    TOTEN  =      -454.76441520 eV

  energy without entropy =     -454.76441520  energy(sigma->0) =     -454.76441520


--------------------------------------------------------------------------------------------------------




--------------------------------------- Iteration      1(  12)  ---------------------------------------


    POTLOK:  cpu time    0.4959: real time    0.4974
    SETDIJ:  cpu time    0.0412: real time    0.0413
    EDDIAG:  cpu time   24.6488: real time   24.7161
  RMM-DIIS:  cpu time   98.4727: real time   98.7435
    ORTHCH:  cpu time    3.3023: real time    3.3116
 BZINTS: Fermi energy:  2.884670;801.000000 electrons
         Band energy:-332.349927;  BLOECHL correction: -0.105922
       DOS:  cpu time    0.0692: real time    0.0694
    CHARGE:  cpu time    8.1036: real time    8.1279
    MIXING:  cpu time    0.0130: real time    0.0130
    --------------------------------------------
      LOOP:  cpu time  135.1466: real time  135.5202

 eigenvalue-minimisations  : 22549
 total energy-change (2. order) :-0.2327724E+01  (-0.3655062E+00)
 number of electron     800.9999973 magnetization      52.6336905
 augmentation part      248.7036616 magnetization      34.9415634

 Broyden mixing:
  rms(total) = 0.13345E+01    rms(broyden)= 0.13345E+01
  rms(prec ) = 0.14969E+01
  weight for this iteration     100.00

 eigenvalues of (default mixing * dielectric matrix)
  average eigenvalue GAMMA=   0.7038
  1.9627  0.9279  0.9279  0.4248  0.2919  0.2919  0.0994

 Free energy of the ion-electron system (eV)
  ---------------------------------------------------
  alpha Z        PSCENC =      2539.23836485
  Ewald energy   TEWEN  =    178066.26963806
  -Hartree energ DENC   =   -241369.22016507
  -exchange      EXHF   =         0.00000000
  -V(xc)+E(xc)   XCENC  =       264.93249670
  PAW double counting   =     71948.99246803   -69916.68656371
  entropy T*S    EENTRO =         0.00000000
  eigenvalues    EBANDS =      -332.34992653
  atomic energy  EATOM  =     58341.73154849
  Solvation  Ediel_sol  =         0.00000000
  ---------------------------------------------------
  free energy    TOTEN  =      -457.09213918 eV

  energy without entropy =     -457.09213918  energy(sigma->0) =     -457.09213918


--------------------------------------------------------------------------------------------------------




--------------------------------------- Iteration      1(  13)  ---------------------------------------


    POTLOK:  cpu time    0.4962: real time    0.4975
    SETDIJ:  cpu time    0.0411: real time    0.0412
    EDDIAG:  cpu time   24.3794: real time   24.4468
  RMM-DIIS:  cpu time   98.2643: real time   98.5340
    ORTHCH:  cpu time    3.2931: real time    3.3024
 BZINTS: Fermi energy:  2.889536;801.000000 electrons
         Band energy:-331.615017;  BLOECHL correction: -0.103991
       DOS:  cpu time    0.0711: real time    0.0713
    CHARGE:  cpu time    8.0471: real time    8.0691
    MIXING:  cpu time    0.0136: real time    0.0136
    --------------------------------------------
      LOOP:  cpu time  134.6059: real time  134.9759

 eigenvalue-minimisations  : 22535
 total energy-change (2. order) :-0.2621153E+01  (-0.1820194E+00)
 number of electron     800.9999973 magnetization      50.1871922
 augmentation part      248.4765450 magnetization      33.0024398

 Broyden mixing:
  rms(total) = 0.14544E+01    rms(broyden)= 0.14544E+01
  rms(prec ) = 0.17504E+01
  weight for this iteration     100.00

 eigenvalues of (default mixing * dielectric matrix)
  average eigenvalue GAMMA=   0.6917
  1.9351  0.9403  0.9403  0.8015  0.2918  0.2918  0.0995  0.2331

 Free energy of the ion-electron system (eV)
  ---------------------------------------------------
  alpha Z        PSCENC =      2539.23836485
  Ewald energy   TEWEN  =    178066.26963806
  -Hartree energ DENC   =   -241374.97930027
  -exchange      EXHF   =         0.00000000
  -V(xc)+E(xc)   XCENC  =       264.34082182
  PAW double counting   =     71782.91172994   -69747.61107802
  entropy T*S    EENTRO =         0.00000000
  eigenvalues    EBANDS =      -331.61501659
  atomic energy  EATOM  =     58341.73154849
  Solvation  Ediel_sol  =         0.00000000
  ---------------------------------------------------
  free energy    TOTEN  =      -459.71329172 eV

  energy without entropy =     -459.71329172  energy(sigma->0) =     -459.71329172


--------------------------------------------------------------------------------------------------------




--------------------------------------- Iteration      1(  14)  ---------------------------------------


    POTLOK:  cpu time    0.4957: real time    0.4970
    SETDIJ:  cpu time    0.0412: real time    0.0413
    EDDIAG:  cpu time   24.3927: real time   24.4602
  RMM-DIIS:  cpu time   98.9090: real time   99.1754
    ORTHCH:  cpu time    3.3140: real time    3.3229
 BZINTS: Fermi energy:  2.911049;801.000000 electrons
         Band energy:-310.272209;  BLOECHL correction: -0.129106
       DOS:  cpu time    0.0687: real time    0.0689
    CHARGE:  cpu time    8.1445: real time    8.1667
    MIXING:  cpu time    0.0140: real time    0.0140
    --------------------------------------------
      LOOP:  cpu time  135.3798: real time  135.7464

 eigenvalue-minimisations  : 22513
 total energy-change (2. order) :-0.7163818E+00  (-0.7389401E-01)
 number of electron     800.9999973 magnetization      47.0381224
 augmentation part      248.3772182 magnetization      29.3714001

 Broyden mixing:
  rms(total) = 0.91436E+00    rms(broyden)= 0.91436E+00
  rms(prec ) = 0.10407E+01
  weight for this iteration     100.00

 eigenvalues of (default mixing * dielectric matrix)
  average eigenvalue GAMMA=   0.7027
  2.0151  1.0696  1.0696  0.9056  0.3215  0.3215  0.3088  0.0995  0.2128

 Free energy of the ion-electron system (eV)
  ---------------------------------------------------
  alpha Z        PSCENC =      2539.23836485
  Ewald energy   TEWEN  =    178066.26963806
  -Hartree energ DENC   =   -241395.04486057
  -exchange      EXHF   =         0.00000000
  -V(xc)+E(xc)   XCENC  =       263.35337907
  PAW double counting   =     71899.62496131   -69865.33049563
  entropy T*S    EENTRO =         0.00000000
  eigenvalues    EBANDS =      -310.27220912
  atomic energy  EATOM  =     58341.73154849
  Solvation  Ediel_sol  =         0.00000000
  ---------------------------------------------------
  free energy    TOTEN  =      -460.42967354 eV

  energy without entropy =     -460.42967354  energy(sigma->0) =     -460.42967354


--------------------------------------------------------------------------------------------------------




--------------------------------------- Iteration      1(  15)  ---------------------------------------


    POTLOK:  cpu time    0.4948: real time    0.4964
    SETDIJ:  cpu time    0.0410: real time    0.0411
    EDDIAG:  cpu time   24.8126: real time   24.8825
  RMM-DIIS:  cpu time   99.0484: real time   99.2845
    ORTHCH:  cpu time    3.3089: real time    3.3167
 BZINTS: Fermi energy:  2.946147;801.000000 electrons
         Band energy:-283.621330;  BLOECHL correction: -0.141737
       DOS:  cpu time    0.0628: real time    0.0630
    CHARGE:  cpu time    8.1440: real time    8.1632
    MIXING:  cpu time    0.0143: real time    0.0143
    --------------------------------------------
      LOOP:  cpu time  135.9267: real time  136.2617

 eigenvalue-minimisations  : 22508
 total energy-change (2. order) :-0.2300734E+01  (-0.1064852E+00)
 number of electron     800.9999973 magnetization      42.6666635
 augmentation part      248.2787659 magnetization      25.6718115

 Broyden mixing:
  rms(total) = 0.74872E+00    rms(broyden)= 0.74872E+00
  rms(prec ) = 0.81942E+00
  weight for this iteration     100.00

 eigenvalues of (default mixing * dielectric matrix)
  average eigenvalue GAMMA=   0.7407
  1.9184  1.9184  1.0619  0.6740  0.6740  0.0995  0.3019  0.2812  0.2812  0.1968

 Free energy of the ion-electron system (eV)
  ---------------------------------------------------
  alpha Z        PSCENC =      2539.23836485
  Ewald energy   TEWEN  =    178066.26963806
  -Hartree energ DENC   =   -241420.92463318
  -exchange      EXHF   =         0.00000000
  -V(xc)+E(xc)   XCENC  =       261.71923202
  PAW double counting   =     72042.39173133   -70009.53495929
  entropy T*S    EENTRO =         0.00000000
  eigenvalues    EBANDS =      -283.62132974
  atomic energy  EATOM  =     58341.73154849
  Solvation  Ediel_sol  =         0.00000000
  ---------------------------------------------------
  free energy    TOTEN  =      -462.73040745 eV

  energy without entropy =     -462.73040745  energy(sigma->0) =     -462.73040745


--------------------------------------------------------------------------------------------------------




--------------------------------------- Iteration      1(  16)  ---------------------------------------


    POTLOK:  cpu time    0.4973: real time    0.4987
    SETDIJ:  cpu time    0.0405: real time    0.0406
    EDDIAG:  cpu time   24.7561: real time   24.8149
  RMM-DIIS:  cpu time   99.6199: real time   99.8574
    ORTHCH:  cpu time    3.6409: real time    3.6495
 BZINTS: Fermi energy:  2.965927;801.000000 electrons
         Band energy:-265.251765;  BLOECHL correction: -0.139047
       DOS:  cpu time    0.0710: real time    0.0711
    CHARGE:  cpu time    8.1423: real time    8.1627
    MIXING:  cpu time    0.0151: real time    0.0151
    --------------------------------------------
      LOOP:  cpu time  136.7831: real time  137.1101

 eigenvalue-minimisations  : 22501
 total energy-change (2. order) :-0.3364418E+01  (-0.1575177E+00)
 number of electron     800.9999973 magnetization      39.9045986
 augmentation part      248.1252109 magnetization      23.7620270

 Broyden mixing:
  rms(total) = 0.47919E+00    rms(broyden)= 0.47919E+00
  rms(prec ) = 0.50347E+00
  weight for this iteration     100.00

 eigenvalues of (default mixing * dielectric matrix)
  average eigenvalue GAMMA=   0.8025
  2.3453  2.3453  0.8125  0.8125  0.8147  0.5432  0.0995  0.2920  0.2920  0.2730
  0.1981

 Free energy of the ion-electron system (eV)
  ---------------------------------------------------
  alpha Z        PSCENC =      2539.23836485
  Ewald energy   TEWEN  =    178066.26963806
  -Hartree energ DENC   =   -241441.97265945
  -exchange      EXHF   =         0.00000000
  -V(xc)+E(xc)   XCENC  =       259.88786064
  PAW double counting   =     71999.48217531   -69965.47998817
  entropy T*S    EENTRO =         0.00000000
  eigenvalues    EBANDS =      -265.25176520
  atomic energy  EATOM  =     58341.73154849
  Solvation  Ediel_sol  =         0.00000000
  ---------------------------------------------------
  free energy    TOTEN  =      -466.09482546 eV

  energy without entropy =     -466.09482546  energy(sigma->0) =     -466.09482546


--------------------------------------------------------------------------------------------------------




--------------------------------------- Iteration      1(  17)  ---------------------------------------


    POTLOK:  cpu time    0.4978: real time    0.4992
    SETDIJ:  cpu time    0.0405: real time    0.0406
    EDDIAG:  cpu time   24.5382: real time   24.5964
  RMM-DIIS:  cpu time   99.3039: real time   99.5384
    ORTHCH:  cpu time    3.3182: real time    3.3260
 BZINTS: Fermi energy:  2.965938;801.000000 electrons
         Band energy:-262.710614;  BLOECHL correction: -0.128484
       DOS:  cpu time    0.0701: real time    0.0702
    CHARGE:  cpu time    8.1365: real time    8.1558
[...]
      8.077505  5.205583  4.995195            0           0           0  
     10.903548  6.845958  9.463470            0           0           0  
      5.278120  1.963157  2.773245            0           0           0  
      2.469265  1.963092  2.760248            0           0           0  
     15.092423  7.634685  4.980665            0           0           0  
     12.282486  6.017631  7.189677            0           0           0  
      6.674755  6.016414  7.211379            0           0           0  
     12.293483  6.008584  0.499307            0           0           0  
      6.683630  6.007614  0.502239            0           0           0  
      8.081479  6.819781  2.777101            0           0           0  
      6.680271  4.392847  2.777622            0           0           0  
      3.866985  2.774023  4.976247            0           0           0  
     10.874956  3.590911  7.196668            0           0           0  
     10.889792  3.578925  0.500168            0           0           0  
     10.882563  0.345378  4.981422            0           0           0  
      9.478831  7.634337  4.985516            0           0           0  
     10.881746  5.204176  4.985864            0           0           0  
      6.676682  7.633702  4.985498            0           0           0  
      5.272520  0.345869  4.981748            0           0           0  
      5.276894  6.820941  2.774306            0           0           0  
      8.077957  0.346584  4.980746            0           0           0  
      9.477438  1.158809  7.189994            0           0           0  
     10.879524  8.447910  7.189170            0           0           0  
      9.487660  1.149034  0.499778            0           0           0  
     10.891116  8.437298  0.499211            0           0           0  
      5.273734  5.204021  4.985874            0           0           0  
     12.288108  2.774360  4.976477            0           0           0  
     15.095130  9.251146  2.770859            0           0           0  
      9.480511  2.777029  4.985692            0           0           0  
      6.675031  2.777558  4.985976            0           0           0  
      8.070317  5.211210 10.333636     0.003710    0.000591    0.999993  
 
   2 f  =   19.609112 THz   123.207686 2PiTHz  654.089558 cm-1    81.096799 meV
             X         Y         Z           dx          dy          dz
     13.685469  8.447763  7.190412            0           0           0  
      5.269579  8.447798  7.189271            0           0           0  
      3.866395  6.017073  7.189264            0           0           0  
     13.696129  8.438454  0.496475            0           0           0  
      5.279931  8.436808  0.499084            0           0           0  
      3.877813  6.008571  0.498973            0           0           0  
      8.080623  1.964219  2.773947            0           0           0  
      9.484597  9.248972  2.773011            0           0           0  
      2.463130  3.587887  7.186150            0           0           0  
      2.474246  3.582264  0.499594            0           0           0  
     10.884469  1.963553  2.773148            0           0           0  
     13.688932  5.206105  4.981570            0           0           0  
      3.865486  1.158847  7.186841            0           0           0  
      9.474226  6.016081  7.211693            0           0           0  
      5.273759  3.590847  7.196325            0           0           0  
      3.879445  1.147124  0.500529            0           0           0  
      9.488058  6.007735  0.501650            0           0           0  
      5.280364  3.578899  0.500134            0           0           0  
     12.290198  9.251120  2.771402            0           0           0  
     12.285596  7.634228  4.980766            0           0           0  
     13.693036  6.822499  2.770819            0           0           0  
      9.481751  4.393304  2.777744            0           0           0  
      8.074277  8.442537  7.195964            0           0           0  
      8.084948  8.437475  0.499924            0           0           0  
     10.885328  6.821112  2.774151            0           0           0  
      2.466590  0.348638  4.975966            0           0           0  
     15.085606  9.259635  9.467320            0           0           0  
      3.855196  4.399444  9.463154            0           0           0  
      6.665278  9.267340  9.463504            0           0           0  
     12.287357  4.399895  9.464005            0           0           0  
      9.477300  9.266759  9.464122            0           0           0  
     10.881260  1.964474  9.463699            0           0           0  
      2.459271  1.970962  9.461004            0           0           0  
     12.278800  9.260198  9.466955            0           0           0  
     13.683069  6.829694  9.466829            0           0           0  
      5.260883  1.964926  9.464081            0           0           0  
      8.071153  6.879997  9.504298            0           0           0  
      9.516532  4.375965  9.504346            0           0           0  
      5.239300  6.845260  9.462789            0           0           0  
      8.070360  1.939437  9.464422            0           0           0  
      8.074627  3.591123  7.211837            0           0           0  
      8.085579  3.579882  0.501695            0           0           0  
      6.671482  1.158370  7.189745            0           0           0  
      6.683207  1.148814  0.499281            0           0           0  
     12.287679  4.393951  2.772959            0           0           0  
      3.874709  4.393892  2.772988            0           0           0  
      1.060603  1.158086  7.185956            0           0           0  
      1.067924  1.146729  0.500014            0           0           0  
      6.677911  9.249045  2.773219            0           0           0  
      6.626319  4.375600  9.504276            0           0           0  
      8.077505  5.205583  4.995195            0           0           0  
     10.903548  6.845958  9.463470            0           0           0  
      5.278120  1.963157  2.773245            0           0           0  
      2.469265  1.963092  2.760248            0           0           0  
     15.092423  7.634685  4.980665            0           0           0  
     12.282486  6.017631  7.189677            0           0           0  
      6.674755  6.016414  7.211379            0           0           0  
     12.293483  6.008584  0.499307            0           0           0  
      6.683630  6.007614  0.502239            0           0           0  
      8.081479  6.819781  2.777101            0           0           0  
      6.680271  4.392847  2.777622            0           0           0  
      3.866985  2.774023  4.976247            0           0           0  
     10.874956  3.590911  7.196668            0           0           0  
     10.889792  3.578925  0.500168            0           0           0  
     10.882563  0.345378  4.981422            0           0           0  
      9.478831  7.634337  4.985516            0           0           0  
     10.881746  5.204176  4.985864            0           0           0  
      6.676682  7.633702  4.985498            0           0           0  
      5.272520  0.345869  4.981748            0           0           0  
      5.276894  6.820941  2.774306            0           0           0  
      8.077957  0.346584  4.980746            0           0           0  
      9.477438  1.158809  7.189994            0           0           0  
     10.879524  8.447910  7.189170            0           0           0  
      9.487660  1.149034  0.499778            0           0           0  
     10.891116  8.437298  0.499211            0           0           0  
      5.273734  5.204021  4.985874            0           0           0  
     12.288108  2.774360  4.976477            0           0           0  
     15.095130  9.251146  2.770859            0           0           0  
      9.480511  2.777029  4.985692            0           0           0  
      6.675031  2.777558  4.985976            0           0           0  
      8.070317  5.211210 10.333636    -0.490911   -0.871207    0.002336  
 
   3 f  =   19.431377 THz   122.090945 2PiTHz  648.160963 cm-1    80.361746 meV
             X         Y         Z           dx          dy          dz
     13.685469  8.447763  7.190412            0           0           0  
      5.269579  8.447798  7.189271            0           0           0  
      3.866395  6.017073  7.189264            0           0           0  
     13.696129  8.438454  0.496475            0           0           0  
      5.279931  8.436808  0.499084            0           0           0  
      3.877813  6.008571  0.498973            0           0           0  
      8.080623  1.964219  2.773947            0           0           0  
      9.484597  9.248972  2.773011            0           0           0  
      2.463130  3.587887  7.186150            0           0           0  
      2.474246  3.582264  0.499594            0           0           0  
     10.884469  1.963553  2.773148            0           0           0  
     13.688932  5.206105  4.981570            0           0           0  
      3.865486  1.158847  7.186841            0           0           0  
      9.474226  6.016081  7.211693            0           0           0  
      5.273759  3.590847  7.196325            0           0           0  
      3.879445  1.147124  0.500529            0           0           0  
      9.488058  6.007735  0.501650            0           0           0  
      5.280364  3.578899  0.500134            0           0           0  
     12.290198  9.251120  2.771402            0           0           0  
     12.285596  7.634228  4.980766            0           0           0  
     13.693036  6.822499  2.770819            0           0           0  
      9.481751  4.393304  2.777744            0           0           0  
      8.074277  8.442537  7.195964            0           0           0  
      8.084948  8.437475  0.499924            0           0           0  
     10.885328  6.821112  2.774151            0           0           0  
      2.466590  0.348638  4.975966            0           0           0  
     15.085606  9.259635  9.467320            0           0           0  
      3.855196  4.399444  9.463154            0           0           0  
      6.665278  9.267340  9.463504            0           0           0  
     12.287357  4.399895  9.464005            0           0           0  
      9.477300  9.266759  9.464122            0           0           0  
     10.881260  1.964474  9.463699            0           0           0  
      2.459271  1.970962  9.461004            0           0           0  
     12.278800  9.260198  9.466955            0           0           0  
     13.683069  6.829694  9.466829            0           0           0  
      5.260883  1.964926  9.464081            0           0           0  
      8.071153  6.879997  9.504298            0           0           0  
      9.516532  4.375965  9.504346            0           0           0  
      5.239300  6.845260  9.462789            0           0           0  
      8.070360  1.939437  9.464422            0           0           0  
      8.074627  3.591123  7.211837            0           0           0  
      8.085579  3.579882  0.501695            0           0           0  
      6.671482  1.158370  7.189745            0           0           0  
      6.683207  1.148814  0.499281            0           0           0  
     12.287679  4.393951  2.772959            0           0           0  
      3.874709  4.393892  2.772988            0           0           0  
      1.060603  1.158086  7.185956            0           0           0  
      1.067924  1.146729  0.500014            0           0           0  
      6.677911  9.249045  2.773219            0           0           0  
      6.626319  4.375600  9.504276            0           0           0  
      8.077505  5.205583  4.995195            0           0           0  
     10.903548  6.845958  9.463470            0           0           0  
      5.278120  1.963157  2.773245            0           0           0  
      2.469265  1.963092  2.760248            0           0           0  
     15.092423  7.634685  4.980665            0           0           0  
     12.282486  6.017631  7.189677            0           0           0  
      6.674755  6.016414  7.211379            0           0           0  
     12.293483  6.008584  0.499307            0           0           0  
      6.683630  6.007614  0.502239            0           0           0  
      8.081479  6.819781  2.777101            0           0           0  
      6.680271  4.392847  2.777622            0           0           0  
      3.866985  2.774023  4.976247            0           0           0  
     10.874956  3.590911  7.196668            0           0           0  
     10.889792  3.578925  0.500168            0           0           0  
     10.882563  0.345378  4.981422            0           0           0  
      9.478831  7.634337  4.985516            0           0           0  
     10.881746  5.204176  4.985864            0           0           0  
      6.676682  7.633702  4.985498            0           0           0  
      5.272520  0.345869  4.981748            0           0           0  
      5.276894  6.820941  2.774306            0           0           0  
      8.077957  0.346584  4.980746            0           0           0  
      9.477438  1.158809  7.189994            0           0           0  
     10.879524  8.447910  7.189170            0           0           0  
      9.487660  1.149034  0.499778            0           0           0  
     10.891116  8.437298  0.499211            0           0           0  
      5.273734  5.204021  4.985874            0           0           0  
     12.288108  2.774360  4.976477            0           0           0  
     15.095130  9.251146  2.770859            0           0           0  
      9.480511  2.777029  4.985692            0           0           0  
      6.675031  2.777558  4.985976            0           0           0  
      8.070317  5.211210 10.333636     0.871202   -0.490916   -0.002942  
 
 Finite differences POTIM=  1.500000000000000E-002
  LATTYP: Found a hexagonal cell.
 ALAT       =    11.2227001190
 C/A-ratio  =     1.9603125600
  
  Lattice vectors:
  
 A1 = (   5.6113500595,  -9.7191434021,   0.0000000000)
 A2 = ( -11.2227001190,   0.0000000000,   0.0000000000)
 A3 = (   0.0000000000,   0.0000000000, -22.0000000000)


Analysis of symmetry for initial positions (statically):
=====================================================================
 Subroutine PRICEL returns:
 Original cell was already a primitive cell.
 

 Routine SETGRP: Setting up the symmetry group for a 
 hexagonal supercell.


 Subroutine GETGRP returns: Found  1 space group operations
 (whereof  1 operations were pure point group operations)
 out of a pool of 24 trial point group operations.


The static configuration has the point symmetry C_1 .


Analysis of symmetry for dynamics (positions and initial velocities):
=====================================================================
 Subroutine PRICEL returns:
 Original cell was already a primitive cell.
 

 Routine SETGRP: Setting up the symmetry group for a 
 hexagonal supercell.


 Subroutine GETGRP returns: Found  1 space group operations
 (whereof  1 operations were pure point group operations)
 out of a pool of 24 trial point group operations.


The dynamic configuration has the point symmetry C_1 .


Analysis of constrained symmetry for selective dynamics:
=====================================================================
 Subroutine PRICEL returns:
 Original cell was already a primitive cell.
 

 Routine SETGRP: Setting up the symmetry group for a 
 hexagonal supercell.


 Subroutine GETGRP returns: Found  1 space group operations
 (whereof  1 operations were pure point group operations)
 out of a pool of 24 trial point group operations.


The constrained configuration has the point symmetry C_1 .


Analysis of structural, dynamic, and magnetic symmetry:
=====================================================================
 Subroutine PRICEL returns:
 Original cell was already a primitive cell.
 

 Routine SETGRP: Setting up the symmetry group for a 
 hexagonal supercell.


 Subroutine GETGRP returns: Found  1 space group operations
 (whereof  1 operations were pure point group operations)
 out of a pool of 24 trial point group operations.


The magnetic configuration has the point symmetry C_1 .


 Subroutine INISYM returns: Found  1 space group operations
 (whereof  1 operations are pure point group operations),
 and found     1 'primitive' translations

 
 KPOINTS: mesh auto                               

Automatic generation of k-mesh.
Space group operators:
 irot       det(A)        alpha          n_x          n_y          n_z        tau_x        tau_y        tau_z
    1     1.000000     0.000000     1.000000     0.000000     0.000000     0.000000     0.000000     0.000000
 
 Subroutine IBZKPT returns following result:
 ===========================================
 
 Found     10 irreducible k-points:
 
 Following reciprocal coordinates:
            Coordinates               Weight
  0.000000  0.000000  0.000000      1.000000
  0.250000  0.000000  0.000000      2.000000
  0.500000  0.000000  0.000000      1.000000
  0.000000  0.250000  0.000000      2.000000
  0.250000  0.250000  0.000000      2.000000
  0.500000  0.250000  0.000000      2.000000
 -0.250000  0.250000  0.000000      2.000000
  0.000000  0.500000  0.000000      1.000000
  0.250000  0.500000  0.000000      2.000000
  0.500000  0.500000  0.000000      1.000000
 
 Following cartesian coordinates:
            Coordinates               Weight
  0.000000  0.000000  0.000000      1.000000
  0.022276 -0.012861  0.000000      2.000000
  0.044553 -0.025722  0.000000      1.000000
  0.000000  0.025722  0.000000      2.000000
  0.022276  0.012861  0.000000      2.000000
  0.044553  0.000000  0.000000      2.000000
 -0.022276  0.038584  0.000000      2.000000
  0.000000  0.051445  0.000000      1.000000
  0.022276  0.038584  0.000000      2.000000
  0.044553  0.025722  0.000000      1.000000
 
 TETIRR: Found     48 inequivalent tetrahedra from       96
     LOOP+:  cpu time 3251.4076: real time 3260.1112
    4ORBIT:  cpu time    0.0000: real time    0.0000
 BZINTS: Fermi energy:  2.806993;801.000000 electrons
         Band energy:-379.460783;  BLOECHL correction: -0.131712

 total amount of memory used by VASP MPI-rank0   611281. kBytes
=======================================================================

   base      :      30000. kBytes
   nonlr-proj:     107965. kBytes
   fftplans  :      15524. kBytes
   grid      :     133430. kBytes
   one-center:       2519. kBytes
   wavefun   :     321843. kBytes
 
  
  
 General timing and accounting informations for this job:
 ========================================================
  
                  Total CPU time used (sec):    25035.289
                            User time (sec):    24979.482
                          System time (sec):       55.807
                         Elapsed time (sec):    25114.123
  
                   Maximum memory used (kb):     1921776.
                   Average memory used (kb):           0.
  
                          Minor page faults:      7753470
                          Major page faults:            0
                 Voluntary context switches:         5669
