 vasp.5.4.4.18Apr17-6-g9f103f2a35 (build Nov 30 2020 22:55:02) complex          
  
 executed on             LinuxIFC date 2023.08.04  10:00:20
 running on   40 total cores
 distrk:  each k-point on   40 cores,    1 groups
 distr:  one band on NCORES_PER_BAND=   1 cores,   40 groups


--------------------------------------------------------------------------------------------------------


 INCAR:
 POTCAR:    PAW_PBE Pt 04Feb2005                  
 POTCAR:    PAW_PBE H 15Jun2001                   

 ----------------------------------------------------------------------------- 
|                                                                             |
|           W    W    AA    RRRRR   N    N  II  N    N   GGGG   !!!           |
|           W    W   A  A   R    R  NN   N  II  NN   N  G    G  !!!           |
|           W    W  A    A  R    R  N N  N  II  N N  N  G       !!!           |
|           W WW W  AAAAAA  RRRRR   N  N N  II  N  N N  G  GGG   !            |
|           WW  WW  A    A  R   R   N   NN  II  N   NN  G    G                |
|           W    W  A    A  R    R  N    N  II  N    N   GGGG   !!!           |
|                                                                             |
|      For optimal performance we recommend to set                            |
|        NCORE= 4 - approx SQRT( number of cores)                             |
|      NCORE specifies how many cores store one orbital (NPAR=cpu/NCORE).     |
|      This setting can  greatly improve the performance of VASP for DFT.     |
|      The default,   NCORE=1            might be grossly inefficient         |
|      on modern multi-core architectures or massively parallel machines.     |
|      Do your own testing !!!!                                               |
|      Unfortunately you need to use the default for GW and RPA calculations. |
|      (for HF NCORE is supported but not extensively tested yet)             |
|                                                                             |
 ----------------------------------------------------------------------------- 

 POTCAR:    PAW_PBE Pt 04Feb2005                  
   VRHFIN =Pt: s1d9                                                             
   LEXCH  = PE                                                                  
   EATOM  =   729.1176 eV,   53.5886 Ry                                         
                                                                                
   TITEL  = PAW_PBE Pt 04Feb2005                                                
   LULTRA =        F    use ultrasoft PP ?                                      
   IUNSCR =        1    unscreen: 0-lin 1-nonlin 2-no                           
   RPACOR =    2.330    partial core radius                                     
   POMASS =  195.080; ZVAL   =   10.000    mass and valenz                      
   RCORE  =    2.600    outmost cutoff radius                                   
   RWIGS  =    2.750; RWIGS  =    1.455    wigner-seitz radius (au A)           
   ENMAX  =  230.283; ENMIN  =  172.712 eV                                      
   ICORE  =        3    local potential                                         
   LCOR   =        T    correct aug charges                                     
   LPAW   =        T    paw PP                                                  
   EAUG   =  358.966                                                            
   DEXC   =    0.000                                                            
   RMAX   =    2.658    core radius for proj-oper                               
   RAUG   =    1.300    factor for augmentation sphere                          
   RDEP   =    2.761    radius for radial grids                                 
   RDEPT  =    2.203    core radius for aug-charge                              
                                                                                
   Atomic configuration                                                         
   16 entries                                                                   
     n  l   j            E        occ.                                          
     1  0  0.50    -78401.1885   2.0000                                         
     2  0  0.50    -13770.7750   2.0000                                         
     2  1  1.50    -11931.0468   6.0000                                         
     3  0  0.50     -3234.7234   2.0000                                         
     3  1  1.50     -2699.2216   6.0000                                         
     3  2  2.50     -2119.5714  10.0000                                         
     4  0  0.50      -695.1528   2.0000                                         
     4  1  1.50      -519.6034   6.0000                                         
     4  2  2.50      -306.6786  10.0000                                         
     4  3  3.50       -70.1041  14.0000                                         
     5  0  0.50      -101.7747   2.0000                                         
     5  1  1.50       -55.9873   6.0000                                         
     5  2  2.50        -6.1423   9.0000                                         
     6  0  0.50        -5.6573   1.0000                                         
     6  1  1.50        -6.8029   0.0000                                         
     5  3  2.50        -1.3606   0.0000                                         
   Description                                                                  
     l       E           TYP  RCUT    TYP  RCUT                                 
     2     -6.1423404     23  2.500                                             
     2     -7.5029230     23  2.500                                             
     0     -5.6573207     23  2.500                                             
     0      0.7416693     23  2.500                                             
     1     -2.7211652     23  2.600                                             
     1     20.4087390     23  2.600                                             
     3     -1.3605826     23  2.500                                             
  local pseudopotential read in
  partial core-charges read in
  partial kinetic energy density read in
  atomic valenz-charges read in
  non local Contribution for L=           2  read in
    real space projection operators read in
  non local Contribution for L=           2  read in
    real space projection operators read in
  non local Contribution for L=           0  read in
    real space projection operators read in
  non local Contribution for L=           0  read in
    real space projection operators read in
  non local Contribution for L=           1  read in
    real space projection operators read in
  non local Contribution for L=           1  read in
    real space projection operators read in
    PAW grid and wavefunctions read in
 
   number of l-projection  operators is LMAX  =           6
   number of lm-projection operators is LMMAX =          18
 
 POTCAR:    PAW_PBE H 15Jun2001                   
   VRHFIN =H: ultrasoft test                                                    
   LEXCH  = PE                                                                  
   EATOM  =    12.4884 eV,    0.9179 Ry                                         
                                                                                
   TITEL  = PAW_PBE H 15Jun2001                                                 
   LULTRA =        F    use ultrasoft PP ?                                      
   IUNSCR =        0    unscreen: 0-lin 1-nonlin 2-no                           
   RPACOR =    0.000    partial core radius                                     
   POMASS =    1.000; ZVAL   =    1.000    mass and valenz                      
   RCORE  =    1.100    outmost cutoff radius                                   
   RWIGS  =    0.700; RWIGS  =    0.370    wigner-seitz radius (au A)           
   ENMAX  =  250.000; ENMIN  =  200.000 eV                                      
   RCLOC  =    0.701    cutoff for local pot                                    
   LCOR   =        T    correct aug charges                                     
   LPAW   =        T    paw PP                                                  
   EAUG   =  400.000                                                            
   RMAX   =    1.123    core radius for proj-oper                               
   RAUG   =    1.200    factor for augmentation sphere                          
   RDEP   =    1.112    radius for radial grids                                 
   RDEPT  =    0.926    core radius for aug-charge                              
                                                                                
   Atomic configuration                                                         
    2 entries                                                                   
     n  l   j            E        occ.                                          
     1  0  0.50        -6.4927   1.0000                                         
     2  1  0.50        -3.4015   0.0000                                         
   Description                                                                  
     l       E           TYP  RCUT    TYP  RCUT                                 
     0     -6.4927494     23  1.100                                             
     0      6.8029130     23  1.100                                             
     1     -4.0817478     23  1.100                                             
  local pseudopotential read in
  atomic valenz-charges read in
  non local Contribution for L=           0  read in
    real space projection operators read in
  non local Contribution for L=           0  read in
    real space projection operators read in
  non local Contribution for L=           1  read in
    real space projection operators read in
    PAW grid and wavefunctions read in
 
   number of l-projection  operators is LMAX  =           3
   number of lm-projection operators is LMMAX =           5
 
 Optimization of the real space projectors (new method)

 maximal supplied QI-value         = 14.36
 optimisation between [QCUT,QGAM] = [ 11.92, 23.98] = [ 39.79,161.09] Ry 
 Optimized for a Real-space Cutoff    1.49 Angstroem

   l    n(q)    QCUT    max X(q) W(low)/X(q) W(high)/X(q)  e(spline) 
   2     10    11.920    66.195    0.79E-04    0.18E-03    0.24E-06
   2     10    11.920    64.643    0.81E-04    0.19E-03    0.24E-06
   0     11    11.920    95.520    0.28E-04    0.54E-04    0.18E-06
   0     11    11.920    63.403    0.27E-04    0.52E-04    0.17E-06
   1     10    11.920    19.961    0.18E-04    0.11E-03    0.23E-06
   1     10    11.920    13.289    0.25E-04    0.87E-04    0.19E-06
 Optimization of the real space projectors (new method)

 maximal supplied QI-value         = 34.20
 optimisation between [QCUT,QGAM] = [ 11.97, 23.94] = [ 40.13,160.53] Ry 
 Optimized for a Real-space Cutoff    1.18 Angstroem

   l    n(q)    QCUT    max X(q) W(low)/X(q) W(high)/X(q)  e(spline) 
   0      8    11.971    19.460    0.15E-03    0.31E-03    0.25E-06
   0      8    11.971    12.209    0.13E-03    0.29E-03    0.25E-06
   1      8    11.971     4.655    0.22E-03    0.24E-03    0.21E-06
  PAW_PBE Pt 04Feb2005                  :
 energy of atom  1       EATOM= -729.1176
 kinetic energy error for atom=    0.0021 (will be added to EATOM!!)
  PAW_PBE H 15Jun2001                   :
 energy of atom  2       EATOM=  -12.4884
 kinetic energy error for atom=    0.0008 (will be added to EATOM!!)
 
 
 POSCAR: Pt   H                                  
  positions in cartesian coordinates
  No initial velocities read in
 exchange correlation table for  LEXCH =        8
   RHO(1)=    0.500       N(1)  =     2000
   RHO(2)=  100.500       N(2)  =     4000
 


--------------------------------------------------------------------------------------------------------


 ion  position               nearest neighbor table
   1  1.000  0.000  0.056-   5 2.64   9 2.64  13 2.64  29 2.64  57 2.64  37 2.64  42 2.87  14 2.87
                            54 2.87
   2  0.333  0.167  0.178-  30 2.64  26 2.64  38 2.64  42 2.64  14 2.64   6 2.64  11 2.82   9 2.87
                            21 2.87  13 2.87   7 2.88  15 2.89
   3  0.168  0.333  0.299-   7 2.61  15 2.61  43 2.63  27 2.64  39 2.64  31 2.65   8 2.82  48 2.83
                             6 2.87  14 2.87  10 2.88  12 3.10
   4  0.000  0.001  0.418-   8 2.63  16 2.64  32 2.64  40 2.64  12 2.64  60 2.65   7 2.82  27 2.86
                            63 2.89
   5  1.000  0.250  0.056-   1 2.64  45 2.64  33 2.64   9 2.64  29 2.64  25 2.64  14 2.87  10 2.87
                            18 2.87
   6  0.333  0.417  0.178-  26 2.64  62 2.64  10 2.64  34 2.64  14 2.64   2 2.64  43 2.87   3 2.87
                            45 2.87  49 2.87   9 2.87  15 2.88
   7  0.168  0.086  0.300-   3 2.61  15 2.62  11 2.63  27 2.64  35 2.65  63 2.66   4 2.82  16 2.83
                             2 2.88  14 2.88  42 2.90  12 3.08
   8  1.000  0.250  0.418-   4 2.63  32 2.64  28 2.64  48 2.64  36 2.64  12 2.66   3 2.82  27 2.85
                            31 2.86
   9  0.250  0.250  0.056-  21 2.64  13 2.64   1 2.64  49 2.64  45 2.64   5 2.64   2 2.87  14 2.87
                             6 2.87
  10  0.083  0.417  0.178-  34 2.64   6 2.64  46 2.64  14 2.64  18 2.64  22 2.64  39 2.83  31 2.83
                            33 2.87  45 2.87   5 2.87   3 2.88
  11  0.416  0.084  0.297-   7 2.63  35 2.63  19 2.64  23 2.64  47 2.65  15 2.65   2 2.82  24 2.83
                            30 2.83  38 2.83  16 2.88  20 2.89
  12  0.249  0.249  0.435-  66 2.12  65 2.14   4 2.64  16 2.65   8 2.66  52 2.67  48 2.67  24 2.68
                             7 3.08  15 3.09   3 3.10
  13  0.250  0.000  0.056-  21 2.64   9 2.64  17 2.64   1 2.64  37 2.64  41 2.64  38 2.87   2 2.87
                            42 2.87
  14  0.083  0.167  0.178-  42 2.64  54 2.64   6 2.64   2 2.64  10 2.64  18 2.64  27 2.83   5 2.87
                             1 2.87   9 2.87   3 2.87   7 2.88
  15  0.416  0.334  0.300-   3 2.61  43 2.61   7 2.62  55 2.62  11 2.65  19 2.65  24 2.78   6 2.88
                            26 2.89   2 2.89  52 3.07  12 3.09
  16  0.250  1.000  0.419-  44 2.64  40 2.64   4 2.64  20 2.64  24 2.64  12 2.65   7 2.83  35 2.88
                            11 2.88
  17  0.500  0.000  0.056-  29 2.64  25 2.64  13 2.64  21 2.64  41 2.64  53 2.64  58 2.87  30 2.87
                            38 2.87
  18  0.833  0.167  0.178-  54 2.64  58 2.64  22 2.64  10 2.64  30 2.64  14 2.64  31 2.84  27 2.84
                            23 2.85  25 2.87  29 2.87   5 2.87
  19  0.666  0.334  0.297-  55 2.63  59 2.63  11 2.64  23 2.64  31 2.65  15 2.65  26 2.82  24 2.83
                            22 2.83  30 2.83  64 2.88  28 2.90
  20  0.500  1.000  0.419-  56 2.64  32 2.64  24 2.64  44 2.64  16 2.64  28 2.64  23 2.87  47 2.88
                            11 2.89
  21  0.500  0.250  0.056-  25 2.64  61 2.64   9 2.64  13 2.64  49 2.64  17 2.64  30 2.87   2 2.87
                            26 2.87
  22  0.833  0.417  0.178-  50 2.64  26 2.64  30 2.64  18 2.64  46 2.64  10 2.64  59 2.83  19 2.83
                            31 2.84  61 2.87  25 2.87  33 2.87
  23  0.667  0.084  0.298-  19 2.64  31 2.64  11 2.64  47 2.64  27 2.64  51 2.64  30 2.85  18 2.85
                            58 2.85  32 2.87  20 2.87  28 2.87
  24  0.500  0.250  0.416-  28 2.64  20 2.64  16 2.64  64 2.64  52 2.68  12 2.68  15 2.78  19 2.83
                            11 2.83
  25  0.750  0.250  0.056-  17 2.64  21 2.64  29 2.64  61 2.64  33 2.64   5 2.64  18 2.87  22 2.87
                            30 2.87
  26  0.583  0.417  0.178-   6 2.64   2 2.64  22 2.64  30 2.64  62 2.64  50 2.64  19 2.82  49 2.87
                            61 2.87  21 2.87  55 2.88  15 2.89
  27  0.917  0.083  0.297-  63 2.63  31 2.64  51 2.64   7 2.64   3 2.64  23 2.64  14 2.83  18 2.84
                            54 2.84   8 2.85   4 2.86  32 2.88
  28  0.750  0.250  0.419-  32 2.64  24 2.64   8 2.64  36 2.64  64 2.64  20 2.64  23 2.87  31 2.89
                            19 2.90
  29  0.750  0.000  0.056-  17 2.64  25 2.64   5 2.64  53 2.64   1 2.64  57 2.64  54 2.87  18 2.87
                            58 2.87
  30  0.583  0.167  0.178-   2 2.64  38 2.64  58 2.64  26 2.64  22 2.64  18 2.64  11 2.83  19 2.83
                            23 2.85  21 2.87  17 2.87  25 2.87
  31  0.917  0.334  0.297-  39 2.64  27 2.64  59 2.64  23 2.64  19 2.65   3 2.65  10 2.83  22 2.84
                            18 2.84   8 2.86  36 2.87  28 2.89
  32  0.750  0.000  0.419-  56 2.64   8 2.64  28 2.64  20 2.64  60 2.64   4 2.64  23 2.87  51 2.88
                            27 2.88
  33  1.000  0.500  0.056-  37 2.64  41 2.64   5 2.64  45 2.64  25 2.64  61 2.64  10 2.87  46 2.87
                            22 2.87
  34  0.333  0.667  0.178-  62 2.64  10 2.64  58 2.64  46 2.64   6 2.64  38 2.64  39 2.83  47 2.83
                            41 2.87  45 2.87  53 2.87  43 2.88
  35  0.167  0.834  0.297-  11 2.63  47 2.64  63 2.64  59 2.65  39 2.65   7 2.65  40 2.83  42 2.83
                            38 2.83  46 2.83  16 2.88  44 2.88
  36  0.000  0.500  0.418-  48 2.64  64 2.64  28 2.64  44 2.64  40 2.64   8 2.64  31 2.87  59 2.87
                            39 2.88
  37  1.000  0.750  0.056-  33 2.64  41 2.64  61 2.64  57 2.64  13 2.64   1 2.64  46 2.87  50 2.87
                            42 2.87
  38  0.333  0.917  0.178-  58 2.64  30 2.64   2 2.64  42 2.64  34 2.64  46 2.64  35 2.83  11 2.83
                            47 2.84  13 2.87  17 2.87  41 2.87
  39  0.167  0.583  0.297-  47 2.64  31 2.64  43 2.64   3 2.64  35 2.65  59 2.65  34 2.83  10 2.83
                            46 2.83  48 2.87  36 2.88  44 2.88
  40  1.000  0.750  0.416-  64 2.64  16 2.64  60 2.64  44 2.64  36 2.64   4 2.64  35 2.83  59 2.83
                            63 2.84
  41  0.250  0.750  0.056-  45 2.64  33 2.64  37 2.64  53 2.64  17 2.64  13 2.64  34 2.87  46 2.87
                            38 2.87
  42  0.083  0.917  0.178-  14 2.64   2 2.64  38 2.64  46 2.64  50 2.64  54 2.64  63 2.82  35 2.83
                             1 2.87  13 2.87  37 2.87   7 2.90
  43  0.417  0.582  0.299-  55 2.61  15 2.61   3 2.63  51 2.64  39 2.64  47 2.65  56 2.82  48 2.84
                             6 2.87  62 2.87  34 2.88  52 3.08
  44  0.250  0.750  0.419-  48 2.64  16 2.64  20 2.64  36 2.64  40 2.64  56 2.64  47 2.87  35 2.88
                            39 2.88
  45  0.250  0.500  0.056-  41 2.64  53 2.64   5 2.64   9 2.64  49 2.64  33 2.64   6 2.87  10 2.87
                            34 2.87
  46  0.083  0.667  0.178-  34 2.64  50 2.64  10 2.64  42 2.64  22 2.64  38 2.64  39 2.83  59 2.83
                            35 2.83  37 2.87  33 2.87  41 2.87
  47  0.417  0.833  0.297-  39 2.64  51 2.64  35 2.64  23 2.64  11 2.65  43 2.65  34 2.83  58 2.84
                            38 2.84  56 2.85  44 2.87  20 2.88
  48  0.250  0.500  0.419-  36 2.64  44 2.64   8 2.64  56 2.64  52 2.67  12 2.67   3 2.83  43 2.84
                            39 2.87
  49  0.500  0.500  0.056-  61 2.64  53 2.64  57 2.64  21 2.64   9 2.64  45 2.64  26 2.87   6 2.87
                            62 2.87
  50  0.833  0.667  0.178-  22 2.64  46 2.64  26 2.64  42 2.64  54 2.64  62 2.64  63 2.82  59 2.83
                            57 2.87  61 2.87  37 2.87  55 2.90
  51  0.667  0.833  0.297-  63 2.63  47 2.64  27 2.64  55 2.64  43 2.64  23 2.64  54 2.84  62 2.84
                            58 2.84  56 2.85  60 2.87  32 2.88
  52  0.501  0.501  0.433-  65 2.13  66 2.17  60 2.64  56 2.65  64 2.65  12 2.67  48 2.67  24 2.68
                            55 3.05  15 3.07  43 3.08
  53  0.500  0.750  0.056-  49 2.64  57 2.64  45 2.64  41 2.64  29 2.64  17 2.64  62 2.87  34 2.87
                            58 2.87
  54  0.833  0.917  0.178-  18 2.64  14 2.64  50 2.64  58 2.64  42 2.64  62 2.64  63 2.81  51 2.84
                            27 2.84  29 2.87   1 2.87  57 2.87
  55  0.664  0.582  0.300-  43 2.61  15 2.62  19 2.63  51 2.64  59 2.65  63 2.66  60 2.83  64 2.83
                            26 2.88  62 2.88  50 2.90  52 3.05
  56  0.501  0.750  0.418-  60 2.63  32 2.64  20 2.64  44 2.64  48 2.64  52 2.65  43 2.82  51 2.85
                            47 2.85
  57  0.750  0.750  0.056-  61 2.64  49 2.64  53 2.64  37 2.64   1 2.64  29 2.64  50 2.87  62 2.87
                            54 2.87
  58  0.583  0.917  0.178-  38 2.64  30 2.64  18 2.64  34 2.64  62 2.64  54 2.64  47 2.84  51 2.84
                            23 2.85  17 2.87  29 2.87  53 2.87
  59  0.916  0.583  0.297-  19 2.63  31 2.64  63 2.64  35 2.65  39 2.65  55 2.65  50 2.83  40 2.83
                            22 2.83  46 2.83  36 2.87  64 2.88
  60  0.750  0.750  0.419-  56 2.63  64 2.64  40 2.64  32 2.64  52 2.64   4 2.65  55 2.83  51 2.87
                            63 2.89
  61  0.750  0.500  0.056-  49 2.64  57 2.64  21 2.64  25 2.64  37 2.64  33 2.64  22 2.87  26 2.87
                            50 2.87
  62  0.583  0.667  0.178-  34 2.64   6 2.64  26 2.64  58 2.64  54 2.64  50 2.64  51 2.84  43 2.87
                            53 2.87  49 2.87  57 2.87  55 2.88
  63  0.916  0.834  0.296-  51 2.63  27 2.63  35 2.64  59 2.64  55 2.66   7 2.66  54 2.81  42 2.82
                            50 2.82  40 2.84   4 2.89  60 2.89
  64  0.750  0.500  0.419-  36 2.64  40 2.64  60 2.64  28 2.64  24 2.64  52 2.65  55 2.83  59 2.88
                            19 2.88
  65  0.354  0.400  0.515-  66 0.84  52 2.13  12 2.14
  66  0.396  0.350  0.515-  65 0.84  12 2.12  52 2.17
 
  LATTYP: Found a hexagonal cell.
 ALAT       =    10.5600004196
 C/A-ratio  =     1.8939393187
  
  Lattice vectors:
  
 A1 = (  10.5600004196,   0.0000000000,   0.0000000000)
 A2 = (  -5.2800002098,   9.1452286274,   0.0000000000)
 A3 = (   0.0000000000,   0.0000000000,  20.0000000000)


Analysis of symmetry for initial positions (statically):
=====================================================================
 Subroutine PRICEL returns:
 Original cell was already a primitive cell.
 

 Routine SETGRP: Setting up the symmetry group for a 
 hexagonal supercell.


 Subroutine GETGRP returns: Found  1 space group operations
 (whereof  1 operations were pure point group operations)
 out of a pool of 24 trial point group operations.


The static configuration has the point symmetry C_1 .


Analysis of symmetry for dynamics (positions and initial velocities):
=====================================================================
 Subroutine PRICEL returns:
 Original cell was already a primitive cell.
 

 Routine SETGRP: Setting up the symmetry group for a 
 hexagonal supercell.


 Subroutine GETGRP returns: Found  1 space group operations
 (whereof  1 operations were pure point group operations)
 out of a pool of 24 trial point group operations.


The dynamic configuration has the point symmetry C_1 .


Analysis of constrained symmetry for selective dynamics:
=====================================================================
 Subroutine PRICEL returns:
 Original cell was already a primitive cell.
 

 Routine SETGRP: Setting up the symmetry group for a 
 hexagonal supercell.


 Subroutine GETGRP returns: Found  1 space group operations
 (whereof  1 operations were pure point group operations)
 out of a pool of 24 trial point group operations.


The constrained configuration has the point symmetry C_1 .


Analysis of structural, dynamic, and magnetic symmetry:
=====================================================================
 Subroutine PRICEL returns:
 Original cell was already a primitive cell.
 

 Routine SETGRP: Setting up the symmetry group for a 
 hexagonal supercell.


 Subroutine GETGRP returns: Found  1 space group operations
 (whereof  1 operations were pure point group operations)
 out of a pool of 24 trial point group operations.


The magnetic configuration has the point symmetry C_1 .


 Subroutine INISYM returns: Found  1 space group operations
 (whereof  1 operations are pure point group operations),
 and found     1 'primitive' translations

 
 
 KPOINTS: mesh auto                               

Automatic generation of k-mesh.
Space group operators:
 irot       det(A)        alpha          n_x          n_y          n_z        tau_x        tau_y        tau_z
    1     1.000000     0.000000     1.000000     0.000000     0.000000     0.000000     0.000000     0.000000
 
 Subroutine IBZKPT returns following result:
 ===========================================
 
 Found      4 irreducible k-points:
 
 Following reciprocal coordinates:
            Coordinates               Weight
  0.000000  0.000000  0.000000      1.000000
  0.500000 -0.000000  0.000000      1.000000
  0.000000  0.500000  0.000000      1.000000
  0.500000  0.500000  0.000000      1.000000
 
 Following cartesian coordinates:
            Coordinates               Weight
  0.000000  0.000000  0.000000      1.000000
  0.047348  0.027337  0.000000      1.000000
  0.000000  0.054673  0.000000      1.000000
  0.047348  0.082010  0.000000      1.000000
 
 TETIRR: Found     12 inequivalent tetrahedra from       24
 
 Subroutine IBZKPT_HF returns following result:
 ==============================================
 
 Found      4 k-points in 1st BZ
 the following      4 k-points will be used (e.g. in the exchange kernel)
 Following reciprocal coordinates:   # in IRBZ
  0.000000  0.000000  0.000000    0.25000000   1 t-inv F
  0.500000 -0.000000  0.000000    0.25000000   2 t-inv F
  0.000000  0.500000  0.000000    0.25000000   3 t-inv F
  0.500000  0.500000  0.000000    0.25000000   4 t-inv F


--------------------------------------------------------------------------------------------------------




 Dimension of arrays:
   k-points           NKPTS =      4   k-points in BZ     NKDIM =      4   number of bands    NBANDS=    440
   number of dos      NEDOS =    301   number of ions     NIONS =     66
   non local maximal  LDIM  =      6   non local SUM 2l+1 LMDIM =     18
   total plane-waves  NPLWV = ******
   max r-space proj   IRMAX =   8171   max aug-charges    IRDMAX=  35597
   dimension x,y,z NGX =    84 NGY =   84 NGZ =  160
   dimension x,y,z NGXF=   168 NGYF=  168 NGZF=  320
   support grid    NGXF=   168 NGYF=  168 NGZF=  320
   ions per type =              64   2
   NGX,Y,Z   is equivalent  to a cutoff of  13.22, 13.22, 13.30 a.u.
   NGXF,Y,Z  is equivalent  to a cutoff of  26.45, 26.45, 26.60 a.u.

 SYSTEM =  Pt111                                   
 POSCAR =  Pt   H                                  

 Startparameter for this run:
   NWRITE =      2    write-flag & timer
   PREC   = accura    normal or accurate (medium, high low for compatibility)
   ISTART =      0    job   : 0-new  1-cont  2-samecut
   ICHARG =      2    charge: 1-file 2-atom 10-const
   ISPIN  =      2    spin polarized calculation?
   LNONCOLLINEAR =      F non collinear calculations
   LSORBIT =      F    spin-orbit coupling
   INIWAV =      1    electr: 0-lowe 1-rand  2-diag
   LASPH  =      F    aspherical Exc in radial PAW
   METAGGA=      F    non-selfconsistent MetaGGA calc.

 Electronic Relaxation 1
   ENCUT  =  550.0 eV  40.42 Ry    6.36 a.u.  20.19 20.19 38.24*2*pi/ulx,y,z
   ENINI  =  550.0     initial cutoff
   ENAUG  =  400.0 eV  augmentation charge cutoff
   NELM   =    200;   NELMIN=  2; NELMDL= -5     # of ELM steps 
   EDIFF  = 0.1E-04   stopping-criterion for ELM
   LREAL  =      T    real-space projection
   NLSPLINE    = F    spline interpolate recip. space projectors
   LCOMPAT=      F    compatible to vasp.4.4
   GGA_COMPAT  = T    GGA compatible to vasp.4.4-vasp.4.6
   LMAXPAW     = -100 max onsite density
   LMAXMIX     =    2 max onsite mixed and CHGCAR
   VOSKOWN=      0    Vosko Wilk Nusair interpolation
   ROPT   =   -0.00025  -0.00025
 Ionic relaxation
   EDIFFG = -.5E-01   stopping-criterion for IOM
   NSW    =    829    number of steps for IOM
   NBLOCK =      1;   KBLOCK =    829    inner block; outer block 
   IBRION =      5    ionic relax: 0-MD 1-quasi-New 2-CG
   NFREE  =      2    steps in history (QN), initial steepest desc. (CG)
   ISIF   =      2    stress and relaxation
   IWAVPR =     11    prediction:  0-non 1-charg 2-wave 3-comb
   ISYM   =      2    0-nonsym 1-usesym 2-fastsym
   LCORR  =      T    Harris-Foulkes like correction to forces

   POTIM  = 0.5000    time-step for ionic-motion
   TEIN   =    0.0    initial temperature
   TEBEG  =    0.0;   TEEND  =   0.0 temperature during run
   SMASS  =  -3.00    Nose mass-parameter (am)
   estimated Nose-frequenzy (Omega)   =  0.10E-29 period in steps =****** mass=  -0.255E-26a.u.
   SCALEE = 1.0000    scale energy and forces
   NPACO  =    256;   APACO  = 16.0  distance and # of slots for P.C.
   PSTRESS=    0.0 pullay stress

  Mass of Ions in am
   POMASS = 195.08  1.00
  Ionic Valenz
   ZVAL   =  10.00  1.00
  Atomic Wigner-Seitz radii
   RWIGS  =  -1.00 -1.00
  virtual crystal weights 
   VCA    =   1.00  1.00
   NELECT =     642.0000    total number of electrons
   NUPDOWN=      -1.0000    fix difference up-down

 DOS related values:
   EMIN   =  10.00;   EMAX   =-10.00  energy-range for DOS
   EFERMI =   0.00
   ISMEAR =    -5;   SIGMA  =   0.10  broadening in eV -4-tet -1-fermi 0-gaus

 Electronic relaxation 2 (details)
   IALGO  =     68    algorithm
   LDIAG  =      T    sub-space diagonalisation (order eigenvalues)
   LSUBROT=      F    optimize rotation matrix (better conditioning)
   TURBO    =      0    0=normal 1=particle mesh
   IRESTART =      0    0=no restart 2=restart with 2 vectors
   NREBOOT  =      0    no. of reboots
   NMIN     =      0    reboot dimension
   EREF     =   0.00    reference energy to select bands
   IMIX   =      4    mixing-type and parameters
     AMIX     =   0.40;   BMIX     =  1.00
     AMIX_MAG =   1.60;   BMIX_MAG =  1.00
     AMIN     =   0.10
     WC   =   100.;   INIMIX=   1;  MIXPRE=   1;  MAXMIX= -45

 Intra band minimization:
   WEIMIN = 0.0010     energy-eigenvalue tresh-hold
   EBREAK =  0.57E-08  absolut break condition
   DEPER  =   0.30     relativ break condition  

   TIME   =   0.40     timestep for ELM

  volume/ion in A,a.u.               =      29.26       197.49
  Fermi-wavevector in a.u.,A,eV,Ry     =   1.134028  2.143002 17.497349  1.286019
  Thomas-Fermi vector in A             =   2.270731
 
 Write flags
   LWAVE        =      F    write WAVECAR
   LDOWNSAMPLE  =      F    k-point downsampling of WAVECAR
   LCHARG       =      F    write CHGCAR
   LVTOT        =      F    write LOCPOT, total local potential
   LVHAR        =      F    write LOCPOT, Hartree potential only
   LELF         =      F    write electronic localiz. function (ELF)
   LORBIT       =      0    0 simple, 1 ext, 2 COOP (PROOUT), +10 PAW based schemes


 Dipole corrections
   LMONO  =      F    monopole corrections only (constant potential shift)
   LDIPOL =      F    correct potential (dipole corrections)
   IDIPOL =      0    1-x, 2-y, 3-z, 4-all directions 
   EPSILON=  1.0000000 bulk dielectric constant

 Exchange correlation treatment:
   GGA     =    --    GGA type
   LEXCH   =     8    internal setting for exchange type
   VOSKOWN=      0    Vosko Wilk Nusair interpolation
   LHFCALC =     F    Hartree Fock is set to
   LHFONE  =     F    Hartree Fock one center treatment
   AEXX    =    0.0000 exact exchange contribution

 Linear response parameters
   LEPSILON=     F    determine dielectric tensor
   LRPA    =     F    only Hartree local field effects (RPA)
   LNABLA  =     F    use nabla operator in PAW spheres
   LVEL    =     F    velocity operator in full k-point grid
   LINTERFAST=   F  fast interpolation
   KINTER  =     0    interpolate to denser k-point grid
   CSHIFT  =0.1000    complex shift for real part using Kramers Kronig
   OMEGAMAX=  -1.0    maximum frequency
   DEG_THRESHOLD= 0.2000000E-02 threshold for treating states as degnerate
   RTIME   =   -0.100 relaxation time in fs
  (WPLASMAI=    0.000 imaginary part of plasma frequency in eV, 0.658/RTIME)
   DFIELD  = 0.0000000 0.0000000 0.0000000 field for delta impulse in time
 
 Orbital magnetization related:
   ORBITALMAG=     F  switch on orbital magnetization
   LCHIMAG   =     F  perturbation theory with respect to B field
   DQ        =  0.001000  dq finite difference perturbation B field
   LLRAUG    =     F  two centre corrections for induced B field



--------------------------------------------------------------------------------------------------------


 finite differences
   using selective dynamics as specified on POSCAR
   WARNING: If single coordinates had been selected the selection of coordinates
            is made according to the corresponding   d i r e c t   coordinates!
            Don't support selection of single cartesian coordinates -- sorry ...
  !
 charge density and potential will be updated during run
 spin polarized calculation
 RMM-DIIS sequential band-by-band and
  variant of blocked Davidson during initial phase
 perform sub-space diagonalisation
    before iterative eigenvector-optimisation
 modified Broyden-mixing scheme, WC =      100.0
 initial mixing is a Kerker type mixing with AMIX =  0.4000 and BMIX =      1.0000
 Hartree-type preconditioning will be used
 using additional bands          119
 real space projection scheme for non local part
 use partial core corrections
 calculate Harris-corrections to forces 
   (improved forces if not selfconsistent)
 use gradient corrections 
 use of overlap-Matrix (Vanderbilt PP)
 Fermi weights with tetrahedron method with Bloechl corrections


--------------------------------------------------------------------------------------------------------


  energy-cutoff  :      550.00
  volume of cell :     1931.47
      direct lattice vectors                 reciprocal lattice vectors
    10.560000420  0.000000000  0.000000000     0.094696966  0.054673319  0.000000000
    -5.280000210  9.145228627  0.000000000     0.000000000  0.109346638  0.000000000
     0.000000000  0.000000000 20.000000000     0.000000000  0.000000000  0.050000000

  length of vectors
    10.560000420 10.560000420 20.000000000     0.109346638  0.109346638  0.050000000


 
 k-points in units of 2pi/SCALE and weight: mesh auto                               
   0.00000000  0.00000000  0.00000000       0.250
   0.04734848  0.02733666  0.00000000       0.250
   0.00000000  0.05467332  0.00000000       0.250
   0.04734848  0.08200998  0.00000000       0.250
 
 k-points in reciprocal lattice and weights: mesh auto                               
   0.00000000  0.00000000  0.00000000       0.250
   0.50000000 -0.00000000  0.00000000       0.250
   0.00000000  0.50000000  0.00000000       0.250
   0.50000000  0.50000000  0.00000000       0.250
 
 position of ions in fractional coordinates (direct lattice) 
   0.99999844  0.00000156  0.05579229
   0.33333173  0.16666826  0.17752397
   0.16782684  0.33294926  0.29938130
   0.00037195  0.00059567  0.41842189
   0.99999844  0.25000155  0.05579229
   0.33333172  0.41666827  0.17752397
   0.16834270  0.08614804  0.29995649
   0.99985349  0.24965679  0.41777852
   0.24999844  0.25000155  0.05579229
   0.08333172  0.41666827  0.17752397
   0.41640207  0.08372129  0.29657479
   0.24892767  0.24887697  0.43462726
   0.24999844  0.00000156  0.05579229
   0.08333172  0.16666826  0.17752397
   0.41572149  0.33439935  0.30020948
   0.24992394  0.99984860  0.41899939
   0.49999844  0.00000156  0.05579229
   0.83333168  0.16666826  0.17752397
   0.66645310  0.33377656  0.29658977
   0.50006520  0.99987168  0.41938191
   0.49999843  0.25000155  0.05579229
   0.83333168  0.41666827  0.17752397
   0.66658902  0.08365541  0.29776672
   0.50042249  0.24978755  0.41580075
   0.74999841  0.25000155  0.05579229
   0.58333168  0.41666827  0.17752397
   0.91691804  0.08347311  0.29711759
   0.75026336  0.25005209  0.41945935
   0.74999842  0.00000156  0.05579229
   0.58333166  0.16666826  0.17752397
   0.91710538  0.33357566  0.29703317
   0.75002248  0.00020000  0.41912215
   0.99999844  0.50000154  0.05579229
   0.33333171  0.66666826  0.17752397
   0.16703983  0.83416582  0.29672274
   0.00002902  0.50016709  0.41848600
   0.99999843  0.75000151  0.05579229
   0.33333173  0.91666828  0.17752397
   0.16719490  0.58304757  0.29662192
   0.99996203  0.75025451  0.41565525
   0.24999843  0.75000151  0.05579229
   0.08333173  0.91666828  0.17752397
   0.41723740  0.58240679  0.29925724
   0.25001218  0.75015327  0.41865832
   0.24999844  0.50000154  0.05579229
   0.08333171  0.66666826  0.17752397
   0.41664180  0.83312731  0.29703981
   0.24975374  0.50035273  0.41858566
   0.49999844  0.50000154  0.05579229
   0.83333171  0.66666826  0.17752397
   0.66681588  0.83333778  0.29716018
   0.50124660  0.50140354  0.43332100
   0.49999843  0.75000151  0.05579229
   0.83333170  0.91666828  0.17752397
   0.66407260  0.58190920  0.30000015
   0.50054695  0.75039624  0.41774461
   0.74999841  0.75000151  0.05579229
   0.58333168  0.91666828  0.17752397
   0.91595676  0.58311364  0.29671440
   0.74987028  0.75002718  0.41868538
   0.74999839  0.50000154  0.05579229
   0.58333166  0.66666826  0.17752397
   0.91643773  0.83376159  0.29594274
   0.75041036  0.50026354  0.41907521
   0.35439451  0.39968646  0.51464622
   0.39646887  0.34959302  0.51524603
 
 position of ions in cartesian coordinates  (Angst):
  10.55997578  0.00001422  1.11584590
   2.63997474  1.52421935  3.55047947
   0.01427940  3.04489706  5.98762609
   0.00078268  0.00544753  8.36843788
   9.23997574  2.28632132  1.11584590
   1.31997457  3.81052657  3.55047947
   1.32283727  0.78784355  5.99912978
   9.24026533  2.28316844  8.35557043
   1.31997542  2.28632132  1.11584590
  -1.32002553  3.81052657  3.55047947
   3.95515760  0.76565032  5.93149583
   1.31460581  2.27603676  8.69254517
   2.63997547  0.00001422  1.11584590
  -0.00002541  1.52421935  3.55047947
   2.62439048  3.05815848  6.00418957
  -2.64000389  9.14384403  8.37998787
   5.27997557  0.00001422  1.11584590
   7.91997448  1.52421935  3.55047947
   5.27540470  3.05246295  5.93179537
   0.00136609  9.14405512  8.38763821
   3.95997540  2.28632132  1.11584590
   6.59997431  3.81052657  3.55047947
   6.59747975  0.76504783  5.95533432
   3.96558339  2.28436425  8.31601493
   6.59997527  2.28632132  1.11584590
   3.95997420  3.81052657  3.55047947
   9.24191685  0.76338072  5.94235177
   6.60250631  2.28678354  8.38918707
   7.91997543  0.00001422  1.11584590
   5.27997414  1.52421935  3.55047947
   7.92335362  3.05062567  5.94066337
   7.91918171  0.00182905  8.38244310
   7.91997567  4.57262842  1.11584590
  -0.00002559  6.09683366  3.55047947
  -2.64045500  7.62863718  5.93445489
  -2.64057589  4.57414235  8.36972002
   6.59997574  6.85893527  1.11584590
  -1.32002553  8.38314100  3.55047947
  -1.31291305  5.33210333  5.93243843
   6.59825549  6.86124904  8.31310490
  -1.32002457  6.85893527  1.11584590
  -3.96002563  8.38314100  3.55047947
   1.33091914  5.32624325  5.98514473
  -1.32068072  6.86032313  8.37316648
  -0.00002464  4.57262842  1.11584590
  -2.64002570  6.09683366  3.55047947
   0.00082523  7.61913973  5.94079613
  -0.00446292  4.57584011  8.37171325
   2.63997546  4.57262842  1.11584590
   5.27997462  6.09683366  3.55047947
   2.64155233  7.62106451  5.94320354
   2.64575354  4.58545001  8.66641997
   1.31997553  6.85893527  1.11584590
   3.95997444  8.38314100  3.55047947
   3.94012625  5.32169270  6.00000309
   1.32368364  6.86254519  8.35489218
   3.95997540  6.85893527  1.11584590
   1.31997410  8.38314100  3.55047947
   6.59366361  5.33270755  5.93428807
   3.95848682  6.85917008  8.37370762
   5.27997509  4.57262842  1.11584590
   2.63997404  6.09683366  3.55047947
   5.27532142  7.62494040  5.91885487
   5.28294212  4.57502442  8.38150423
   1.63206162  3.65522406 10.29292442
   2.34086023  3.19710808 10.30492050
 


--------------------------------------------------------------------------------------------------------


 k-point  1 :   0.0000 0.0000 0.0000  plane waves:   56579
 k-point  2 :   0.5000-0.0000 0.0000  plane waves:   56606
 k-point  3 :   0.0000 0.5000 0.0000  plane waves:   56606
 k-point  4 :   0.5000 0.5000 0.0000  plane waves:   56606

 maximum and minimum number of plane-waves per node :     56606    56579

 maximum number of plane-waves:     56606
 maximum index in each direction: 
   IXMAX=   20   IYMAX=   20   IZMAX=   38
   IXMIN=  -20   IYMIN=  -20   IZMIN=  -38


 serial   3D FFT for wavefunctions
 parallel 3D FFT for charge:
    minimum data exchange during FFTs selected (reduces bandwidth)


 total amount of memory used by VASP MPI-rank0   328524. kBytes
=======================================================================

   base      :      30000. kBytes
   nonlr-proj:      89546. kBytes
   fftplans  :      13334. kBytes
   grid      :     112154. kBytes
   one-center:       2052. kBytes
   wavefun   :      81438. kBytes
 
     INWAV:  cpu time    0.0000: real time    0.0000
 Broyden mixing: mesh for mixing (old mesh)
   NGX = 41   NGY = 41   NGZ = 77
  (NGX  =168   NGY  =168   NGZ  =320)
  gives a total of 129437 points

 initial charge density was supplied:
 charge density of overlapping atoms calculated
 number of electron     642.0000000 magnetization      66.0000000
 keeping initial charge density in first step


--------------------------------------------------------------------------------------------------------


 Maximum index for non-local projection operator         7913
 Maximum index for augmentation-charges         2177 (set IRDMAX)


--------------------------------------------------------------------------------------------------------


 First call to EWALD:  gamma=   0.142
 Maximum number of real-space cells 4x 4x 2
 Maximum number of reciprocal cells 2x 2x 4

    FEWALD:  cpu time    0.0048: real time    0.0048


--------------------------------------- Iteration      1(   1)  ---------------------------------------


    POTLOK:  cpu time    0.5517: real time    0.5567
    SETDIJ:  cpu time    0.0442: real time    0.0447
     EDDAV:  cpu time   48.1676: real time   48.3003
 BZINTS: Fermi energy: 14.505647;642.000000 electrons
         Band energy:4725.272577;  BLOECHL correction: -0.020072
       DOS:  cpu time    0.0177: real time    0.0179
    --------------------------------------------
      LOOP:  cpu time   48.7813: real time   48.9197

 eigenvalue-minimisations  :  7040
 total energy-change (2. order) : 0.4381248E+04  (-0.3126424E+05)
 number of electron     642.0000000 magnetization      66.0000000
 augmentation part      642.0000000 magnetization      66.0000000

 Free energy of the ion-electron system (eV)
  ---------------------------------------------------
  alpha Z        PSCENC =      2023.78361127
  Ewald energy   TEWEN  =    124725.70623218
  -Hartree energ DENC   =   -175839.36369444
  -exchange      EXHF   =         0.00000000
  -V(xc)+E(xc)   XCENC  =       247.63565145
  PAW double counting   =     44550.55032729   -42740.70693553
  entropy T*S    EENTRO =         0.00000000
  eigenvalues    EBANDS =      4725.27257665
  atomic energy  EATOM  =     46688.37031544
  Solvation  Ediel_sol  =         0.00000000
  ---------------------------------------------------
  free energy    TOTEN  =      4381.24808431 eV

  energy without entropy =     4381.24808431  energy(sigma->0) =     4381.24808431


--------------------------------------------------------------------------------------------------------




--------------------------------------- Iteration      1(   2)  ---------------------------------------


     EDDAV:  cpu time   51.1846: real time   51.3200
 BZINTS: Fermi energy:  4.316609;642.000000 electrons
         Band energy: 175.265418;  BLOECHL correction: -0.101244
       DOS:  cpu time    0.0174: real time    0.0174
    --------------------------------------------
      LOOP:  cpu time   51.2020: real time   51.3374

 eigenvalue-minimisations  :  7680
 total energy-change (2. order) :-0.4550007E+04  (-0.4169086E+04)
 number of electron     642.0000000 magnetization      66.0000000
 augmentation part      642.0000000 magnetization      66.0000000

 Free energy of the ion-electron system (eV)
  ---------------------------------------------------
  alpha Z        PSCENC =      2023.78361127
  Ewald energy   TEWEN  =    124725.70623218
  -Hartree energ DENC   =   -175839.36369444
  -exchange      EXHF   =         0.00000000
  -V(xc)+E(xc)   XCENC  =       247.63565145
  PAW double counting   =     44550.55032729   -42740.70693553
  entropy T*S    EENTRO =         0.00000000
  eigenvalues    EBANDS =       175.26541816
  atomic energy  EATOM  =     46688.37031544
  Solvation  Ediel_sol  =         0.00000000
  ---------------------------------------------------
  free energy    TOTEN  =      -168.75907418 eV

  energy without entropy =     -168.75907418  energy(sigma->0) =     -168.75907418


--------------------------------------------------------------------------------------------------------




--------------------------------------- Iteration      1(   3)  ---------------------------------------


     EDDAV:  cpu time   53.9768: real time   54.1174
 BZINTS: Fermi energy:  3.774931;642.000000 electrons
         Band energy: -39.982540;  BLOECHL correction: -0.092153
       DOS:  cpu time    0.0220: real time    0.0220
    --------------------------------------------
      LOOP:  cpu time   53.9988: real time   54.1394

 eigenvalue-minimisations  :  8080
 total energy-change (2. order) :-0.2152480E+03  (-0.2039384E+03)
 number of electron     642.0000000 magnetization      66.0000000
 augmentation part      642.0000000 magnetization      66.0000000

 Free energy of the ion-electron system (eV)
  ---------------------------------------------------
  alpha Z        PSCENC =      2023.78361127
  Ewald energy   TEWEN  =    124725.70623218
  -Hartree energ DENC   =   -175839.36369444
  -exchange      EXHF   =         0.00000000
  -V(xc)+E(xc)   XCENC  =       247.63565145
  PAW double counting   =     44550.55032729   -42740.70693553
  entropy T*S    EENTRO =         0.00000000
  eigenvalues    EBANDS =       -39.98254010
  atomic energy  EATOM  =     46688.37031544
  Solvation  Ediel_sol  =         0.00000000
  ---------------------------------------------------
  free energy    TOTEN  =      -384.00703244 eV

  energy without entropy =     -384.00703244  energy(sigma->0) =     -384.00703244


--------------------------------------------------------------------------------------------------------




--------------------------------------- Iteration      1(   4)  ---------------------------------------


     EDDAV:  cpu time   55.5095: real time   55.6532
 BZINTS: Fermi energy:  3.755644;642.000000 electrons
         Band energy: -44.780771;  BLOECHL correction: -0.109918
       DOS:  cpu time    0.0196: real time    0.0197
    --------------------------------------------
      LOOP:  cpu time   55.5292: real time   55.6728

 eigenvalue-minimisations  :  8400
 total energy-change (2. order) :-0.4798231E+01  (-0.4759655E+01)
 number of electron     642.0000000 magnetization      66.0000000
 augmentation part      642.0000000 magnetization      66.0000000

 Free energy of the ion-electron system (eV)
  ---------------------------------------------------
  alpha Z        PSCENC =      2023.78361127
  Ewald energy   TEWEN  =    124725.70623218
  -Hartree energ DENC   =   -175839.36369444
  -exchange      EXHF   =         0.00000000
  -V(xc)+E(xc)   XCENC  =       247.63565145
  PAW double counting   =     44550.55032729   -42740.70693553
  entropy T*S    EENTRO =         0.00000000
  eigenvalues    EBANDS =       -44.78077147
  atomic energy  EATOM  =     46688.37031544
  Solvation  Ediel_sol  =         0.00000000
  ---------------------------------------------------
  free energy    TOTEN  =      -388.80526381 eV

  energy without entropy =     -388.80526381  energy(sigma->0) =     -388.80526381


--------------------------------------------------------------------------------------------------------




--------------------------------------- Iteration      1(   5)  ---------------------------------------


     EDDAV:  cpu time   53.8074: real time   53.9431
 BZINTS: Fermi energy:  3.755034;642.000000 electrons
         Band energy: -44.917323;  BLOECHL correction: -0.110241
       DOS:  cpu time    0.0197: real time    0.0198
    CHARGE:  cpu time    2.5341: real time    2.5405
    MIXING:  cpu time    0.0115: real time    0.0127
    --------------------------------------------
      LOOP:  cpu time   56.3727: real time   56.5161

 eigenvalue-minimisations  :  8080
 total energy-change (2. order) :-0.1365518E+00  (-0.1364661E+00)
 number of electron     642.0000108 magnetization      59.5992379
 augmentation part      185.8034615 magnetization      47.7975386

 Broyden mixing:
  rms(total) = 0.10508E+02    rms(broyden)= 0.10508E+02
  rms(prec ) = 0.10610E+02
  weight for this iteration     100.00

 Free energy of the ion-electron system (eV)
  ---------------------------------------------------
  alpha Z        PSCENC =      2023.78361127
  Ewald energy   TEWEN  =    124725.70623218
  -Hartree energ DENC   =   -175839.36369444
  -exchange      EXHF   =         0.00000000
  -V(xc)+E(xc)   XCENC  =       247.63565145
  PAW double counting   =     44550.55032729   -42740.70693553
  entropy T*S    EENTRO =         0.00000000
  eigenvalues    EBANDS =       -44.91732324
  atomic energy  EATOM  =     46688.37031544
  Solvation  Ediel_sol  =         0.00000000
  ---------------------------------------------------
  free energy    TOTEN  =      -388.94181558 eV

  energy without entropy =     -388.94181558  energy(sigma->0) =     -388.94181558


--------------------------------------------------------------------------------------------------------




--------------------------------------- Iteration      1(   6)  ---------------------------------------


    POTLOK:  cpu time    0.4889: real time    0.4900
    SETDIJ:  cpu time    0.0443: real time    0.0444
    EDDIAG:  cpu time    7.3290: real time    7.3467
  RMM-DIIS:  cpu time   30.2654: real time   30.3374
    ORTHCH:  cpu time    1.0836: real time    1.0861
 BZINTS: Fermi energy:  2.730389;642.000000 electrons
         Band energy:-560.637557;  BLOECHL correction: -0.207848
       DOS:  cpu time    0.0204: real time    0.0205
    CHARGE:  cpu time    2.5143: real time    2.5203
    MIXING:  cpu time    0.0122: real time    0.0126
    --------------------------------------------
      LOOP:  cpu time   41.7580: real time   41.8580

 eigenvalue-minimisations  :  7071
 total energy-change (2. order) : 0.2822199E+02  (-0.6533147E+01)
 number of electron     642.0000114 magnetization      51.4654862
 augmentation part      195.3222861 magnetization      38.1779757

 Broyden mixing:
  rms(total) = 0.66757E+01    rms(broyden)= 0.66757E+01
  rms(prec ) = 0.69243E+01
  weight for this iteration     100.00

 eigenvalues of (default mixing * dielectric matrix)
  average eigenvalue GAMMA=   1.3235
  1.3235

 Free energy of the ion-electron system (eV)
  ---------------------------------------------------
  alpha Z        PSCENC =      2023.78361127
  Ewald energy   TEWEN  =    124725.70623218
  -Hartree energ DENC   =   -175179.86344385
  -exchange      EXHF   =         0.00000000
  -V(xc)+E(xc)   XCENC  =       239.17147775
  PAW double counting   =     50851.70344115   -49148.95389893
  entropy T*S    EENTRO =         0.00000000
  eigenvalues    EBANDS =      -560.63755701
  atomic energy  EATOM  =     46688.37031544
  Solvation  Ediel_sol  =         0.00000000
  ---------------------------------------------------
  free energy    TOTEN  =      -360.71982200 eV

  energy without entropy =     -360.71982200  energy(sigma->0) =     -360.71982200


--------------------------------------------------------------------------------------------------------




--------------------------------------- Iteration      1(   7)  ---------------------------------------


    POTLOK:  cpu time    0.4910: real time    0.4922
    SETDIJ:  cpu time    0.0448: real time    0.0449
    EDDIAG:  cpu time    7.5337: real time    7.5560
  RMM-DIIS:  cpu time   29.4861: real time   29.5703
    ORTHCH:  cpu time    1.0747: real time    1.0776
 BZINTS: Fermi energy:  4.449738;642.000000 electrons
         Band energy: -41.708778;  BLOECHL correction: -0.135603
       DOS:  cpu time    0.0198: real time    0.0199
    CHARGE:  cpu time    2.5045: real time    2.5113
    MIXING:  cpu time    0.0105: real time    0.0106
    --------------------------------------------
      LOOP:  cpu time   41.1651: real time   41.2828

 eigenvalue-minimisations  :  7051
 total energy-change (2. order) :-0.1046912E+03  (-0.1036811E+02)
 number of electron     642.0000120 magnetization      45.8889376
 augmentation part      192.9229608 magnetization      34.8380362

 Broyden mixing:
  rms(total) = 0.92057E+01    rms(broyden)= 0.92057E+01
  rms(prec ) = 0.11381E+02
  weight for this iteration     100.00

 eigenvalues of (default mixing * dielectric matrix)
  average eigenvalue GAMMA=   1.0702
  1.7992  0.3411

 Free energy of the ion-electron system (eV)
  ---------------------------------------------------
  alpha Z        PSCENC =      2023.78361127
  Ewald energy   TEWEN  =    124725.70623218
  -Hartree energ DENC   =   -175732.69484617
  -exchange      EXHF   =         0.00000000
  -V(xc)+E(xc)   XCENC  =       232.83239683
  PAW double counting   =     56771.36751634   -55133.06743867
  entropy T*S    EENTRO =         0.00000000
  eigenvalues    EBANDS =       -41.70877789
  atomic energy  EATOM  =     46688.37031544
  Solvation  Ediel_sol  =         0.00000000
  ---------------------------------------------------
  free energy    TOTEN  =      -465.41099067 eV

  energy without entropy =     -465.41099067  energy(sigma->0) =     -465.41099067


--------------------------------------------------------------------------------------------------------




--------------------------------------- Iteration      1(   8)  ---------------------------------------


    POTLOK:  cpu time    0.4859: real time    0.4875
    SETDIJ:  cpu time    0.0449: real time    0.0450
    EDDIAG:  cpu time    7.3733: real time    7.3942
  RMM-DIIS:  cpu time   29.8541: real time   29.9391
    ORTHCH:  cpu time    1.0795: real time    1.0825
 BZINTS: Fermi energy:  2.876521;642.000000 electrons
         Band energy:-427.549775;  BLOECHL correction: -0.189962
       DOS:  cpu time    0.0202: real time    0.0203
    CHARGE:  cpu time    2.5156: real time    2.5230
    MIXING:  cpu time    0.0126: real time    0.0126
    --------------------------------------------
      LOOP:  cpu time   41.3863: real time   41.5043

 eigenvalue-minimisations  :  7074
 total energy-change (2. order) : 0.1112931E+03  (-0.4711812E+01)
 number of electron     642.0000116 magnetization      42.6475237
 augmentation part      198.7086857 magnetization      32.0614865

 Broyden mixing:
  rms(total) = 0.25472E+01    rms(broyden)= 0.25471E+01
  rms(prec ) = 0.29910E+01
  weight for this iteration     100.00

 eigenvalues of (default mixing * dielectric matrix)
  average eigenvalue GAMMA=   1.0288
  2.1215  0.6431  0.3218

 Free energy of the ion-electron system (eV)
  ---------------------------------------------------
  alpha Z        PSCENC =      2023.78361127
  Ewald energy   TEWEN  =    124725.70623218
  -Hartree energ DENC   =   -175198.16714095
  -exchange      EXHF   =         0.00000000
  -V(xc)+E(xc)   XCENC  =       234.64732487
  PAW double counting   =     60022.79547455   -58423.70388340
  entropy T*S    EENTRO =         0.00000000
  eigenvalues    EBANDS =      -427.54977505
  atomic energy  EATOM  =     46688.37031544
  Solvation  Ediel_sol  =         0.00000000
  ---------------------------------------------------
  free energy    TOTEN  =      -354.11784110 eV

  energy without entropy =     -354.11784110  energy(sigma->0) =     -354.11784110


--------------------------------------------------------------------------------------------------------




--------------------------------------- Iteration      1(   9)  ---------------------------------------


    POTLOK:  cpu time    0.4898: real time    0.4910
    SETDIJ:  cpu time    0.0449: real time    0.0450
    EDDIAG:  cpu time    7.3149: real time    7.3361
  RMM-DIIS:  cpu time   29.8031: real time   29.8808
    ORTHCH:  cpu time    1.0869: real time    1.0895
 BZINTS: Fermi energy:  3.029369;642.000000 electrons
         Band energy:-446.797766;  BLOECHL correction: -0.200660
       DOS:  cpu time    0.0216: real time    0.0216
    CHARGE:  cpu time    2.5246: real time    2.5307
    MIXING:  cpu time    0.0155: real time    0.0155
    --------------------------------------------
      LOOP:  cpu time   41.3013: real time   41.4102

 eigenvalue-minimisations  :  7073
 total energy-change (2. order) :-0.1859328E+02  (-0.1827175E+01)
 number of electron     642.0000117 magnetization      40.5751877
 augmentation part      197.7828813 magnetization      32.9548184

 Broyden mixing:
  rms(total) = 0.46778E+01    rms(broyden)= 0.46778E+01
  rms(prec ) = 0.66210E+01
  weight for this iteration     100.00

 eigenvalues of (default mixing * dielectric matrix)
  average eigenvalue GAMMA=   0.8722
  2.2267  0.7384  0.3211  0.2026

 Free energy of the ion-electron system (eV)
  ---------------------------------------------------
  alpha Z        PSCENC =      2023.78361127
  Ewald energy   TEWEN  =    124725.70623218
  -Hartree energ DENC   =   -175196.22171522
  -exchange      EXHF   =         0.00000000
  -V(xc)+E(xc)   XCENC  =       233.58328150
  PAW double counting   =     60410.31949203   -58811.45456881
  entropy T*S    EENTRO =         0.00000000
  eigenvalues    EBANDS =      -446.79776606
  atomic energy  EATOM  =     46688.37031544
  Solvation  Ediel_sol  =         0.00000000
  ---------------------------------------------------
  free energy    TOTEN  =      -372.71111767 eV

  energy without entropy =     -372.71111767  energy(sigma->0) =     -372.71111767


--------------------------------------------------------------------------------------------------------




--------------------------------------- Iteration      1(  10)  ---------------------------------------


    POTLOK:  cpu time    0.4955: real time    0.4967
    SETDIJ:  cpu time    0.0448: real time    0.0449
    EDDIAG:  cpu time    7.3550: real time    7.3726
  RMM-DIIS:  cpu time   30.0575: real time   30.1288
    ORTHCH:  cpu time    1.0791: real time    1.0816
 BZINTS: Fermi energy:  2.976986;642.000000 electrons
         Band energy:-408.744327;  BLOECHL correction: -0.326899
       DOS:  cpu time    0.0211: real time    0.0212
    CHARGE:  cpu time    2.5233: real time    2.5293
    MIXING:  cpu time    0.0113: real time    0.0113
    --------------------------------------------
      LOOP:  cpu time   41.5876: real time   41.6864

 eigenvalue-minimisations  :  7077
 total energy-change (2. order) : 0.7588182E+01  (-0.5200104E+00)
 number of electron     642.0000117 magnetization      38.9554663
 augmentation part      197.6481748 magnetization      28.2131546

 Broyden mixing:
  rms(total) = 0.34620E+01    rms(broyden)= 0.34620E+01
  rms(prec ) = 0.51358E+01
  weight for this iteration     100.00

 eigenvalues of (default mixing * dielectric matrix)
  average eigenvalue GAMMA=   0.7508
  2.2749  0.7570  0.3065  0.3065  0.1089

 Free energy of the ion-electron system (eV)
  ---------------------------------------------------
  alpha Z        PSCENC =      2023.78361127
  Ewald energy   TEWEN  =    124725.70623218
  -Hartree energ DENC   =   -175225.29227763
  -exchange      EXHF   =         0.00000000
  -V(xc)+E(xc)   XCENC  =       233.31099652
  PAW double counting   =     60665.32220463   -59067.57969115
  entropy T*S    EENTRO =         0.00000000
  eigenvalues    EBANDS =      -408.74432653
  atomic energy  EATOM  =     46688.37031544
  Solvation  Ediel_sol  =         0.00000000
  ---------------------------------------------------
  free energy    TOTEN  =      -365.12293527 eV

  energy without entropy =     -365.12293527  energy(sigma->0) =     -365.12293527


--------------------------------------------------------------------------------------------------------




--------------------------------------- Iteration      1(  11)  ---------------------------------------


    POTLOK:  cpu time    0.4857: real time    0.4868
    SETDIJ:  cpu time    0.0444: real time    0.0445
    EDDIAG:  cpu time    7.3157: real time    7.3333
  RMM-DIIS:  cpu time   30.0219: real time   30.0931
    ORTHCH:  cpu time    1.0827: real time    1.0853
 BZINTS: Fermi energy:  2.937919;642.000000 electrons
         Band energy:-378.622674;  BLOECHL correction: -0.125743
       DOS:  cpu time    0.0204: real time    0.0205
    CHARGE:  cpu time    2.5034: real time    2.5093
    MIXING:  cpu time    0.0139: real time    0.0139
    --------------------------------------------
      LOOP:  cpu time   41.4880: real time   41.5867

 eigenvalue-minimisations  :  7076
 total energy-change (2. order) : 0.9054103E+01  (-0.2773442E+00)
 number of electron     642.0000114 magnetization      37.0317353
 augmentation part      197.6285234 magnetization      26.7969024

 Broyden mixing:
  rms(total) = 0.13600E+01    rms(broyden)= 0.13600E+01
  rms(prec ) = 0.15340E+01
  weight for this iteration     100.00

 eigenvalues of (default mixing * dielectric matrix)
  average eigenvalue GAMMA=   0.7247
  2.2377  0.6894  0.6894  0.3400  0.2889  0.1026

 Free energy of the ion-electron system (eV)
  ---------------------------------------------------
  alpha Z        PSCENC =      2023.78361127
  Ewald energy   TEWEN  =    124725.70623218
  -Hartree energ DENC   =   -175244.08538512
  -exchange      EXHF   =         0.00000000
  -V(xc)+E(xc)   XCENC  =       232.86487802
  PAW double counting   =     60878.50477511   -59282.59058506
  entropy T*S    EENTRO =         0.00000000
  eigenvalues    EBANDS =      -378.62267399
  atomic energy  EATOM  =     46688.37031544
  Solvation  Ediel_sol  =         0.00000000
  ---------------------------------------------------
  free energy    TOTEN  =      -356.06883215 eV

  energy without entropy =     -356.06883215  energy(sigma->0) =     -356.06883215


--------------------------------------------------------------------------------------------------------




--------------------------------------- Iteration      1(  12)  ---------------------------------------


    POTLOK:  cpu time    0.4889: real time    0.4900
    SETDIJ:  cpu time    0.0445: real time    0.0446
    EDDIAG:  cpu time    7.4834: real time    7.5013
  RMM-DIIS:  cpu time   30.1177: real time   30.1895
    ORTHCH:  cpu time    1.0865: real time    1.0891
 BZINTS: Fermi energy:  2.959430;642.000000 electrons
         Band energy:-372.737512;  BLOECHL correction: -0.122395
       DOS:  cpu time    0.0198: real time    0.0198
    CHARGE:  cpu time    2.5065: real time    2.5124
    MIXING:  cpu time    0.0143: real time    0.0143
    --------------------------------------------
      LOOP:  cpu time   41.7616: real time   41.8610

 eigenvalue-minimisations  :  7075
 total energy-change (2. order) :-0.1808551E+01  (-0.1806881E+00)
 number of electron     642.0000114 magnetization      34.9237362
 augmentation part      197.4771173 magnetization      25.0798382

 Broyden mixing:
  rms(total) = 0.12229E+01    rms(broyden)= 0.12229E+01
  rms(prec ) = 0.13358E+01
  weight for this iteration     100.00

 eigenvalues of (default mixing * dielectric matrix)
  average eigenvalue GAMMA=   0.7005
  2.2167  0.8292  0.8292  0.3722  0.2769  0.2769  0.1025

 Free energy of the ion-electron system (eV)
  ---------------------------------------------------
  alpha Z        PSCENC =      2023.78361127
  Ewald energy   TEWEN  =    124725.70623218
  -Hartree energ DENC   =   -175251.13518337
  -exchange      EXHF   =         0.00000000
  -V(xc)+E(xc)   XCENC  =       231.82526129
  PAW double counting   =     60794.61047187   -59198.30057961
  entropy T*S    EENTRO =         0.00000000
  eigenvalues    EBANDS =      -372.73751215
  atomic energy  EATOM  =     46688.37031544
  Solvation  Ediel_sol  =         0.00000000
  ---------------------------------------------------
  free energy    TOTEN  =      -357.87738308 eV

  energy without entropy =     -357.87738308  energy(sigma->0) =     -357.87738308


--------------------------------------------------------------------------------------------------------




--------------------------------------- Iteration      1(  13)  ---------------------------------------


    POTLOK:  cpu time    0.4838: real time    0.4850
    SETDIJ:  cpu time    0.0443: real time    0.0444
    EDDIAG:  cpu time    7.3728: real time    7.3905
  RMM-DIIS:  cpu time   30.1894: real time   30.2619
    ORTHCH:  cpu time    1.0815: real time    1.0841
 BZINTS: Fermi energy:  2.976378;642.000000 electrons
         Band energy:-363.933177;  BLOECHL correction: -0.127188
       DOS:  cpu time    0.0207: real time    0.0207
    CHARGE:  cpu time    2.5175: real time    2.5235
    MIXING:  cpu time    0.0130: real time    0.0131
    --------------------------------------------
      LOOP:  cpu time   41.7231: real time   41.8233

 eigenvalue-minimisations  :  7077
 total energy-change (2. order) :-0.1352233E+01  (-0.7044082E-01)
 number of electron     642.0000114 magnetization      32.0026619
 augmentation part      197.3906744 magnetization      22.5239953

 Broyden mixing:
  rms(total) = 0.87668E+00    rms(broyden)= 0.87668E+00
  rms(prec ) = 0.92858E+00
  weight for this iteration     100.00

 eigenvalues of (default mixing * dielectric matrix)
  average eigenvalue GAMMA=   0.7046
  2.2290  1.0465  0.6760  0.6760  0.3345  0.3345  0.2379  0.1026

 Free energy of the ion-electron system (eV)
  ---------------------------------------------------
  alpha Z        PSCENC =      2023.78361127
  Ewald energy   TEWEN  =    124725.70623218
  -Hartree energ DENC   =   -175260.33090536
  -exchange      EXHF   =         0.00000000
  -V(xc)+E(xc)   XCENC  =       230.79006967
  PAW double counting   =     60753.21709384   -59156.83285580
  entropy T*S    EENTRO =         0.00000000
  eigenvalues    EBANDS =      -363.93317717
  atomic energy  EATOM  =     46688.37031544
  Solvation  Ediel_sol  =         0.00000000
  ---------------------------------------------------
  free energy    TOTEN  =      -359.22961593 eV

  energy without entropy =     -359.22961593  energy(sigma->0) =     -359.22961593


--------------------------------------------------------------------------------------------------------




--------------------------------------- Iteration      1(  14)  ---------------------------------------


    POTLOK:  cpu time    0.4897: real time    0.4908
    SETDIJ:  cpu time    0.0444: real time    0.0445
    EDDIAG:  cpu time    7.3164: real time    7.3338
  RMM-DIIS:  cpu time   30.1978: real time   30.2725
    ORTHCH:  cpu time    1.0666: real time    1.0691
 BZINTS: Fermi energy:  2.990406;642.000000 electrons
         Band energy:-357.637585;  BLOECHL correction: -0.143531
       DOS:  cpu time    0.0180: real time    0.0180
    CHARGE:  cpu time    2.5179: real time    2.5241
    MIXING:  cpu time    0.0147: real time    0.0147
    --------------------------------------------
      LOOP:  cpu time   41.6655: real time   41.7676

 eigenvalue-minimisations  :  7072
 total energy-change (2. order) :-0.2384672E+01  (-0.7786952E-01)
 number of electron     642.0000114 magnetization      27.4386395
 augmentation part      197.3002862 magnetization      18.1176839

 Broyden mixing:
  rms(total) = 0.87290E+00    rms(broyden)= 0.87290E+00
  rms(prec ) = 0.97475E+00
  weight for this iteration     100.00

 eigenvalues of (default mixing * dielectric matrix)
  average eigenvalue GAMMA=   0.7294
  2.2126  1.5115  0.7563  0.7563  0.3586  0.3586  0.1026  0.2784  0.2299

 Free energy of the ion-electron system (eV)
  ---------------------------------------------------
  alpha Z        PSCENC =      2023.78361127
  Ewald energy   TEWEN  =    124725.70623218
  -Hartree energ DENC   =   -175267.30466287
  -exchange      EXHF   =         0.00000000
  -V(xc)+E(xc)   XCENC  =       229.45113917
  PAW double counting   =     60758.87980564   -59162.86314359
  entropy T*S    EENTRO =         0.00000000
  eigenvalues    EBANDS =      -357.63758539
  atomic energy  EATOM  =     46688.37031544
  Solvation  Ediel_sol  =         0.00000000
  ---------------------------------------------------
  free energy    TOTEN  =      -361.61428815 eV

  energy without entropy =     -361.61428815  energy(sigma->0) =     -361.61428815


--------------------------------------------------------------------------------------------------------




--------------------------------------- Iteration      1(  15)  ---------------------------------------


    POTLOK:  cpu time    0.5132: real time    0.5145
    SETDIJ:  cpu time    0.0637: real time    0.0639
    EDDIAG:  cpu time    7.5486: real time    7.5668
  RMM-DIIS:  cpu time   30.2148: real time   30.2946
    ORTHCH:  cpu time    1.0797: real time    1.0828
 BZINTS: Fermi energy:  3.003830;642.000000 electrons
         Band energy:-348.157546;  BLOECHL correction: -0.126909
       DOS:  cpu time    0.0203: real time    0.0203
    CHARGE:  cpu time    2.5015: real time    2.5083
    MIXING:  cpu time    0.0152: real time    0.0152
    --------------------------------------------
      LOOP:  cpu time   41.9570: real time   42.0664

 eigenvalue-minimisations  :  7066
 total energy-change (2. order) :-0.3447040E+01  (-0.1356631E+00)
 number of electron     642.0000114 magnetization      23.0506750
 augmentation part      197.1576545 magnetization      14.6555422

 Broyden mixing:
  rms(total) = 0.59342E+00    rms(broyden)= 0.59342E+00
  rms(prec ) = 0.65027E+00
  weight for this iteration     100.00

 eigenvalues of (default mixing * dielectric matrix)
  average eigenvalue GAMMA=   0.7965
  2.2724  2.2724  0.8853  0.7208  0.5337  0.1026  0.3800  0.2929  0.2929  0.2123

 Free energy of the ion-electron system (eV)
  ---------------------------------------------------
  alpha Z        PSCENC =      2023.78361127
  Ewald energy   TEWEN  =    124725.70623218
  -Hartree energ DENC   =   -175277.78691409
  -exchange      EXHF   =         0.00000000
  -V(xc)+E(xc)   XCENC  =       227.17572134
  PAW double counting   =     60728.65497053   -59132.80771892
  entropy T*S    EENTRO =         0.00000000
  eigenvalues    EBANDS =      -348.15754597
  atomic energy  EATOM  =     46688.37031544
  Solvation  Ediel_sol  =         0.00000000
  ---------------------------------------------------
  free energy    TOTEN  =      -365.06132822 eV

  energy without entropy =     -365.06132822  energy(sigma->0) =     -365.06132822


--------------------------------------------------------------------------------------------------------




--------------------------------------- Iteration      1(  16)  ---------------------------------------


    POTLOK:  cpu time    0.4867: real time    0.4882
    SETDIJ:  cpu time    0.0446: real time    0.0447
    EDDIAG:  cpu time    7.3385: real time    7.3595
  RMM-DIIS:  cpu time   30.1442: real time   30.2299
    ORTHCH:  cpu time    1.0823: real time    1.0854
 BZINTS: Fermi energy:  2.998165;642.000000 electrons
         Band energy:-348.140377;  BLOECHL correction: -0.146477
       DOS:  cpu time    0.0215: real time    0.0216
    CHARGE:  cpu time    2.5143: real time    2.5218
    MIXING:  cpu time    0.0158: real time    0.0158
    --------------------------------------------
      LOOP:  cpu time   41.6480: real time   41.7670

 eigenvalue-minimisations  :  7068
 total energy-change (2. order) :-0.3286104E+01  (-0.1462455E+00)
 number of electron     642.0000115 magnetization      19.7646615
 augmentation part      197.1152324 magnetization      12.2317352

 Broyden mixing:
  rms(total) = 0.54279E+00    rms(broyden)= 0.54279E+00
  rms(prec ) = 0.60505E+00
  weight for this iteration     100.00

 eigenvalues of (default mixing * dielectric matrix)
  average eigenvalue GAMMA=   0.8022
  2.4809  2.4809  0.8563  0.8563  0.4804  0.4804  0.1026  0.3068  0.3068  0.2623
  0.2110

 Free energy of the ion-electron system (eV)
  ---------------------------------------------------
  alpha Z        PSCENC =      2023.78361127
  Ewald energy   TEWEN  =    124725.70623218
  -Hartree energ DENC   =   -175279.35960838
  -exchange      EXHF   =         0.00000000
  -V(xc)+E(xc)   XCENC  =       225.02072735
  PAW double counting   =     60622.37079697   -59026.09912937
  entropy T*S    EENTRO =         0.00000000
  eigenvalues    EBANDS =      -348.14037721
  atomic energy  EATOM  =     46688.37031544
  Solvation  Ediel_sol  =         0.00000000
  ---------------------------------------------------
  free energy    TOTEN  =      -368.34743175 eV

  energy without entropy =     -368.34743175  energy(sigma->0) =     -368.34743175


--------------------------------------------------------------------------------------------------------




--------------------------------------- Iteration      1(  17)  ---------------------------------------


    POTLOK:  cpu time    0.4845: real time    0.4856
    SETDIJ:  cpu time    0.0447: real time    0.0448
    EDDIAG:  cpu time    7.5187: real time    7.5418
  RMM-DIIS:  cpu time   30.3179: real time   30.3902
    ORTHCH:  cpu time    1.0783: real time    1.0809
 BZINTS: Fermi energy:  2.981472;642.000000 electrons
         Band energy:-356.797813;  BLOECHL correction: -0.109868
       DOS:  cpu time    0.0204: real time    0.0204
    CHARGE:  cpu time    2.5083: real time    2.5143
    MIXING:  cpu time    0.0164: real time    0.0165
    --------------------------------------------
      LOOP:  cpu time   41.9892: real time   42.0945

 eigenvalue-minimisations  :  7066
 total energy-change (2. order) :-0.1870729E+01  (-0.8828156E-01)
 number of electron     642.0000114 magnetization      16.7867649
 augmentation part      197.1589363 magnetization      10.0803719

 Broyden mixing:
  rms(total) = 0.36557E+00    rms(broyden)= 0.36557E+00
  rms(prec ) = 0.38948E+00
  weight for this iteration     100.00

 eigenvalues of (default mixing * dielectric matrix)
  average eigenvalue GAMMA=   0.8760
  3.4010  2.4303  1.0024  1.0024  0.5856  0.5856  0.1026  0.3229  0.3229  0.3124
  0.2378  0.2068

 Free energy of the ion-electron system (eV)
  ---------------------------------------------------
  alpha Z        PSCENC =      2023.78361127
  Ewald energy   TEWEN  =    124725.70623218
  -Hartree energ DENC   =   -175271.66184576
  -exchange      EXHF   =         0.00000000
  -V(xc)+E(xc)   XCENC  =       223.59726718
  PAW double counting   =     60533.25307498   -58936.46900325
  entropy T*S    EENTRO =         0.00000000
  eigenvalues    EBANDS =      -356.79781315
  atomic energy  EATOM  =     46688.37031544
  Solvation  Ediel_sol  =         0.00000000
  ---------------------------------------------------
  free energy    TOTEN  =      -370.21816112 eV

  energy without entropy =     -370.21816112  energy(sigma->0) =     -370.21816112


--------------------------------------------------------------------------------------------------------




--------------------------------------- Iteration      1(  18)  ---------------------------------------


    POTLOK:  cpu time    0.4856: real time    0.4867
    SETDIJ:  cpu time    0.0446: real time    0.0447
    EDDIAG:  cpu time    7.3189: real time    7.3368
  RMM-DIIS:  cpu time   30.2442: real time   30.3160
    ORTHCH:  cpu time    1.0877: real time    1.0903
 BZINTS: Fermi energy:  2.958888;642.000000 electrons
         Band energy:-365.630169;  BLOECHL correction: -0.118744
       DOS:  cpu time    0.0213: real time    0.0214
    CHARGE:  cpu time    2.5011: real time    2.5071
    MIXING:  cpu time    0.0170: real time    0.0170
    --------------------------------------------
      LOOP:  cpu time   41.7205: real time   41.8200

 eigenvalue-minimisations  :  7064
 total energy-change (2. order) :-0.1216216E+01  (-0.5606081E-01)
 number of electron     642.0000115 magnetization      14.3319803
 augmentation part      197.1694558 magnetization       8.0900280

 Broyden mixing:
  rms(total) = 0.33224E+00    rms(broyden)= 0.33224E+00
  rms(prec ) = 0.37173E+00
  weight for this iteration     100.00

 eigenvalues of (default mixing * dielectric matrix)
  average eigenvalue GAMMA=   0.9380
  4.5088  2.3235  1.1372  1.1372  0.6180  0.6180  0.1026  0.3622  0.3622  0.3197
  0.2733  0.2281  0.2034

 Free energy of the ion-electron system (eV)
  ---------------------------------------------------
  alpha Z        PSCENC =      2023.78361127
  Ewald energy   TEWEN  =    124725.70623218
  -Hartree energ DENC   =   -175263.28702423
  -exchange      EXHF   =         0.00000000
  -V(xc)+E(xc)   XCENC  =       222.65530542
  PAW double counting   =     60500.59749826   -58903.63014628
  entropy T*S    EENTRO =         0.00000000
  eigenvalues    EBANDS =      -365.63016907
  atomic energy  EATOM  =     46688.37031544
  Solvation  Ediel_sol  =         0.00000000
  ---------------------------------------------------
  free energy    TOTEN  =      -371.43437702 eV

  energy without entropy =     -371.43437702  energy(sigma->0) =     -371.43437702


--------------------------------------------------------------------------------------------------------




--------------------------------------- Iteration      1(  19)  ---------------------------------------


    POTLOK:  cpu time    0.4963: real time    0.4975
    SETDIJ:  cpu time    0.0452: real time    0.0453
    EDDIAG:  cpu time    7.4546: real time    7.4723
  RMM-DIIS:  cpu time   30.9855: real time   31.0747
    ORTHCH:  cpu time    1.1463: real time    1.1495
 BZINTS: Fermi energy:  2.937318;642.000000 electrons
         Band energy:-376.815144;  BLOECHL correction: -0.113538
       DOS:  cpu time    0.0217: real time    0.0218
    CHARGE:  cpu time    2.5854: real time    2.5929
    MIXING:  cpu time    0.0184: real time    0.0184
    --------------------------------------------
      LOOP:  cpu time   42.7535: real time   42.8723

 eigenvalue-minimisations  :  7066
 total energy-change (2. order) :-0.5456462E+00  (-0.2962132E-01)
 number of electron     642.0000115 magnetization      12.5468564
 augmentation part      197.1844032 magnetization       6.6510207

 Broyden mixing:
  rms(total) = 0.25797E+00    rms(broyden)= 0.25797E+00
  rms(prec ) = 0.29881E+00
  weight for this iteration     100.00

 eigenvalues of (default mixing * dielectric matrix)
  average eigenvalue GAMMA=   1.0135
  5.7430  2.2573  1.2652  1.2652  0.7354  0.5816  0.5816  0.1026  0.3392  0.3392
  0.2794  0.2794  0.2187  0.2015

 Free energy of the ion-electron system (eV)
  ---------------------------------------------------
  alpha Z        PSCENC =      2023.78361127
  Ewald energy   TEWEN  =    124725.70623218
  -Hartree energ DENC   =   -175252.01365796
  -exchange      EXHF   =         0.00000000
  -V(xc)+E(xc)   XCENC  =       222.10351884
  PAW double counting   =     60512.61646693   -58915.73136568
  entropy T*S    EENTRO =         0.00000000
  eigenvalues    EBANDS =      -376.81514424
  atomic energy  EATOM  =     46688.37031544
  Solvation  Ediel_sol  =         0.00000000
  ---------------------------------------------------
  free energy    TOTEN  =      -371.98002323 eV

  energy without entropy =     -371.98002323  energy(sigma->0) =     -371.98002323


[...]
 
   4 f/i=   13.225859 THz    83.100521 2PiTHz  441.167143 cm-1    54.697774 meV
             X         Y         Z           dx          dy          dz
     10.559976  0.000014  1.115846            0           0           0  
      2.639975  1.524219  3.550479            0           0           0  
      0.014279  3.044897  5.987626            0           0           0  
      0.000783  0.005448  8.368438            0           0           0  
      9.239976  2.286321  1.115846            0           0           0  
      1.319975  3.810527  3.550479            0           0           0  
      1.322837  0.787844  5.999130            0           0           0  
      9.240265  2.283168  8.355570            0           0           0  
      1.319975  2.286321  1.115846            0           0           0  
     -1.320026  3.810527  3.550479            0           0           0  
      3.955158  0.765650  5.931496            0           0           0  
      1.314606  2.276037  8.692545            0           0           0  
      2.639975  0.000014  1.115846            0           0           0  
     -0.000025  1.524219  3.550479            0           0           0  
      2.624390  3.058158  6.004190            0           0           0  
     -2.640004  9.143844  8.379988            0           0           0  
      5.279976  0.000014  1.115846            0           0           0  
      7.919974  1.524219  3.550479            0           0           0  
      5.275405  3.052463  5.931795            0           0           0  
      0.001366  9.144055  8.387638            0           0           0  
      3.959975  2.286321  1.115846            0           0           0  
      6.599974  3.810527  3.550479            0           0           0  
      6.597480  0.765048  5.955334            0           0           0  
      3.965583  2.284364  8.316015            0           0           0  
      6.599975  2.286321  1.115846            0           0           0  
      3.959974  3.810527  3.550479            0           0           0  
      9.241917  0.763381  5.942352            0           0           0  
      6.602506  2.286784  8.389187            0           0           0  
      7.919975  0.000014  1.115846            0           0           0  
      5.279974  1.524219  3.550479            0           0           0  
      7.923354  3.050626  5.940663            0           0           0  
      7.919182  0.001829  8.382443            0           0           0  
      7.919976  4.572628  1.115846            0           0           0  
     -0.000026  6.096834  3.550479            0           0           0  
     -2.640455  7.628637  5.934455            0           0           0  
     -2.640576  4.574142  8.369720            0           0           0  
      6.599976  6.858935  1.115846            0           0           0  
     -1.320026  8.383141  3.550479            0           0           0  
     -1.312913  5.332103  5.932438            0           0           0  
      6.598255  6.861249  8.313105            0           0           0  
     -1.320025  6.858935  1.115846            0           0           0  
     -3.960026  8.383141  3.550479            0           0           0  
      1.330919  5.326243  5.985145            0           0           0  
     -1.320681  6.860323  8.373166            0           0           0  
     -0.000025  4.572628  1.115846            0           0           0  
     -2.640026  6.096834  3.550479            0           0           0  
      0.000825  7.619140  5.940796            0           0           0  
     -0.004463  4.575840  8.371713            0           0           0  
      2.639975  4.572628  1.115846            0           0           0  
      5.279975  6.096834  3.550479            0           0           0  
      2.641552  7.621065  5.943204            0           0           0  
      2.645754  4.585450  8.666420            0           0           0  
      1.319976  6.858935  1.115846            0           0           0  
      3.959974  8.383141  3.550479            0           0           0  
      3.940126  5.321693  6.000003            0           0           0  
      1.323684  6.862545  8.354892            0           0           0  
      3.959975  6.858935  1.115846            0           0           0  
      1.319974  8.383141  3.550479            0           0           0  
      6.593664  5.332708  5.934288            0           0           0  
      3.958487  6.859170  8.373708            0           0           0  
      5.279975  4.572628  1.115846            0           0           0  
      2.639974  6.096834  3.550479            0           0           0  
      5.275321  7.624940  5.918855            0           0           0  
      5.282942  4.575024  8.381504            0           0           0  
      1.632062  3.655224 10.292924    -0.359887   -0.606300    0.028866  
      2.340860  3.197108 10.304921    -0.370081   -0.600356    0.068276  
 
   5 f/i=   17.738387 THz   111.453576 2PiTHz  591.688899 cm-1    73.360100 meV
             X         Y         Z           dx          dy          dz
     10.559976  0.000014  1.115846            0           0           0  
      2.639975  1.524219  3.550479            0           0           0  
      0.014279  3.044897  5.987626            0           0           0  
      0.000783  0.005448  8.368438            0           0           0  
      9.239976  2.286321  1.115846            0           0           0  
      1.319975  3.810527  3.550479            0           0           0  
      1.322837  0.787844  5.999130            0           0           0  
      9.240265  2.283168  8.355570            0           0           0  
      1.319975  2.286321  1.115846            0           0           0  
     -1.320026  3.810527  3.550479            0           0           0  
      3.955158  0.765650  5.931496            0           0           0  
      1.314606  2.276037  8.692545            0           0           0  
      2.639975  0.000014  1.115846            0           0           0  
     -0.000025  1.524219  3.550479            0           0           0  
      2.624390  3.058158  6.004190            0           0           0  
     -2.640004  9.143844  8.379988            0           0           0  
      5.279976  0.000014  1.115846            0           0           0  
      7.919974  1.524219  3.550479            0           0           0  
      5.275405  3.052463  5.931795            0           0           0  
      0.001366  9.144055  8.387638            0           0           0  
      3.959975  2.286321  1.115846            0           0           0  
      6.599974  3.810527  3.550479            0           0           0  
      6.597480  0.765048  5.955334            0           0           0  
      3.965583  2.284364  8.316015            0           0           0  
      6.599975  2.286321  1.115846            0           0           0  
      3.959974  3.810527  3.550479            0           0           0  
      9.241917  0.763381  5.942352            0           0           0  
      6.602506  2.286784  8.389187            0           0           0  
      7.919975  0.000014  1.115846            0           0           0  
      5.279974  1.524219  3.550479            0           0           0  
      7.923354  3.050626  5.940663            0           0           0  
      7.919182  0.001829  8.382443            0           0           0  
      7.919976  4.572628  1.115846            0           0           0  
     -0.000026  6.096834  3.550479            0           0           0  
     -2.640455  7.628637  5.934455            0           0           0  
     -2.640576  4.574142  8.369720            0           0           0  
      6.599976  6.858935  1.115846            0           0           0  
     -1.320026  8.383141  3.550479            0           0           0  
     -1.312913  5.332103  5.932438            0           0           0  
      6.598255  6.861249  8.313105            0           0           0  
     -1.320025  6.858935  1.115846            0           0           0  
     -3.960026  8.383141  3.550479            0           0           0  
      1.330919  5.326243  5.985145            0           0           0  
     -1.320681  6.860323  8.373166            0           0           0  
     -0.000025  4.572628  1.115846            0           0           0  
     -2.640026  6.096834  3.550479            0           0           0  
      0.000825  7.619140  5.940796            0           0           0  
     -0.004463  4.575840  8.371713            0           0           0  
      2.639975  4.572628  1.115846            0           0           0  
      5.279975  6.096834  3.550479            0           0           0  
      2.641552  7.621065  5.943204            0           0           0  
      2.645754  4.585450  8.666420            0           0           0  
      1.319976  6.858935  1.115846            0           0           0  
      3.959974  8.383141  3.550479            0           0           0  
      3.940126  5.321693  6.000003            0           0           0  
      1.323684  6.862545  8.354892            0           0           0  
      3.959975  6.858935  1.115846            0           0           0  
      1.319974  8.383141  3.550479            0           0           0  
      6.593664  5.332708  5.934288            0           0           0  
      3.958487  6.859170  8.373708            0           0           0  
      5.279975  4.572628  1.115846            0           0           0  
      2.639974  6.096834  3.550479            0           0           0  
      5.275321  7.624940  5.918855            0           0           0  
      5.282942  4.575024  8.381504            0           0           0  
      1.632062  3.655224 10.292924     0.217919    0.079875    0.679098  
      2.340860  3.197108 10.304921    -0.100473   -0.038465    0.688028  
 
   6 f/i=   19.223872 THz   120.787152 2PiTHz  641.239338 cm-1    79.503574 meV
             X         Y         Z           dx          dy          dz
     10.559976  0.000014  1.115846            0           0           0  
      2.639975  1.524219  3.550479            0           0           0  
      0.014279  3.044897  5.987626            0           0           0  
      0.000783  0.005448  8.368438            0           0           0  
      9.239976  2.286321  1.115846            0           0           0  
      1.319975  3.810527  3.550479            0           0           0  
      1.322837  0.787844  5.999130            0           0           0  
      9.240265  2.283168  8.355570            0           0           0  
      1.319975  2.286321  1.115846            0           0           0  
     -1.320026  3.810527  3.550479            0           0           0  
      3.955158  0.765650  5.931496            0           0           0  
      1.314606  2.276037  8.692545            0           0           0  
      2.639975  0.000014  1.115846            0           0           0  
     -0.000025  1.524219  3.550479            0           0           0  
      2.624390  3.058158  6.004190            0           0           0  
     -2.640004  9.143844  8.379988            0           0           0  
      5.279976  0.000014  1.115846            0           0           0  
      7.919974  1.524219  3.550479            0           0           0  
      5.275405  3.052463  5.931795            0           0           0  
      0.001366  9.144055  8.387638            0           0           0  
      3.959975  2.286321  1.115846            0           0           0  
      6.599974  3.810527  3.550479            0           0           0  
      6.597480  0.765048  5.955334            0           0           0  
      3.965583  2.284364  8.316015            0           0           0  
      6.599975  2.286321  1.115846            0           0           0  
      3.959974  3.810527  3.550479            0           0           0  
      9.241917  0.763381  5.942352            0           0           0  
      6.602506  2.286784  8.389187            0           0           0  
      7.919975  0.000014  1.115846            0           0           0  
      5.279974  1.524219  3.550479            0           0           0  
      7.923354  3.050626  5.940663            0           0           0  
      7.919182  0.001829  8.382443            0           0           0  
      7.919976  4.572628  1.115846            0           0           0  
     -0.000026  6.096834  3.550479            0           0           0  
     -2.640455  7.628637  5.934455            0           0           0  
     -2.640576  4.574142  8.369720            0           0           0  
      6.599976  6.858935  1.115846            0           0           0  
     -1.320026  8.383141  3.550479            0           0           0  
     -1.312913  5.332103  5.932438            0           0           0  
      6.598255  6.861249  8.313105            0           0           0  
     -1.320025  6.858935  1.115846            0           0           0  
     -3.960026  8.383141  3.550479            0           0           0  
      1.330919  5.326243  5.985145            0           0           0  
     -1.320681  6.860323  8.373166            0           0           0  
     -0.000025  4.572628  1.115846            0           0           0  
     -2.640026  6.096834  3.550479            0           0           0  
      0.000825  7.619140  5.940796            0           0           0  
     -0.004463  4.575840  8.371713            0           0           0  
      2.639975  4.572628  1.115846            0           0           0  
      5.279975  6.096834  3.550479            0           0           0  
      2.641552  7.621065  5.943204            0           0           0  
      2.645754  4.585450  8.666420            0           0           0  
      1.319976  6.858935  1.115846            0           0           0  
      3.959974  8.383141  3.550479            0           0           0  
      3.940126  5.321693  6.000003            0           0           0  
      1.323684  6.862545  8.354892            0           0           0  
      3.959975  6.858935  1.115846            0           0           0  
      1.319974  8.383141  3.550479            0           0           0  
      6.593664  5.332708  5.934288            0           0           0  
      3.958487  6.859170  8.373708            0           0           0  
      5.279975  4.572628  1.115846            0           0           0  
      2.639974  6.096834  3.550479            0           0           0  
      5.275321  7.624940  5.918855            0           0           0  
      5.282942  4.575024  8.381504            0           0           0  
      1.632062  3.655224 10.292924     0.345120    0.592229   -0.146835  
      2.340860  3.197108 10.304921    -0.368874   -0.598348   -0.120452  
 
 Finite differences POTIM=  1.500000000000000E-002
  LATTYP: Found a hexagonal cell.
 ALAT       =    10.5600004196
 C/A-ratio  =     1.8939393187
  
  Lattice vectors:
  
 A1 = (  10.5600004196,   0.0000000000,   0.0000000000)
 A2 = (  -5.2800002098,   9.1452286274,   0.0000000000)
 A3 = (   0.0000000000,   0.0000000000,  20.0000000000)


Analysis of symmetry for initial positions (statically):
=====================================================================
 Subroutine PRICEL returns:
 Original cell was already a primitive cell.
 

 Routine SETGRP: Setting up the symmetry group for a 
 hexagonal supercell.


 Subroutine GETGRP returns: Found  1 space group operations
 (whereof  1 operations were pure point group operations)
 out of a pool of 24 trial point group operations.


The static configuration has the point symmetry C_1 .


Analysis of symmetry for dynamics (positions and initial velocities):
=====================================================================
 Subroutine PRICEL returns:
 Original cell was already a primitive cell.
 

 Routine SETGRP: Setting up the symmetry group for a 
 hexagonal supercell.


 Subroutine GETGRP returns: Found  1 space group operations
 (whereof  1 operations were pure point group operations)
 out of a pool of 24 trial point group operations.


The dynamic configuration has the point symmetry C_1 .


Analysis of constrained symmetry for selective dynamics:
=====================================================================
 Subroutine PRICEL returns:
 Original cell was already a primitive cell.
 

 Routine SETGRP: Setting up the symmetry group for a 
 hexagonal supercell.


 Subroutine GETGRP returns: Found  1 space group operations
 (whereof  1 operations were pure point group operations)
 out of a pool of 24 trial point group operations.


The constrained configuration has the point symmetry C_1 .


Analysis of structural, dynamic, and magnetic symmetry:
=====================================================================
 Subroutine PRICEL returns:
 Original cell was already a primitive cell.
 

 Routine SETGRP: Setting up the symmetry group for a 
 hexagonal supercell.


 Subroutine GETGRP returns: Found  1 space group operations
 (whereof  1 operations were pure point group operations)
 out of a pool of 24 trial point group operations.


The magnetic configuration has the point symmetry C_1 .


 Subroutine INISYM returns: Found  1 space group operations
 (whereof  1 operations are pure point group operations),
 and found     1 'primitive' translations

 
 KPOINTS: mesh auto                               

Automatic generation of k-mesh.
Space group operators:
 irot       det(A)        alpha          n_x          n_y          n_z        tau_x        tau_y        tau_z
    1     1.000000     0.000000     1.000000     0.000000     0.000000     0.000000     0.000000     0.000000
 
 Subroutine IBZKPT returns following result:
 ===========================================
 
 Found      4 irreducible k-points:
 
 Following reciprocal coordinates:
            Coordinates               Weight
  0.000000  0.000000  0.000000      1.000000
  0.500000 -0.000000  0.000000      1.000000
  0.000000  0.500000  0.000000      1.000000
  0.500000  0.500000  0.000000      1.000000
 
 Following cartesian coordinates:
            Coordinates               Weight
  0.000000  0.000000  0.000000      1.000000
  0.047348  0.027337  0.000000      1.000000
  0.000000  0.054673  0.000000      1.000000
  0.047348  0.082010  0.000000      1.000000
 
 TETIRR: Found     12 inequivalent tetrahedra from       24
     LOOP+:  cpu time  454.8368: real time  456.3750
    4ORBIT:  cpu time    0.0000: real time    0.0000
 BZINTS: Fermi energy:  2.787173;642.000000 electrons
         Band energy:-462.936365;  BLOECHL correction: -0.091672

 total amount of memory used by VASP MPI-rank0   328524. kBytes
=======================================================================

   base      :      30000. kBytes
   nonlr-proj:      89546. kBytes
   fftplans  :      13334. kBytes
   grid      :     112154. kBytes
   one-center:       2052. kBytes
   wavefun   :      81438. kBytes
 
  
  
 General timing and accounting informations for this job:
 ========================================================
  
                  Total CPU time used (sec):     7533.849
                            User time (sec):     7506.785
                          System time (sec):       27.065
                         Elapsed time (sec):     7555.530
  
                   Maximum memory used (kb):      996120.
                   Average memory used (kb):           0.
  
                          Minor page faults:      2597476
                          Major page faults:            0
                 Voluntary context switches:         5877
