 vasp.5.4.4.18Apr17-6-g9f103f2a35 (build Nov 30 2020 22:55:02) complex          
  
 executed on             LinuxIFC date 2023.09.15  11:04:52
 running on   40 total cores
 distrk:  each k-point on   40 cores,    1 groups
 distr:  one band on NCORES_PER_BAND=   1 cores,   40 groups


--------------------------------------------------------------------------------------------------------


 INCAR:
 POTCAR:    PAW_PBE Cu 22Jun2005                  
 POTCAR:    PAW_PBE Pt 04Feb2005                  
 POTCAR:    PAW_PBE H 15Jun2001                   

 ----------------------------------------------------------------------------- 
|                                                                             |
|           W    W    AA    RRRRR   N    N  II  N    N   GGGG   !!!           |
|           W    W   A  A   R    R  NN   N  II  NN   N  G    G  !!!           |
|           W    W  A    A  R    R  N N  N  II  N N  N  G       !!!           |
|           W WW W  AAAAAA  RRRRR   N  N N  II  N  N N  G  GGG   !            |
|           WW  WW  A    A  R   R   N   NN  II  N   NN  G    G                |
|           W    W  A    A  R    R  N    N  II  N    N   GGGG   !!!           |
|                                                                             |
|      For optimal performance we recommend to set                            |
|        NCORE= 4 - approx SQRT( number of cores)                             |
|      NCORE specifies how many cores store one orbital (NPAR=cpu/NCORE).     |
|      This setting can  greatly improve the performance of VASP for DFT.     |
|      The default,   NCORE=1            might be grossly inefficient         |
|      on modern multi-core architectures or massively parallel machines.     |
|      Do your own testing !!!!                                               |
|      Unfortunately you need to use the default for GW and RPA calculations. |
|      (for HF NCORE is supported but not extensively tested yet)             |
|                                                                             |
 ----------------------------------------------------------------------------- 

 POTCAR:    PAW_PBE Cu 22Jun2005                  
   VRHFIN =Cu: d10 p1                                                           
   LEXCH  = PE                                                                  
   EATOM  =  1390.9808 eV,  102.2342 Ry                                         
                                                                                
   TITEL  = PAW_PBE Cu 22Jun2005                                                
   LULTRA =        F    use ultrasoft PP ?                                      
   IUNSCR =        1    unscreen: 0-lin 1-nonlin 2-no                           
   RPACOR =    2.000    partial core radius                                     
   POMASS =   63.546; ZVAL   =   11.000    mass and valenz                      
   RCORE  =    2.300    outmost cutoff radius                                   
   RWIGS  =    2.200; RWIGS  =    1.164    wigner-seitz radius (au A)           
   ENMAX  =  295.446; ENMIN  =  221.585 eV                                      
   ICORE  =        3    local potential                                         
   LCOR   =        T    correct aug charges                                     
   LPAW   =        T    paw PP                                                  
   EAUG   =  586.980                                                            
   DEXC   =    0.000                                                            
   RMAX   =    2.344    core radius for proj-oper                               
   RAUG   =    1.300    factor for augmentation sphere                          
   RDEP   =    2.302    radius for radial grids                                 
   RDEPT  =    1.771    core radius for aug-charge                              
                                                                                
   Atomic configuration                                                         
    9 entries                                                                   
     n  l   j            E        occ.                                          
     1  0  0.50     -8850.2468   2.0000                                         
     2  0  0.50     -1062.3498   2.0000                                         
     2  1  1.50      -916.8226   6.0000                                         
     3  0  0.50      -114.6929   2.0000                                         
     3  1  1.50       -72.1325   6.0000                                         
     3  2  2.50        -5.0394  10.0000                                         
     4  0  0.50        -4.6097   1.0000                                         
     4  1  0.50        -4.0817   0.0000                                         
     4  3  2.50        -1.3606   0.0000                                         
   Description                                                                  
     l       E           TYP  RCUT    TYP  RCUT                                 
     2     -5.0393973     23  2.200                                             
     2     10.8846608     23  2.200                                             
     0     -4.6097109     23  2.200                                             
     0      8.2520465     23  2.200                                             
     1     -2.7211652     23  2.200                                             
     1     21.7055443     23  2.200                                             
     3      2.7211652     23  2.300                                             
  local pseudopotential read in
  partial core-charges read in
  partial kinetic energy density read in
  atomic valenz-charges read in
  non local Contribution for L=           2  read in
    real space projection operators read in
  non local Contribution for L=           2  read in
    real space projection operators read in
  non local Contribution for L=           0  read in
    real space projection operators read in
  non local Contribution for L=           0  read in
    real space projection operators read in
  non local Contribution for L=           1  read in
    real space projection operators read in
  non local Contribution for L=           1  read in
    real space projection operators read in
    PAW grid and wavefunctions read in
 
   number of l-projection  operators is LMAX  =           6
   number of lm-projection operators is LMMAX =          18
 
 POTCAR:    PAW_PBE Pt 04Feb2005                  
   VRHFIN =Pt: s1d9                                                             
   LEXCH  = PE                                                                  
   EATOM  =   729.1176 eV,   53.5886 Ry                                         
                                                                                
   TITEL  = PAW_PBE Pt 04Feb2005                                                
   LULTRA =        F    use ultrasoft PP ?                                      
   IUNSCR =        1    unscreen: 0-lin 1-nonlin 2-no                           
   RPACOR =    2.330    partial core radius                                     
   POMASS =  195.080; ZVAL   =   10.000    mass and valenz                      
   RCORE  =    2.600    outmost cutoff radius                                   
   RWIGS  =    2.750; RWIGS  =    1.455    wigner-seitz radius (au A)           
   ENMAX  =  230.283; ENMIN  =  172.712 eV                                      
   ICORE  =        3    local potential                                         
   LCOR   =        T    correct aug charges                                     
   LPAW   =        T    paw PP                                                  
   EAUG   =  358.966                                                            
   DEXC   =    0.000                                                            
   RMAX   =    2.658    core radius for proj-oper                               
   RAUG   =    1.300    factor for augmentation sphere                          
   RDEP   =    2.761    radius for radial grids                                 
   RDEPT  =    2.203    core radius for aug-charge                              
                                                                                
   Atomic configuration                                                         
   16 entries                                                                   
     n  l   j            E        occ.                                          
     1  0  0.50    -78401.1885   2.0000                                         
     2  0  0.50    -13770.7750   2.0000                                         
     2  1  1.50    -11931.0468   6.0000                                         
     3  0  0.50     -3234.7234   2.0000                                         
     3  1  1.50     -2699.2216   6.0000                                         
     3  2  2.50     -2119.5714  10.0000                                         
     4  0  0.50      -695.1528   2.0000                                         
     4  1  1.50      -519.6034   6.0000                                         
     4  2  2.50      -306.6786  10.0000                                         
     4  3  3.50       -70.1041  14.0000                                         
     5  0  0.50      -101.7747   2.0000                                         
     5  1  1.50       -55.9873   6.0000                                         
     5  2  2.50        -6.1423   9.0000                                         
     6  0  0.50        -5.6573   1.0000                                         
     6  1  1.50        -6.8029   0.0000                                         
     5  3  2.50        -1.3606   0.0000                                         
   Description                                                                  
     l       E           TYP  RCUT    TYP  RCUT                                 
     2     -6.1423404     23  2.500                                             
     2     -7.5029230     23  2.500                                             
     0     -5.6573207     23  2.500                                             
     0      0.7416693     23  2.500                                             
     1     -2.7211652     23  2.600                                             
     1     20.4087390     23  2.600                                             
     3     -1.3605826     23  2.500                                             
  local pseudopotential read in
  partial core-charges read in
  partial kinetic energy density read in
  atomic valenz-charges read in
  non local Contribution for L=           2  read in
    real space projection operators read in
  non local Contribution for L=           2  read in
    real space projection operators read in
  non local Contribution for L=           0  read in
    real space projection operators read in
  non local Contribution for L=           0  read in
    real space projection operators read in
  non local Contribution for L=           1  read in
    real space projection operators read in
  non local Contribution for L=           1  read in
    real space projection operators read in
    PAW grid and wavefunctions read in
 
   number of l-projection  operators is LMAX  =           6
   number of lm-projection operators is LMMAX =          18
 
 POTCAR:    PAW_PBE H 15Jun2001                   
   VRHFIN =H: ultrasoft test                                                    
   LEXCH  = PE                                                                  
   EATOM  =    12.4884 eV,    0.9179 Ry                                         
                                                                                
   TITEL  = PAW_PBE H 15Jun2001                                                 
   LULTRA =        F    use ultrasoft PP ?                                      
   IUNSCR =        0    unscreen: 0-lin 1-nonlin 2-no                           
   RPACOR =    0.000    partial core radius                                     
   POMASS =    1.000; ZVAL   =    1.000    mass and valenz                      
   RCORE  =    1.100    outmost cutoff radius                                   
   RWIGS  =    0.700; RWIGS  =    0.370    wigner-seitz radius (au A)           
   ENMAX  =  250.000; ENMIN  =  200.000 eV                                      
   RCLOC  =    0.701    cutoff for local pot                                    
   LCOR   =        T    correct aug charges                                     
   LPAW   =        T    paw PP                                                  
   EAUG   =  400.000                                                            
   RMAX   =    1.123    core radius for proj-oper                               
   RAUG   =    1.200    factor for augmentation sphere                          
   RDEP   =    1.112    radius for radial grids                                 
   RDEPT  =    0.926    core radius for aug-charge                              
                                                                                
   Atomic configuration                                                         
    2 entries                                                                   
     n  l   j            E        occ.                                          
     1  0  0.50        -6.4927   1.0000                                         
     2  1  0.50        -3.4015   0.0000                                         
   Description                                                                  
     l       E           TYP  RCUT    TYP  RCUT                                 
     0     -6.4927494     23  1.100                                             
     0      6.8029130     23  1.100                                             
     1     -4.0817478     23  1.100                                             
  local pseudopotential read in
  atomic valenz-charges read in
  non local Contribution for L=           0  read in
    real space projection operators read in
  non local Contribution for L=           0  read in
    real space projection operators read in
  non local Contribution for L=           1  read in
    real space projection operators read in
    PAW grid and wavefunctions read in
 
   number of l-projection  operators is LMAX  =           3
   number of lm-projection operators is LMMAX =           5
 
 Optimization of the real space projectors (new method)

 maximal supplied QI-value         = 16.25
 optimisation between [QCUT,QGAM] = [ 11.86, 23.89] = [ 39.41,159.82] Ry 
 Optimized for a Real-space Cutoff    1.49 Angstroem

   l    n(q)    QCUT    max X(q) W(low)/X(q) W(high)/X(q)  e(spline) 
   2     10    11.864     4.610    0.10E-03    0.20E-03    0.29E-06
   2     10    11.864     8.522    0.17E-03    0.33E-03    0.50E-06
   0     11    11.864    51.609    0.52E-04    0.55E-04    0.33E-06
   0     11    11.864    27.747    0.46E-04    0.52E-04    0.31E-06
   1     10    11.864    20.408    0.54E-04    0.25E-04    0.21E-06
   1     10    11.864    13.425    0.48E-04    0.22E-04    0.18E-06
 Optimization of the real space projectors (new method)

 maximal supplied QI-value         = 14.36
 optimisation between [QCUT,QGAM] = [ 11.92, 23.98] = [ 39.79,161.09] Ry 
 Optimized for a Real-space Cutoff    1.49 Angstroem

   l    n(q)    QCUT    max X(q) W(low)/X(q) W(high)/X(q)  e(spline) 
   2     10    11.920    66.195    0.79E-04    0.18E-03    0.24E-06
   2     10    11.920    64.643    0.81E-04    0.19E-03    0.24E-06
   0     11    11.920    95.520    0.28E-04    0.54E-04    0.18E-06
   0     11    11.920    63.403    0.27E-04    0.52E-04    0.17E-06
   1     10    11.920    19.961    0.18E-04    0.11E-03    0.23E-06
   1     10    11.920    13.289    0.25E-04    0.87E-04    0.19E-06
 Optimization of the real space projectors (new method)

 maximal supplied QI-value         = 34.20
 optimisation between [QCUT,QGAM] = [ 11.97, 23.94] = [ 40.13,160.53] Ry 
 Optimized for a Real-space Cutoff    1.18 Angstroem

   l    n(q)    QCUT    max X(q) W(low)/X(q) W(high)/X(q)  e(spline) 
   0      8    11.971    19.460    0.15E-03    0.31E-03    0.25E-06
   0      8    11.971    12.209    0.13E-03    0.29E-03    0.25E-06
   1      8    11.971     4.655    0.22E-03    0.24E-03    0.21E-06
  PAW_PBE Cu 22Jun2005                  :
 energy of atom  1       EATOM=-1390.9808
 kinetic energy error for atom=    0.0036 (will be added to EATOM!!)
  PAW_PBE Pt 04Feb2005                  :
 energy of atom  2       EATOM= -729.1176
 kinetic energy error for atom=    0.0021 (will be added to EATOM!!)
  PAW_PBE H 15Jun2001                   :
 energy of atom  3       EATOM=  -12.4884
 kinetic energy error for atom=    0.0008 (will be added to EATOM!!)
 
 
 POSCAR: Cu   Pt   H                             
  positions in cartesian coordinates
  No initial velocities read in
 exchange correlation table for  LEXCH =        8
   RHO(1)=    0.500       N(1)  =     2000
   RHO(2)=  100.500       N(2)  =     4000
 


--------------------------------------------------------------------------------------------------------


 ion  position               nearest neighbor table
   1  0.785  0.869  0.314-  20 2.49  55 2.49  39 2.49  57 2.64  40 2.64  29 2.64   3 2.64  56 2.65
                             2 2.65  65 2.65  73 2.66  72 2.66
   2  0.035  0.869  0.314-  52 2.49  39 2.49  49 2.49  33 2.64   3 2.64  56 2.64  41 2.64  23 2.64
                             1 2.65  77 2.65  65 2.65  67 2.66
   3  0.035  0.619  0.314-  60 2.49  39 2.49  12 2.49   9 2.64  40 2.64  15 2.64   2 2.64   1 2.64
                            77 2.65  41 2.65  66 2.66  73 2.66
   4  0.786  0.868  0.045-  21 2.50  62 2.50  19 2.51  30 2.64  59 2.64  58 2.64  42 2.64   6 2.64
                             5 2.64
   5  0.036  0.868  0.045-  54 2.50  35 2.50  62 2.51  43 2.64   6 2.64  34 2.64  24 2.64  58 2.64
                             4 2.64
   6  0.036  0.618  0.045-  32 2.50  54 2.50  21 2.51   5 2.64  10 2.64  43 2.64   4 2.64  42 2.64
                            18 2.64
   7  0.619  0.202  0.135-  55 2.49  64 2.50  63 2.50  28 2.50  30 2.50  58 2.51  45 2.64  22 2.64
                            37 2.64  11 2.64  19 2.64  62 2.64
   8  0.369  0.952  0.135-  53 2.49  50 2.50  26 2.50  16 2.50  24 2.50  59 2.51  19 2.64  35 2.64
                            44 2.64  37 2.64  25 2.64  38 2.64
   9  0.035  0.369  0.314-  61 2.48  12 2.48  46 2.49  40 2.63  15 2.64   3 2.64  71 2.64  33 2.65
                            13 2.65  68 2.65  66 2.66  47 2.67
  10  0.036  0.368  0.045-  38 2.50  32 2.50  31 2.51  16 2.64   6 2.64  34 2.64  18 2.64  42 2.64
                            48 2.64
  11  0.869  0.202  0.135-  49 2.49  61 2.50  63 2.50  48 2.50  58 2.50  34 2.51  31 2.64  38 2.64
                            22 2.64  62 2.64   7 2.64  35 2.64
  12  0.952  0.536  0.225-   9 2.48  21 2.49  40 2.49   3 2.49  31 2.49  32 2.49  39 2.64  46 2.64
                            20 2.64  51 2.64  61 2.64  60 2.64
  13  0.285  0.119  0.314-  26 2.48  46 2.49  53 2.49  57 2.63  15 2.64  29 2.64  33 2.64   9 2.65
                            69 2.65  71 2.65  74 2.66  23 2.66
  14  0.535  0.618  0.316-  36 2.50  51 2.52  50 2.52  47 2.60  23 2.61  27 2.62  41 2.62  80 2.64
                            40 2.65  57 2.65  75 2.73  76 2.75
  15  0.285  0.369  0.314-  60 2.48  46 2.49  64 2.49   9 2.64  13 2.64   3 2.64  29 2.64  79 2.64
                            41 2.65  74 2.66  27 2.66  66 2.67
  16  0.286  0.118  0.045-   8 2.50  37 2.50  38 2.51  24 2.64  10 2.64  34 2.64  59 2.64  18 2.64
                            30 2.64
  17  0.536  0.618  0.045-  22 2.50  25 2.50  44 2.51  42 2.64  48 2.64  59 2.64  28 2.64  24 2.64
                            43 2.64
  18  0.286  0.368  0.045-  37 2.50  45 2.50  32 2.51  28 2.64  30 2.64  43 2.64  10 2.64  16 2.64
                             6 2.64
  19  0.619  0.952  0.135-  20 2.49  55 2.49  53 2.49  30 2.50  59 2.50   4 2.51  25 2.64   8 2.64
                            37 2.64  21 2.64   7 2.64  62 2.64
  20  0.702  0.785  0.225-   1 2.49  25 2.49  19 2.49  40 2.49  21 2.49  57 2.50  50 2.64  51 2.64
                            12 2.64  53 2.64  39 2.64  55 2.64
  21  0.869  0.702  0.135-  12 2.49  39 2.49  20 2.49   4 2.50  42 2.50   6 2.51  32 2.64  31 2.64
                            25 2.64  62 2.64  54 2.64  19 2.64
  22  0.619  0.452  0.135-  63 2.50  51 2.50  17 2.50  28 2.50  36 2.50  48 2.51  44 2.64  45 2.64
                             7 2.64  25 2.64  11 2.64  31 2.64
  23  0.287  0.866  0.316-  50 2.50  52 2.50  26 2.52  41 2.61  14 2.61  57 2.63   2 2.64  67 2.65
                            69 2.66  13 2.66  75 2.67  33 2.67
  24  0.286  0.868  0.045-  44 2.50   8 2.50  35 2.51  59 2.64  16 2.64  17 2.64  43 2.64   5 2.64
                            34 2.64
  25  0.619  0.702  0.135-  20 2.49  51 2.50  50 2.50  59 2.50  17 2.50  42 2.51  19 2.64  44 2.64
                             8 2.64  22 2.64  21 2.64  31 2.64
  26  0.203  0.034  0.225-  13 2.48  33 2.49  35 2.49   8 2.50  38 2.50  23 2.52  52 2.63  50 2.63
                            49 2.64  53 2.64  46 2.65  61 2.66
  27  0.536  0.370  0.316-  36 2.49  63 2.50  64 2.51  47 2.59  14 2.62  41 2.63  56 2.64  78 2.65
                            79 2.65  29 2.66  15 2.66  76 2.74
  28  0.536  0.368  0.045-   7 2.50  22 2.50  45 2.51  48 2.64  18 2.64  43 2.64  17 2.64  58 2.64
                            30 2.64
  29  0.535  0.119  0.314-  64 2.48  53 2.49  55 2.49  57 2.64  13 2.64  15 2.64  56 2.64   1 2.64
                            78 2.65  27 2.66  72 2.66  74 2.66
  30  0.536  0.118  0.045-  19 2.50   7 2.50  37 2.51   4 2.64  18 2.64  58 2.64  59 2.64  16 2.64
                            28 2.64
  31  0.869  0.452  0.135-  12 2.49  61 2.50  51 2.50  42 2.50  48 2.50  10 2.51  38 2.64  11 2.64
                            21 2.64  32 2.64  22 2.64  25 2.64
  32  0.119  0.452  0.135-  46 2.49  12 2.49  60 2.50   6 2.50  10 2.50  18 2.51  54 2.64  45 2.64
                            21 2.64  37 2.64  38 2.64  31 2.64
  33  0.035  0.119  0.314-  61 2.48  26 2.49  49 2.49   2 2.64  56 2.64  13 2.64   9 2.65  67 2.65
                            70 2.65  71 2.65  23 2.67  47 2.68
  34  0.036  0.118  0.045-  35 2.50  38 2.50  11 2.51  58 2.64  16 2.64   5 2.64  10 2.64  24 2.64
                            48 2.64
  35  0.119  0.952  0.135-  49 2.49  26 2.49  52 2.50  34 2.50   5 2.50  24 2.51   8 2.64  44 2.64
                            62 2.64  54 2.64  11 2.64  38 2.64
  36  0.452  0.536  0.226-  41 2.49  27 2.49  44 2.50  14 2.50  45 2.50  22 2.50  64 2.63  60 2.64
                            63 2.64  51 2.64  52 2.64  50 2.64
  37  0.369  0.202  0.135-  53 2.49  46 2.49  64 2.50  18 2.50  16 2.50  30 2.51  38 2.64  32 2.64
                             7 2.64   8 2.64  19 2.64  45 2.64
  38  0.119  0.202  0.135-  46 2.49  10 2.50  34 2.50  26 2.50  16 2.51  61 2.51  31 2.64  37 2.64
                            32 2.64  11 2.64   8 2.64  35 2.64
  39  0.952  0.785  0.225-   3 2.49   2 2.49  62 2.49  21 2.49   1 2.49  54 2.49  12 2.64  60 2.64
                            49 2.64  52 2.64  55 2.64  20 2.64
  40  0.786  0.618  0.314-  51 2.48  12 2.49  20 2.49   9 2.63  47 2.63  80 2.63   3 2.64   1 2.64
                            14 2.65  57 2.66  68 2.66  73 2.66
  41  0.286  0.620  0.315-  36 2.49  52 2.50  60 2.51  23 2.61  14 2.62  27 2.63   2 2.64  79 2.64
                             3 2.65  15 2.65  77 2.66  75 2.71
  42  0.786  0.618  0.045-  31 2.50  21 2.50  25 2.51  17 2.64  59 2.64  48 2.64   4 2.64   6 2.64
                            10 2.64
  43  0.286  0.618  0.045-  45 2.50  44 2.50  54 2.51  28 2.64   5 2.64  18 2.64  17 2.64  24 2.64
                             6 2.64
  44  0.369  0.702  0.135-  50 2.50  52 2.50  36 2.50  24 2.50  43 2.50  17 2.51  22 2.64  25 2.64
                            35 2.64   8 2.64  54 2.64  45 2.64
  45  0.369  0.452  0.135-  64 2.49  60 2.49  43 2.50  36 2.50  18 2.50  28 2.51  54 2.64  32 2.64
                             7 2.64  22 2.64  37 2.64  44 2.64
  46  0.202  0.285  0.225-  15 2.49  13 2.49  38 2.49  32 2.49   9 2.49  37 2.49  53 2.64  12 2.64
                            26 2.65  60 2.65  61 2.65  64 2.65
  47  0.781  0.372  0.316-  51 2.50  63 2.50  61 2.53  27 2.59  14 2.60  40 2.63  70 2.64  56 2.65
                            68 2.65   9 2.67  33 2.68  76 2.71
  48  0.786  0.368  0.045-  11 2.50  31 2.50  22 2.51  28 2.64  17 2.64  42 2.64  58 2.64  34 2.64
                            10 2.64
  49  0.952  0.036  0.225-  33 2.49  11 2.49   2 2.49  62 2.49  56 2.49  35 2.49  61 2.64  26 2.64
                            55 2.64  39 2.64  52 2.64  63 2.64
  50  0.452  0.786  0.225-  57 2.48  23 2.50   8 2.50  44 2.50  25 2.50  14 2.52  26 2.63  52 2.64
                            20 2.64  36 2.64  53 2.64  51 2.64
  51  0.702  0.535  0.225-  40 2.48  47 2.50  22 2.50  25 2.50  31 2.50  14 2.52  61 2.63  63 2.63
                            36 2.64  20 2.64  12 2.64  50 2.64
  52  0.202  0.786  0.225-   2 2.49  35 2.50  44 2.50  54 2.50  41 2.50  23 2.50  26 2.63  60 2.64
                            50 2.64  36 2.64  49 2.64  39 2.64
  53  0.452  0.036  0.225-  57 2.49  13 2.49  37 2.49  29 2.49   8 2.49  19 2.49  55 2.64  46 2.64
                            20 2.64  50 2.64  26 2.64  64 2.65
  54  0.119  0.702  0.135-  60 2.49  39 2.49  52 2.50   5 2.50   6 2.50  43 2.51  45 2.64  32 2.64
                            44 2.64  35 2.64  62 2.64  21 2.64
  55  0.702  0.036  0.225-  56 2.49   1 2.49   7 2.49  29 2.49  19 2.49  62 2.49  53 2.64  64 2.64
                            49 2.64  39 2.64  63 2.64  20 2.64
  56  0.785  0.119  0.314-  63 2.48  55 2.49  49 2.49  33 2.64  29 2.64   2 2.64  27 2.64  65 2.64
                            47 2.65   1 2.65  78 2.65  70 2.66
  57  0.534  0.870  0.314-  50 2.48  53 2.49  20 2.50  80 2.63  13 2.63  23 2.63  29 2.64   1 2.64
                            14 2.65  40 2.66  72 2.66  69 2.67
  58  0.786  0.118  0.045-  62 2.50  11 2.50   7 2.51  34 2.64  30 2.64   4 2.64  48 2.64  28 2.64
                             5 2.64
  59  0.536  0.868  0.045-  25 2.50  19 2.50   8 2.51  24 2.64  17 2.64  42 2.64   4 2.64  16 2.64
                            30 2.64
  60  0.202  0.536  0.225-  15 2.48   3 2.49  54 2.49  45 2.49  32 2.50  41 2.51  36 2.64  52 2.64
                            39 2.64  64 2.64  12 2.64  46 2.65
  61  0.951  0.286  0.225-  33 2.48   9 2.48  11 2.50  31 2.50  38 2.51  47 2.53  63 2.63  51 2.63
                            49 2.64  12 2.64  46 2.65  26 2.66
  62  0.869  0.952  0.135-  49 2.49  39 2.49  55 2.49  58 2.50   4 2.50   5 2.51  35 2.64  54 2.64
                            11 2.64  21 2.64  19 2.64   7 2.64
  63  0.702  0.286  0.225-  56 2.48  22 2.50   7 2.50  11 2.50  47 2.50  27 2.50  61 2.63  51 2.63
                            64 2.63  36 2.64  49 2.64  55 2.64
  64  0.453  0.286  0.225-  29 2.48  15 2.49  45 2.49   7 2.50  37 2.50  27 2.51  36 2.63  63 2.63
                            55 2.64  60 2.64  53 2.65  46 2.65
  65  0.868  0.953  0.413-  78 2.62  77 2.62  73 2.63  72 2.63  67 2.64  70 2.64  56 2.64   1 2.65
                             2 2.65
  66  0.118  0.453  0.414-  79 2.61  68 2.62  71 2.63  74 2.64  73 2.64  77 2.64   3 2.66   9 2.66
                            15 2.67
  67  0.117  0.954  0.413-  75 2.61  70 2.62  65 2.64  71 2.64  33 2.65  69 2.65  77 2.65  23 2.65
                             2 2.66
  68  0.871  0.452  0.414-  66 2.62  71 2.62  73 2.64  70 2.65  47 2.65  76 2.65   9 2.65  80 2.66
                            40 2.66
  69  0.367  0.956  0.414-  74 2.62  71 2.62  72 2.64  75 2.65  13 2.65  67 2.65  23 2.66  80 2.66
                            57 2.67
  70  0.869  0.202  0.413-  67 2.62  76 2.62  47 2.64  65 2.64  71 2.64  78 2.65  68 2.65  33 2.65
                            56 2.66
  71  0.118  0.204  0.413-  68 2.62  69 2.62  74 2.63  66 2.63  67 2.64  70 2.64   9 2.64  13 2.65
                            33 2.65
  72  0.618  0.954  0.414-  80 2.61  78 2.62  65 2.63  69 2.64  74 2.64  73 2.64  29 2.66  57 2.66
                             1 2.66
  73  0.868  0.703  0.413-  80 2.61  77 2.61  65 2.63  66 2.64  68 2.64  72 2.64   1 2.66   3 2.66
                            40 2.66
  74  0.368  0.203  0.413-  79 2.61  69 2.62  71 2.63  66 2.64  72 2.64  78 2.64  15 2.66  13 2.66
                            29 2.66
  75  0.364  0.707  0.418-  81 2.05  82 2.06  67 2.61  77 2.64  69 2.65  23 2.67  79 2.69  80 2.70
                            41 2.71  76 2.71  14 2.73
  76  0.621  0.450  0.420-  81 2.02  82 2.02  70 2.62  78 2.65  68 2.65  79 2.69  80 2.70  47 2.71
                            75 2.71  27 2.74  14 2.75
  77  0.116  0.704  0.413-  73 2.61  65 2.62  66 2.64  75 2.64   2 2.65   3 2.65  67 2.65  79 2.66
                            41 2.66
  78  0.619  0.201  0.413-  72 2.62  65 2.62  74 2.64  27 2.65  70 2.65  29 2.65  76 2.65  56 2.65
                            79 2.66
  79  0.366  0.451  0.413-  66 2.61  74 2.61  15 2.64  41 2.64  27 2.65  77 2.66  78 2.66  76 2.69
                            75 2.69
  80  0.620  0.705  0.412-  72 2.61  73 2.61  57 2.63  40 2.63  14 2.64  69 2.66  68 2.66  76 2.70
                            75 2.70
  81  0.468  0.555  0.485-  76 2.02  75 2.05
  82  0.518  0.603  0.485-  76 2.02  75 2.06
 
  LATTYP: Found a hexagonal cell.
 ALAT       =    10.5600004196
 C/A-ratio  =     2.0833332505
  
  Lattice vectors:
  
 A1 = (   5.2800002098,  -9.1452286274,   0.0000000000)
 A2 = ( -10.5600004196,   0.0000000000,   0.0000000000)
 A3 = (   0.0000000000,   0.0000000000, -22.0000000000)


Analysis of symmetry for initial positions (statically):
=====================================================================
 Subroutine PRICEL returns:
 Original cell was already a primitive cell.
 

 Routine SETGRP: Setting up the symmetry group for a 
 hexagonal supercell.


 Subroutine GETGRP returns: Found  1 space group operations
 (whereof  1 operations were pure point group operations)
 out of a pool of 24 trial point group operations.


The static configuration has the point symmetry C_1 .


Analysis of symmetry for dynamics (positions and initial velocities):
=====================================================================
 Subroutine PRICEL returns:
 Original cell was already a primitive cell.
 

 Routine SETGRP: Setting up the symmetry group for a 
 hexagonal supercell.


 Subroutine GETGRP returns: Found  1 space group operations
 (whereof  1 operations were pure point group operations)
 out of a pool of 24 trial point group operations.


The dynamic configuration has the point symmetry C_1 .


Analysis of constrained symmetry for selective dynamics:
=====================================================================
 Subroutine PRICEL returns:
 Original cell was already a primitive cell.
 

 Routine SETGRP: Setting up the symmetry group for a 
 hexagonal supercell.


 Subroutine GETGRP returns: Found  1 space group operations
 (whereof  1 operations were pure point group operations)
 out of a pool of 24 trial point group operations.


The constrained configuration has the point symmetry C_1 .


Analysis of structural, dynamic, and magnetic symmetry:
=====================================================================
 Subroutine PRICEL returns:
 Original cell was already a primitive cell.
 

 Routine SETGRP: Setting up the symmetry group for a 
 hexagonal supercell.


 Subroutine GETGRP returns: Found  1 space group operations
 (whereof  1 operations were pure point group operations)
 out of a pool of 24 trial point group operations.


The magnetic configuration has the point symmetry C_1 .


 Subroutine INISYM returns: Found  1 space group operations
 (whereof  1 operations are pure point group operations),
 and found     1 'primitive' translations

 
 
 KPOINTS: mesh auto                               

Automatic generation of k-mesh.
Space group operators:
 irot       det(A)        alpha          n_x          n_y          n_z        tau_x        tau_y        tau_z
    1     1.000000     0.000001     1.000000     0.000000     0.000000     0.000000     0.000000     0.000000
 
 Subroutine IBZKPT returns following result:
 ===========================================
 
 Found      4 irreducible k-points:
 
 Following reciprocal coordinates:
            Coordinates               Weight
  0.000000  0.000000  0.000000      1.000000
  0.500000  0.000000  0.000000      1.000000
  0.000000  0.500000  0.000000      1.000000
  0.500000  0.500000  0.000000      1.000000
 
 Following cartesian coordinates:
            Coordinates               Weight
  0.000000  0.000000  0.000000      1.000000
  0.047348 -0.027337  0.000000      1.000000
  0.000000  0.054673  0.000000      1.000000
  0.047348  0.027337  0.000000      1.000000
 
 TETIRR: Found     12 inequivalent tetrahedra from       24
 
 Subroutine IBZKPT_HF returns following result:
 ==============================================
 
 Found      4 k-points in 1st BZ
 the following      4 k-points will be used (e.g. in the exchange kernel)
 Following reciprocal coordinates:   # in IRBZ
  0.000000  0.000000  0.000000    0.25000000   1 t-inv F
  0.500000  0.000000  0.000000    0.25000000   2 t-inv F
  0.000000  0.500000  0.000000    0.25000000   3 t-inv F
  0.500000  0.500000  0.000000    0.25000000   4 t-inv F


--------------------------------------------------------------------------------------------------------




 Dimension of arrays:
   k-points           NKPTS =      4   k-points in BZ     NKDIM =      4   number of bands    NBANDS=    560
   number of dos      NEDOS =    301   number of ions     NIONS =     82
   non local maximal  LDIM  =      6   non local SUM 2l+1 LMDIM =     18
   total plane-waves  NPLWV = ******
   max r-space proj   IRMAX =   7802   max aug-charges    IRDMAX=  33988
   dimension x,y,z NGX =    84 NGY =   84 NGZ =  168
   dimension x,y,z NGXF=   168 NGYF=  168 NGZF=  336
   support grid    NGXF=   168 NGYF=  168 NGZF=  336
   ions per type =              64  16   2
   NGX,Y,Z   is equivalent  to a cutoff of  13.22, 13.22, 12.70 a.u.
   NGXF,Y,Z  is equivalent  to a cutoff of  26.45, 26.45, 25.39 a.u.

 SYSTEM =  Pt111                                   
 POSCAR =  Cu   Pt   H                             

 Startparameter for this run:
   NWRITE =      2    write-flag & timer
   PREC   = accura    normal or accurate (medium, high low for compatibility)
   ISTART =      0    job   : 0-new  1-cont  2-samecut
   ICHARG =      2    charge: 1-file 2-atom 10-const
   ISPIN  =      2    spin polarized calculation?
   LNONCOLLINEAR =      F non collinear calculations
   LSORBIT =      F    spin-orbit coupling
   INIWAV =      1    electr: 0-lowe 1-rand  2-diag
   LASPH  =      F    aspherical Exc in radial PAW
   METAGGA=      F    non-selfconsistent MetaGGA calc.

 Electronic Relaxation 1
   ENCUT  =  550.0 eV  40.42 Ry    6.36 a.u.  20.19 20.19 42.07*2*pi/ulx,y,z
   ENINI  =  550.0     initial cutoff
   ENAUG  =  587.0 eV  augmentation charge cutoff
   NELM   =    200;   NELMIN=  2; NELMDL= -5     # of ELM steps 
   EDIFF  = 0.1E-04   stopping-criterion for ELM
   LREAL  =      T    real-space projection
   NLSPLINE    = F    spline interpolate recip. space projectors
   LCOMPAT=      F    compatible to vasp.4.4
   GGA_COMPAT  = T    GGA compatible to vasp.4.4-vasp.4.6
   LMAXPAW     = -100 max onsite density
   LMAXMIX     =    2 max onsite mixed and CHGCAR
   VOSKOWN=      0    Vosko Wilk Nusair interpolation
   ROPT   =   -0.00025  -0.00025  -0.00025
 Ionic relaxation
   EDIFFG = -.5E-01   stopping-criterion for IOM
   NSW    =   1021    number of steps for IOM
   NBLOCK =      1;   KBLOCK =   1021    inner block; outer block 
   IBRION =      5    ionic relax: 0-MD 1-quasi-New 2-CG
   NFREE  =      2    steps in history (QN), initial steepest desc. (CG)
   ISIF   =      2    stress and relaxation
   IWAVPR =     11    prediction:  0-non 1-charg 2-wave 3-comb
   ISYM   =      2    0-nonsym 1-usesym 2-fastsym
   LCORR  =      T    Harris-Foulkes like correction to forces

   POTIM  = 0.0100    time-step for ionic-motion
   TEIN   =    0.0    initial temperature
   TEBEG  =    0.0;   TEEND  =   0.0 temperature during run
   SMASS  =  -3.00    Nose mass-parameter (am)
   estimated Nose-frequenzy (Omega)   =  0.10E-29 period in steps =****** mass=  -0.255E-26a.u.
   SCALEE = 1.0000    scale energy and forces
   NPACO  =    256;   APACO  = 16.0  distance and # of slots for P.C.
   PSTRESS=    0.0 pullay stress

  Mass of Ions in am
   POMASS =  63.55195.08  1.00
  Ionic Valenz
   ZVAL   =  11.00 10.00  1.00
  Atomic Wigner-Seitz radii
   RWIGS  =  -1.00 -1.00 -1.00
  virtual crystal weights 
   VCA    =   1.00  1.00  1.00
   NELECT =     866.0000    total number of electrons
   NUPDOWN=      -1.0000    fix difference up-down

 DOS related values:
   EMIN   =  10.00;   EMAX   =-10.00  energy-range for DOS
   EFERMI =   0.00
   ISMEAR =    -5;   SIGMA  =   0.10  broadening in eV -4-tet -1-fermi 0-gaus

 Electronic relaxation 2 (details)
   IALGO  =     68    algorithm
   LDIAG  =      T    sub-space diagonalisation (order eigenvalues)
   LSUBROT=      F    optimize rotation matrix (better conditioning)
   TURBO    =      0    0=normal 1=particle mesh
   IRESTART =      0    0=no restart 2=restart with 2 vectors
   NREBOOT  =      0    no. of reboots
   NMIN     =      0    reboot dimension
   EREF     =   0.00    reference energy to select bands
   IMIX   =      4    mixing-type and parameters
     AMIX     =   0.40;   BMIX     =  1.00
     AMIX_MAG =   1.60;   BMIX_MAG =  1.00
     AMIN     =   0.10
     WC   =   100.;   INIMIX=   1;  MIXPRE=   1;  MAXMIX= -45

 Intra band minimization:
   WEIMIN = 0.0010     energy-eigenvalue tresh-hold
   EBREAK =  0.45E-08  absolut break condition
   DEPER  =   0.30     relativ break condition  

   TIME   =   0.40     timestep for ELM

  volume/ion in A,a.u.               =      25.91       174.85
  Fermi-wavevector in a.u.,A,eV,Ry     =   1.213818  2.293784 20.046215  1.473355
  Thomas-Fermi vector in A             =   2.349258
 
 Write flags
   LWAVE        =      F    write WAVECAR
   LDOWNSAMPLE  =      F    k-point downsampling of WAVECAR
   LCHARG       =      F    write CHGCAR
   LVTOT        =      F    write LOCPOT, total local potential
   LVHAR        =      F    write LOCPOT, Hartree potential only
   LELF         =      F    write electronic localiz. function (ELF)
   LORBIT       =      0    0 simple, 1 ext, 2 COOP (PROOUT), +10 PAW based schemes


 Dipole corrections
   LMONO  =      F    monopole corrections only (constant potential shift)
   LDIPOL =      F    correct potential (dipole corrections)
   IDIPOL =      0    1-x, 2-y, 3-z, 4-all directions 
   EPSILON=  1.0000000 bulk dielectric constant

 Exchange correlation treatment:
   GGA     =    --    GGA type
   LEXCH   =     8    internal setting for exchange type
   VOSKOWN=      0    Vosko Wilk Nusair interpolation
   LHFCALC =     F    Hartree Fock is set to
   LHFONE  =     F    Hartree Fock one center treatment
   AEXX    =    0.0000 exact exchange contribution

 Linear response parameters
   LEPSILON=     F    determine dielectric tensor
   LRPA    =     F    only Hartree local field effects (RPA)
   LNABLA  =     F    use nabla operator in PAW spheres
   LVEL    =     F    velocity operator in full k-point grid
   LINTERFAST=   F  fast interpolation
   KINTER  =     0    interpolate to denser k-point grid
   CSHIFT  =0.1000    complex shift for real part using Kramers Kronig
   OMEGAMAX=  -1.0    maximum frequency
   DEG_THRESHOLD= 0.2000000E-02 threshold for treating states as degnerate
   RTIME   =   -0.100 relaxation time in fs
  (WPLASMAI=    0.000 imaginary part of plasma frequency in eV, 0.658/RTIME)
   DFIELD  = 0.0000000 0.0000000 0.0000000 field for delta impulse in time
 
 Orbital magnetization related:
   ORBITALMAG=     F  switch on orbital magnetization
   LCHIMAG   =     F  perturbation theory with respect to B field
   DQ        =  0.001000  dq finite difference perturbation B field
   LLRAUG    =     F  two centre corrections for induced B field



--------------------------------------------------------------------------------------------------------


 finite differences
   using selective dynamics as specified on POSCAR
   WARNING: If single coordinates had been selected the selection of coordinates
            is made according to the corresponding   d i r e c t   coordinates!
            Don't support selection of single cartesian coordinates -- sorry ...
  !
 charge density and potential will be updated during run
 spin polarized calculation
 RMM-DIIS sequential band-by-band and
  variant of blocked Davidson during initial phase
 perform sub-space diagonalisation
    before iterative eigenvector-optimisation
 modified Broyden-mixing scheme, WC =      100.0
 initial mixing is a Kerker type mixing with AMIX =  0.4000 and BMIX =      1.0000
 Hartree-type preconditioning will be used
 using additional bands          127
 real space projection scheme for non local part
 use partial core corrections
 calculate Harris-corrections to forces 
   (improved forces if not selfconsistent)
 use gradient corrections 
 use of overlap-Matrix (Vanderbilt PP)
 Fermi weights with tetrahedron method with Bloechl corrections


--------------------------------------------------------------------------------------------------------


  energy-cutoff  :      550.00
  volume of cell :     2124.62
      direct lattice vectors                 reciprocal lattice vectors
    10.560000420  0.000000000  0.000000000     0.094696966 -0.054673319  0.000000000
     5.280000210  9.145228627  0.000000000     0.000000000  0.109346638  0.000000000
     0.000000000  0.000000000 22.000000000     0.000000000  0.000000000  0.045454545

  length of vectors
    10.560000420 10.560000420 22.000000000     0.109346638  0.109346638  0.045454545


 
 k-points in units of 2pi/SCALE and weight: mesh auto                               
   0.00000000  0.00000000  0.00000000       0.250
   0.04734848 -0.02733666  0.00000000       0.250
   0.00000000  0.05467332  0.00000000       0.250
   0.04734848  0.02733666  0.00000000       0.250
 
 k-points in reciprocal lattice and weights: mesh auto                               
   0.00000000  0.00000000  0.00000000       0.250
   0.50000000  0.00000000  0.00000000       0.250
   0.00000000  0.50000000  0.00000000       0.250
   0.50000000  0.50000000  0.00000000       0.250
 
 position of ions in fractional coordinates (direct lattice) 
   0.78473831  0.86875868  0.31421364
   0.03528987  0.86907350  0.31427440
   0.03536992  0.61902595  0.31435691
   0.78624900  0.86835803  0.04490293
   0.03632593  0.86831096  0.04490378
   0.03629270  0.61834538  0.04490407
   0.61900594  0.20203528  0.13527817
   0.36902872  0.95201797  0.13527936
   0.03485425  0.36949566  0.31419854
   0.03632232  0.36834008  0.04490425
   0.86903544  0.20201704  0.13528693
   0.95217956  0.53561123  0.22481574
   0.28548630  0.11877448  0.31417678
   0.53513141  0.61843234  0.31609215
   0.28488094  0.36886820  0.31419351
   0.28627437  0.11834063  0.04490500
   0.53631616  0.61834530  0.04488591
   0.28635483  0.36832902  0.04489700
   0.61901160  0.95199349  0.13527291
   0.70190987  0.78533282  0.22484891
   0.86905623  0.70197733  0.13528016
   0.61901543  0.45202163  0.13527904
   0.28740170  0.86560176  0.31572461
   0.28633138  0.86834683  0.04488814
   0.61902971  0.70201856  0.13527944
   0.20251024  0.03434953  0.22529387
   0.53582796  0.37031360  0.31570866
   0.53629100  0.36836874  0.04488825
   0.53515874  0.11919786  0.31433916
   0.53631492  0.11831875  0.04489277
   0.86908216  0.45197647  0.13527762
   0.11905660  0.45201537  0.13528985
   0.03497432  0.11891310  0.31422931
   0.03628167  0.11834476  0.04490753
   0.11906013  0.95198965  0.13527885
   0.45225688  0.53550739  0.22555769
   0.36902445  0.20201498  0.13528569
   0.11903031  0.20204112  0.13529147
   0.95221489  0.78545651  0.22487449
   0.78590520  0.61833051  0.31439086
   0.28606944  0.61950706  0.31536458
   0.78625855  0.61835147  0.04489831
   0.28631485  0.61834448  0.04489351
   0.36906041  0.70200853  0.13527467
   0.36902898  0.45201831  0.13528487
   0.20191717  0.28538050  0.22480707
   0.78064697  0.37197796  0.31616234
   0.78624559  0.36836494  0.04489780
   0.95215003  0.03561141  0.22479445
   0.45195795  0.78560262  0.22523270
   0.70223380  0.53527950  0.22526132
   0.20238473  0.78552223  0.22519031
   0.45214807  0.03566496  0.22479260
   0.11907534  0.70197617  0.13528836
   0.70200893  0.03566024  0.22484839
   0.78511604  0.11924747  0.31424330
   0.53438233  0.86992670  0.31435825
   0.78630020  0.11833290  0.04491016
   0.53626603  0.86832649  0.04487574
   0.20249859  0.53587340  0.22510469
   0.95066879  0.28607846  0.22540212
   0.86907018  0.95198510  0.13528489
   0.70202341  0.28595766  0.22528428
   0.45251796  0.28599875  0.22517177
   0.86770465  0.95303545  0.41255093
   0.11801833  0.45302239  0.41352584
   0.11689228  0.95439876  0.41315281
   0.87060463  0.45223306  0.41364760
   0.36702254  0.95577246  0.41363695
   0.86880209  0.20243782  0.41303452
   0.11827718  0.20364783  0.41251098
   0.61799047  0.95356417  0.41352636
   0.86846089  0.70325857  0.41338776
   0.36776049  0.20314507  0.41334986
   0.36420127  0.70683222  0.41754666
   0.62093293  0.45021228  0.41987294
   0.11553008  0.70417171  0.41324071
   0.61902644  0.20069719  0.41317451
   0.36603396  0.45130493  0.41313850
   0.62015650  0.70546674  0.41229566
   0.46774179  0.55484297  0.48465091
   0.51780728  0.60330344  0.48484950
 
 position of ions in cartesian coordinates  (Angst):
  12.87388294  7.94499678  6.91269999
   4.96136930  7.94787582  6.91403681
   3.64196354  5.66113380  6.91585194
  12.88772033  7.94133272  0.98786446
   4.96828393  7.94090224  0.98788306
   3.64811462  5.65490987  0.98788947
   7.60344927  1.84765881  2.97611975
   8.92359848  8.70642196  2.97614598
   2.31899803  3.37912230  6.91236791
   2.32839939  3.36855426  0.98789358
  10.24366464  1.84749206  2.97631248
  12.88304394  4.89828715  4.94594625
   3.64186476  1.08621976  6.91188925
   8.91631080  5.65570516  6.95402732
   4.95596701  3.37338406  6.91225727
   3.64789606  1.08225215  0.98791005
   8.92836215  5.65490912  0.98748999
   4.96868441  3.36845313  0.98773405
  11.56328854  8.70619814  2.97600392
  11.55872594  7.18204821  4.94667603
  12.88367467  6.41974322  2.97616357
   8.92347749  4.13384112  2.97613890
   7.60533954  7.91612603  6.94594141
   7.60853096  7.94123032  0.98753917
  10.24361217  6.42012028  2.97614778
   2.31987372  0.31413432  4.95646507
   7.61359938  3.38660253  6.94559056
   7.60822020  3.36881638  0.98754146
   6.28064126  1.09009170  6.91546157
   6.28820881  1.08205200  0.98764103
  11.56394379  4.13342813  2.97610764
   3.64387901  4.13378388  2.97637661
   0.99719004  1.08748747  6.91304480
   1.00799478  1.08228986  0.98796576
   6.28378054  8.70616301  2.97613461
   7.60331201  4.89733754  4.96226916
   4.96353744  1.84747315  2.97628524
   2.32373725  1.84771228  2.97641232
  14.20260016  7.18317934  4.94723881
  11.56394453  5.65477391  6.91659901
   6.29189087  5.66553372  6.93802083
  11.56778653  5.65496554  0.98776285
   6.28834392  5.65490162  0.98765720
   7.60388330  6.42002854  2.97604272
   6.28360299  4.13381078  2.97626705
   3.63905448  2.60986995  4.94575548
  10.20767602  3.40182346  6.95557144
  10.24772068  3.36878157  0.98775169
  10.24273301  0.32567451  4.94547788
   8.92065815  7.18451561  4.95511944
  10.24186516  4.89525345  4.95574903
   6.28474042  7.18378041  4.95418678
   4.96299473  0.32616417  4.94543722
   4.96386992  6.41973253  2.97634381
   7.60150070  0.32612104  4.94666453
   8.92045234  1.09054535  6.91335263
  10.23629082  7.95567852  6.91588159
   8.92812813  1.08218139  0.98802358
  10.24773354  7.94104423  0.98726635
   4.96779682  4.90068474  4.95230323
  11.54955720  2.61625291  4.95884668
  14.20386302  8.70612141  2.97626755
   8.92322402  2.61514821  4.95625407
   6.28866327  2.61552395  4.95377886
  14.19498882  8.71572711  9.07612036
   3.63823190  4.14299332  9.09756840
   6.27360820  8.72819487  9.08936188
  11.58137596  4.13577474  9.10024709
   8.92223694  8.74075764  9.10001299
  10.24342212  1.85134012  9.08675936
   2.32426768  1.86240598  9.07524163
  11.56079866  8.72056239  9.09757989
  12.88415271  6.43146038  9.09453069
   4.95615690  1.85780808  9.09369685
   7.57803979  6.46414223  9.18602656
   8.93417289  4.11729422  9.23720478
   4.93802450  6.43981127  9.09129552
   7.59660068  1.83542169  9.08983928
   6.24820891  4.12728675  9.08904703
  10.27371746  6.45165459  9.07050441
   7.86892447  5.07416578 10.66231999
   8.65348740  5.51734789 10.66668898
 


--------------------------------------------------------------------------------------------------------


 k-point  1 :   0.0000 0.0000 0.0000  plane waves:   62167
 k-point  2 :   0.5000 0.0000 0.0000  plane waves:   62242
 k-point  3 :   0.0000 0.5000 0.0000  plane waves:   62242
 k-point  4 :   0.5000 0.5000 0.0000  plane waves:   62242

 maximum and minimum number of plane-waves per node :     62242    62167

 maximum number of plane-waves:     62242
 maximum index in each direction: 
   IXMAX=   20   IYMAX=   20   IZMAX=   42
   IXMIN=  -20   IYMIN=  -20   IZMIN=  -42


 serial   3D FFT for wavefunctions
 parallel 3D FFT for charge:
    minimum data exchange during FFTs selected (reduces bandwidth)


 total amount of memory used by VASP MPI-rank0   387455. kBytes
=======================================================================

   base      :      30000. kBytes
   nonlr-proj:     106637. kBytes
   fftplans  :      13995. kBytes
   grid      :     120016. kBytes
   one-center:       2550. kBytes
   wavefun   :     114257. kBytes
 
     INWAV:  cpu time    0.0000: real time    0.0000
 Broyden mixing: mesh for mixing (old mesh)
   NGX = 41   NGY = 41   NGZ = 85
  (NGX  =168   NGY  =168   NGZ  =336)
  gives a total of 142885 points

 initial charge density was supplied:
 charge density of overlapping atoms calculated
 number of electron     866.0000000 magnetization      82.0000000
 keeping initial charge density in first step


--------------------------------------------------------------------------------------------------------


 Maximum index for non-local projection operator         7571
 Maximum index for augmentation-charges         1210 (set IRDMAX)


--------------------------------------------------------------------------------------------------------


 First call to EWALD:  gamma=   0.138
 Maximum number of real-space cells 4x 4x 2
 Maximum number of reciprocal cells 2x 2x 4

    FEWALD:  cpu time    0.0038: real time    0.0038


--------------------------------------- Iteration      1(   1)  ---------------------------------------


    POTLOK:  cpu time    0.4803: real time    0.5090
    SETDIJ:  cpu time    0.0309: real time    0.0312
     EDDAV:  cpu time   55.0871: real time   55.2401
 BZINTS: Fermi energy: 21.068818;866.000000 electrons
         Band energy:9119.667528;  BLOECHL correction: -0.015061
       DOS:  cpu time    0.0171: real time    0.0173
    --------------------------------------------
      LOOP:  cpu time   55.6154: real time   55.7977

 eigenvalue-minimisations  :  8960
 total energy-change (2. order) : 0.9231846E+04  (-0.3763472E+05)
 number of electron     866.0000000 magnetization      82.0000000
 augmentation part      866.0000000 magnetization      82.0000000

 Free energy of the ion-electron system (eV)
  ---------------------------------------------------
  alpha Z        PSCENC =      2356.26949328
  Ewald energy   TEWEN  =    310586.30158111
  -Hartree energ DENC   =   -410213.69941950
  -exchange      EXHF   =         0.00000000
  -V(xc)+E(xc)   XCENC  =      2990.19343567
  PAW double counting   =     89738.56882376   -96058.82040362
  entropy T*S    EENTRO =         0.00000000
  eigenvalues    EBANDS =      9119.66752815
  atomic energy  EATOM  =    100713.36531073
  Solvation  Ediel_sol  =         0.00000000
  ---------------------------------------------------
  free energy    TOTEN  =      9231.84634958 eV

  energy without entropy =     9231.84634958  energy(sigma->0) =     9231.84634958


--------------------------------------------------------------------------------------------------------




--------------------------------------- Iteration      1(   2)  ---------------------------------------


     EDDAV:  cpu time   55.0787: real time   55.2096
 BZINTS: Fermi energy:  7.997393;866.000000 electrons
         Band energy:1373.167751;  BLOECHL correction:  0.000000
       DOS:  cpu time    0.0040: real time    0.0040
    --------------------------------------------
      LOOP:  cpu time   55.0827: real time   55.2136

 eigenvalue-minimisations  :  8960
 total energy-change (2. order) :-0.7746500E+04  (-0.7255399E+04)
 number of electron     866.0000000 magnetization      82.0000000
 augmentation part      866.0000000 magnetization      82.0000000

 Free energy of the ion-electron system (eV)
  ---------------------------------------------------
  alpha Z        PSCENC =      2356.26949328
  Ewald energy   TEWEN  =    310586.30158111
  -Hartree energ DENC   =   -410213.69941950
  -exchange      EXHF   =         0.00000000
  -V(xc)+E(xc)   XCENC  =      2990.19343567
  PAW double counting   =     89738.56882376   -96058.82040362
  entropy T*S    EENTRO =         0.00000000
  eigenvalues    EBANDS =      1373.16775096
  atomic energy  EATOM  =    100713.36531073
  Solvation  Ediel_sol  =         0.00000000
  ---------------------------------------------------
  free energy    TOTEN  =      1485.34657239 eV

  energy without entropy =     1485.34657239  energy(sigma->0) =     1485.34657239


--------------------------------------------------------------------------------------------------------




--------------------------------------- Iteration      1(   3)  ---------------------------------------


     EDDAV:  cpu time   57.3968: real time   57.5331
 BZINTS: Fermi energy:  2.864706;866.000000 electrons
         Band energy:-290.133947;  BLOECHL correction: -0.030055
       DOS:  cpu time    0.0158: real time    0.0158
    --------------------------------------------
      LOOP:  cpu time   57.4126: real time   57.5489

 eigenvalue-minimisations  :  9440
 total energy-change (2. order) :-0.1663302E+04  (-0.1489218E+04)
 number of electron     866.0000000 magnetization      82.0000000
 augmentation part      866.0000000 magnetization      82.0000000

 Free energy of the ion-electron system (eV)
  ---------------------------------------------------
  alpha Z        PSCENC =      2356.26949328
  Ewald energy   TEWEN  =    310586.30158111
  -Hartree energ DENC   =   -410213.69941950
  -exchange      EXHF   =         0.00000000
  -V(xc)+E(xc)   XCENC  =      2990.19343567
  PAW double counting   =     89738.56882376   -96058.82040362
  entropy T*S    EENTRO =         0.00000000
  eigenvalues    EBANDS =      -290.13394676
  atomic energy  EATOM  =    100713.36531073
  Solvation  Ediel_sol  =         0.00000000
  ---------------------------------------------------
  free energy    TOTEN  =      -177.95512533 eV

  energy without entropy =     -177.95512533  energy(sigma->0) =     -177.95512533


--------------------------------------------------------------------------------------------------------




--------------------------------------- Iteration      1(   4)  ---------------------------------------


     EDDAV:  cpu time   78.4206: real time   78.6084
 BZINTS: Fermi energy:  2.299409;866.000000 electrons
         Band energy:-481.681886;  BLOECHL correction: -0.082406
       DOS:  cpu time    0.0179: real time    0.0180
    --------------------------------------------
      LOOP:  cpu time   78.4385: real time   78.6264

 eigenvalue-minimisations  : 13920
 total energy-change (2. order) :-0.1915479E+03  (-0.1749133E+03)
 number of electron     866.0000000 magnetization      82.0000000
 augmentation part      866.0000000 magnetization      82.0000000

 Free energy of the ion-electron system (eV)
  ---------------------------------------------------
  alpha Z        PSCENC =      2356.26949328
  Ewald energy   TEWEN  =    310586.30158111
  -Hartree energ DENC   =   -410213.69941950
  -exchange      EXHF   =         0.00000000
  -V(xc)+E(xc)   XCENC  =      2990.19343567
  PAW double counting   =     89738.56882376   -96058.82040362
  entropy T*S    EENTRO =         0.00000000
  eigenvalues    EBANDS =      -481.68188644
  atomic energy  EATOM  =    100713.36531073
  Solvation  Ediel_sol  =         0.00000000
  ---------------------------------------------------
  free energy    TOTEN  =      -369.50306501 eV

  energy without entropy =     -369.50306501  energy(sigma->0) =     -369.50306501


--------------------------------------------------------------------------------------------------------




--------------------------------------- Iteration      1(   5)  ---------------------------------------


     EDDAV:  cpu time   76.6377: real time   76.8626
 BZINTS: Fermi energy:  2.287400;866.000000 electrons
         Band energy:-486.671703;  BLOECHL correction: -0.082945
       DOS:  cpu time    0.0171: real time    0.0171
    CHARGE:  cpu time    3.0556: real time    3.0646
    MIXING:  cpu time    0.0096: real time    0.0104
    --------------------------------------------
      LOOP:  cpu time   79.7200: real time   79.9548

 eigenvalue-minimisations  : 13560
 total energy-change (2. order) :-0.4989817E+01  (-0.4947943E+01)
 number of electron     866.0000397 magnetization      73.8894531
 augmentation part      462.2221559 magnetization      71.0449656

 Broyden mixing:
  rms(total) = 0.90563E+01    rms(broyden)= 0.90562E+01
  rms(prec ) = 0.93669E+01
  weight for this iteration     100.00

 Free energy of the ion-electron system (eV)
  ---------------------------------------------------
  alpha Z        PSCENC =      2356.26949328
  Ewald energy   TEWEN  =    310586.30158111
  -Hartree energ DENC   =   -410213.69941950
  -exchange      EXHF   =         0.00000000
  -V(xc)+E(xc)   XCENC  =      2990.19343567
  PAW double counting   =     89738.56882376   -96058.82040362
  entropy T*S    EENTRO =         0.00000000
  eigenvalues    EBANDS =      -486.67170308
  atomic energy  EATOM  =    100713.36531073
  Solvation  Ediel_sol  =         0.00000000
  ---------------------------------------------------
  free energy    TOTEN  =      -374.49288165 eV

  energy without entropy =     -374.49288165  energy(sigma->0) =     -374.49288165


--------------------------------------------------------------------------------------------------------




--------------------------------------- Iteration      1(   6)  ---------------------------------------


    POTLOK:  cpu time    0.4277: real time    0.4288
    SETDIJ:  cpu time    0.0311: real time    0.0314
    EDDIAG:  cpu time    8.6301: real time    8.6560
  RMM-DIIS:  cpu time   35.0715: real time   35.1748
    ORTHCH:  cpu time    1.1424: real time    1.1458
 BZINTS: Fermi energy:  1.440023;866.000000 electrons
         Band energy:***********;  BLOECHL correction: -0.226025
       DOS:  cpu time    0.0186: real time    0.0186
    CHARGE:  cpu time    3.0589: real time    3.0677
    MIXING:  cpu time    0.0096: real time    0.0099
    --------------------------------------------
      LOOP:  cpu time   48.3899: real time   48.5330

 eigenvalue-minimisations  :  8980
 total energy-change (2. order) : 0.2030332E+01  (-0.7784327E+02)
 number of electron     866.0000457 magnetization      70.4949060
 augmentation part      514.5494330 magnetization      48.4533963

 Broyden mixing:
  rms(total) = 0.61112E+01    rms(broyden)= 0.61111E+01
  rms(prec ) = 0.87543E+01
  weight for this iteration     100.00

 eigenvalues of (default mixing * dielectric matrix)
  average eigenvalue GAMMA=   0.7312
  0.7312

 Free energy of the ion-electron system (eV)
  ---------------------------------------------------
  alpha Z        PSCENC =      2356.26949328
  Ewald energy   TEWEN  =    310586.30158111
  -Hartree energ DENC   =   -408071.60878549
  -exchange      EXHF   =         0.00000000
  -V(xc)+E(xc)   XCENC  =      2910.09837148
  PAW double counting   =     92166.41113175   -98135.81441264
  entropy T*S    EENTRO =         0.00000000
  eigenvalues    EBANDS =     -2897.48523995
  atomic energy  EATOM  =    100713.36531073
  Solvation  Ediel_sol  =         0.00000000
  ---------------------------------------------------
  free energy    TOTEN  =      -372.46254974 eV

  energy without entropy =     -372.46254974  energy(sigma->0) =     -372.46254974


--------------------------------------------------------------------------------------------------------




--------------------------------------- Iteration      1(   7)  ---------------------------------------


    POTLOK:  cpu time    0.4197: real time    0.4210
    SETDIJ:  cpu time    0.0312: real time    0.0312
    EDDIAG:  cpu time    8.5117: real time    8.5366
  RMM-DIIS:  cpu time   37.4137: real time   37.5234
    ORTHCH:  cpu time    1.1392: real time    1.1424
 BZINTS: Fermi energy:  2.523335;866.000000 electrons
         Band energy:***********;  BLOECHL correction: -0.010076
       DOS:  cpu time    0.0190: real time    0.0190
    CHARGE:  cpu time    3.0593: real time    3.0682
    MIXING:  cpu time    0.0099: real time    0.0100
    --------------------------------------------
      LOOP:  cpu time   50.6035: real time   50.7518

 eigenvalue-minimisations  :  9554
 total energy-change (2. order) :-0.6298038E+02  (-0.2424516E+02)
 number of electron     866.0000384 magnetization      68.3134805
 augmentation part      485.5241158 magnetization      49.7310575

 Broyden mixing:
  rms(total) = 0.10631E+02    rms(broyden)= 0.10631E+02
  rms(prec ) = 0.14610E+02
  weight for this iteration     100.00

 eigenvalues of (default mixing * dielectric matrix)
  average eigenvalue GAMMA=   0.4499
  0.7933  0.1066

 Free energy of the ion-electron system (eV)
  ---------------------------------------------------
  alpha Z        PSCENC =      2356.26949328
  Ewald energy   TEWEN  =    310586.30158111
  -Hartree energ DENC   =   -409463.91040678
  -exchange      EXHF   =         0.00000000
  -V(xc)+E(xc)   XCENC  =      2937.04546677
  PAW double counting   =     94002.83224337  -100329.83347192
  entropy T*S    EENTRO =         0.00000000
  eigenvalues    EBANDS =     -1237.51314353
  atomic energy  EATOM  =    100713.36531073
  Solvation  Ediel_sol  =         0.00000000
  ---------------------------------------------------
  free energy    TOTEN  =      -435.44292698 eV

  energy without entropy =     -435.44292698  energy(sigma->0) =     -435.44292698


--------------------------------------------------------------------------------------------------------




--------------------------------------- Iteration      1(   8)  ---------------------------------------


    POTLOK:  cpu time    0.4254: real time    0.4266
    SETDIJ:  cpu time    0.0311: real time    0.0312
    EDDIAG:  cpu time    8.5047: real time    8.5271
  RMM-DIIS:  cpu time   35.2901: real time   35.3738
    ORTHCH:  cpu time    1.3539: real time    1.3582
 BZINTS: Fermi energy:  1.787391;866.000000 electrons
         Band energy:***********;  BLOECHL correction: -0.302924
       DOS:  cpu time    0.0192: real time    0.0193
    CHARGE:  cpu time    2.9904: real time    2.9975
    MIXING:  cpu time    0.0099: real time    0.0099
    --------------------------------------------
      LOOP:  cpu time   48.6247: real time   48.7437

 eigenvalue-minimisations  :  9025
 total energy-change (2. order) : 0.8789126E+02  (-0.2803469E+01)
 number of electron     866.0000428 magnetization      65.7749766
 augmentation part      495.5327343 magnetization      50.0310209

 Broyden mixing:
  rms(total) = 0.64445E+01    rms(broyden)= 0.64443E+01
  rms(prec ) = 0.76565E+01
  weight for this iteration     100.00

 eigenvalues of (default mixing * dielectric matrix)
  average eigenvalue GAMMA=   0.4282
  0.8771  0.2037  0.2037

 Free energy of the ion-electron system (eV)
  ---------------------------------------------------
  alpha Z        PSCENC =      2356.26949328
  Ewald energy   TEWEN  =    310586.30158111
  -Hartree energ DENC   =   -409483.36388980
  -exchange      EXHF   =         0.00000000
  -V(xc)+E(xc)   XCENC  =      2935.19538138
  PAW double counting   =     94849.18598046  -101231.06208440
  entropy T*S    EENTRO =         0.00000000
  eigenvalues    EBANDS =     -1073.44344405
  atomic energy  EATOM  =    100713.36531073
  Solvation  Ediel_sol  =         0.00000000
  ---------------------------------------------------
  free energy    TOTEN  =      -347.55167129 eV

  energy without entropy =     -347.55167129  energy(sigma->0) =     -347.55167129


--------------------------------------------------------------------------------------------------------




--------------------------------------- Iteration      1(   9)  ---------------------------------------


    POTLOK:  cpu time    0.4194: real time    0.4205
    SETDIJ:  cpu time    0.0308: real time    0.0309
    EDDIAG:  cpu time    8.5409: real time    8.5614
  RMM-DIIS:  cpu time   35.3594: real time   35.4431
    ORTHCH:  cpu time    1.1431: real time    1.1458
 BZINTS: Fermi energy:  1.262905;866.000000 electrons
         Band energy:***********;  BLOECHL correction: -0.355945
       DOS:  cpu time    0.0182: real time    0.0182
    CHARGE:  cpu time    2.9923: real time    2.9994
    MIXING:  cpu time    0.0108: real time    0.0108
    --------------------------------------------
      LOOP:  cpu time   48.5149: real time   48.6301

 eigenvalue-minimisations  :  9070
 total energy-change (2. order) : 0.3322501E+02  (-0.2841171E+01)
 number of electron     866.0000421 magnetization      59.5260651
 augmentation part      499.4465574 magnetization      43.1992344

 Broyden mixing:
  rms(total) = 0.41674E+01    rms(broyden)= 0.41674E+01
  rms(prec ) = 0.54259E+01
  weight for this iteration     100.00

 eigenvalues of (default mixing * dielectric matrix)
  average eigenvalue GAMMA=   0.5350
  0.9864  0.5285  0.4450  0.1802

 Free energy of the ion-electron system (eV)
  ---------------------------------------------------
  alpha Z        PSCENC =      2356.26949328
  Ewald energy   TEWEN  =    310586.30158111
  -Hartree energ DENC   =   -409151.85038940
  -exchange      EXHF   =         0.00000000
  -V(xc)+E(xc)   XCENC  =      2938.19269279
  PAW double counting   =     95547.07009052  -101955.71603125
  entropy T*S    EENTRO =         0.00000000
  eigenvalues    EBANDS =     -1347.95940554
  atomic energy  EATOM  =    100713.36531073
  Solvation  Ediel_sol  =         0.00000000
  ---------------------------------------------------
  free energy    TOTEN  =      -314.32665775 eV

  energy without entropy =     -314.32665775  energy(sigma->0) =     -314.32665775


--------------------------------------------------------------------------------------------------------




--------------------------------------- Iteration      1(  10)  ---------------------------------------


    POTLOK:  cpu time    0.4202: real time    0.4212
    SETDIJ:  cpu time    0.0305: real time    0.0306
    EDDIAG:  cpu time    8.5062: real time    8.5266
  RMM-DIIS:  cpu time   35.5149: real time   35.5989
    ORTHCH:  cpu time    1.1409: real time    1.1437
 BZINTS: Fermi energy:  1.720270;866.000000 electrons
         Band energy:***********;  BLOECHL correction: -0.103453
       DOS:  cpu time    0.0164: real time    0.0164
    CHARGE:  cpu time    2.9872: real time    2.9944
    MIXING:  cpu time    0.0106: real time    0.0106
    --------------------------------------------
      LOOP:  cpu time   48.6269: real time   48.7423

 eigenvalue-minimisations  :  9054
 total energy-change (2. order) : 0.2858602E+02  (-0.4046452E+01)
 number of electron     866.0000422 magnetization      54.8517735
 augmentation part      495.2754074 magnetization      37.5133799

 Broyden mixing:
  rms(total) = 0.25286E+01    rms(broyden)= 0.25286E+01
  rms(prec ) = 0.28081E+01
  weight for this iteration     100.00

 eigenvalues of (default mixing * dielectric matrix)
  average eigenvalue GAMMA=   0.5958
  1.2235  0.6317  0.6317  0.3115  0.1806

 Free energy of the ion-electron system (eV)
  ---------------------------------------------------
  alpha Z        PSCENC =      2356.26949328
  Ewald energy   TEWEN  =    310586.30158111
  -Hartree energ DENC   =   -409252.17550315
  -exchange      EXHF   =         0.00000000
  -V(xc)+E(xc)   XCENC  =      2953.84757457
  PAW double counting   =     96944.81831492  -103405.37028075
  entropy T*S    EENTRO =         0.00000000
  eigenvalues    EBANDS =     -1182.79712711
  atomic energy  EATOM  =    100713.36531073
  Solvation  Ediel_sol  =         0.00000000
  ---------------------------------------------------
  free energy    TOTEN  =      -285.74063641 eV

  energy without entropy =     -285.74063641  energy(sigma->0) =     -285.74063641


--------------------------------------------------------------------------------------------------------




--------------------------------------- Iteration      1(  11)  ---------------------------------------


    POTLOK:  cpu time    0.4182: real time    0.4192
    SETDIJ:  cpu time    0.0310: real time    0.0311
    EDDIAG:  cpu time    8.7759: real time    8.7970
  RMM-DIIS:  cpu time   35.1605: real time   35.2462
    ORTHCH:  cpu time    1.1418: real time    1.1451
 BZINTS: Fermi energy:  1.704309;866.000000 electrons
         Band energy:***********;  BLOECHL correction: -0.157649
       DOS:  cpu time    0.0177: real time    0.0177
    CHARGE:  cpu time    2.9895: real time    2.9968
    MIXING:  cpu time    0.0111: real time    0.0111
    --------------------------------------------
      LOOP:  cpu time   48.5457: real time   48.6641

 eigenvalue-minimisations  :  9005
 total energy-change (2. order) : 0.3188928E+01  (-0.1499005E+01)
 number of electron     866.0000428 magnetization      51.4235837
 augmentation part      496.2309230 magnetization      36.9223954

 Broyden mixing:
  rms(total) = 0.19010E+01    rms(broyden)= 0.19010E+01
  rms(prec ) = 0.20136E+01
  weight for this iteration     100.00

 eigenvalues of (default mixing * dielectric matrix)
  average eigenvalue GAMMA=   0.5724
  1.3714  0.5792  0.5078  0.5078  0.1814  0.2867

 Free energy of the ion-electron system (eV)
  ---------------------------------------------------
  alpha Z        PSCENC =      2356.26949328
  Ewald energy   TEWEN  =    310586.30158111
  -Hartree energ DENC   =   -409259.87776247
  -exchange      EXHF   =         0.00000000
  -V(xc)+E(xc)   XCENC  =      2950.83257897
  PAW double counting   =     97651.05693538  -104127.47573956
  entropy T*S    EENTRO =         0.00000000
  eigenvalues    EBANDS =     -1153.02410577
  atomic energy  EATOM  =    100713.36531073
  Solvation  Ediel_sol  =         0.00000000
  ---------------------------------------------------
  free energy    TOTEN  =      -282.55170833 eV

  energy without entropy =     -282.55170833  energy(sigma->0) =     -282.55170833


--------------------------------------------------------------------------------------------------------




--------------------------------------- Iteration      1(  12)  ---------------------------------------


    POTLOK:  cpu time    0.4156: real time    0.4166
    SETDIJ:  cpu time    0.0300: real time    0.0300
    EDDIAG:  cpu time    8.4969: real time    8.5174
  RMM-DIIS:  cpu time   35.2537: real time   35.3372
    ORTHCH:  cpu time    1.1350: real time    1.1377
 BZINTS: Fermi energy:  1.697764;866.000000 electrons
         Band energy:***********;  BLOECHL correction: -0.167176
       DOS:  cpu time    0.0187: real time    0.0187
    CHARGE:  cpu time    2.9942: real time    3.0013
    MIXING:  cpu time    0.0114: real time    0.0114
    --------------------------------------------
      LOOP:  cpu time   48.3556: real time   48.4705

 eigenvalue-minimisations  :  9014
 total energy-change (2. order) :-0.3699729E+00  (-0.1654458E+00)
 number of electron     866.0000428 magnetization      39.3415680
 augmentation part      497.7473149 magnetization      24.2748076

 Broyden mixing:
  rms(total) = 0.15075E+01    rms(broyden)= 0.15075E+01
  rms(prec ) = 0.15448E+01
  weight for this iteration     100.00

 eigenvalues of (default mixing * dielectric matrix)
  average eigenvalue GAMMA=   0.6616
  1.3717  0.8915  0.7402  0.7402  0.1816  0.2958  0.4101

 Free energy of the ion-electron system (eV)
  ---------------------------------------------------
  alpha Z        PSCENC =      2356.26949328
  Ewald energy   TEWEN  =    310586.30158111
  -Hartree energ DENC   =   -409257.91945807
  -exchange      EXHF   =         0.00000000
  -V(xc)+E(xc)   XCENC  =      2946.23307713
  PAW double counting   =     97973.26178372  -104455.86940225
  entropy T*S    EENTRO =         0.00000000
  eigenvalues    EBANDS =     -1144.56406689
  atomic energy  EATOM  =    100713.36531073
  Solvation  Ediel_sol  =         0.00000000
  ---------------------------------------------------
  free energy    TOTEN  =      -282.92168124 eV

  energy without entropy =     -282.92168124  energy(sigma->0) =     -282.92168124


--------------------------------------------------------------------------------------------------------




--------------------------------------- Iteration      1(  13)  ---------------------------------------


    POTLOK:  cpu time    0.4181: real time    0.4191
    SETDIJ:  cpu time    0.0300: real time    0.0301
    EDDIAG:  cpu time    8.5107: real time    8.5311
  RMM-DIIS:  cpu time   35.3849: real time   35.4691
    ORTHCH:  cpu time    1.1375: real time    1.1402
 BZINTS: Fermi energy:  1.671360;866.000000 electrons
         Band energy:***********;  BLOECHL correction: -0.233814
       DOS:  cpu time    0.0175: real time    0.0175
    CHARGE:  cpu time    2.9918: real time    2.9989
    MIXING:  cpu time    0.0118: real time    0.0119
    --------------------------------------------
      LOOP:  cpu time   48.5023: real time   48.6179

 eigenvalue-minimisations  :  9055
 total energy-change (2. order) :-0.1624083E+02  (-0.7492519E+00)
 number of electron     866.0000430 magnetization      29.7737049
 augmentation part      500.4008026 magnetization      16.4666717

 Broyden mixing:
  rms(total) = 0.13195E+01    rms(broyden)= 0.13195E+01
  rms(prec ) = 0.15246E+01
  weight for this iteration     100.00

 eigenvalues of (default mixing * dielectric matrix)
  average eigenvalue GAMMA=   0.8086
  1.9991  1.5997  0.6854  0.6854  0.5826  0.1815  0.4353  0.2997

 Free energy of the ion-electron system (eV)
  ---------------------------------------------------
  alpha Z        PSCENC =      2356.26949328
  Ewald energy   TEWEN  =    310586.30158111
  -Hartree energ DENC   =   -409289.85803985
  -exchange      EXHF   =         0.00000000
  -V(xc)+E(xc)   XCENC  =      2929.62728585
  PAW double counting   =     98636.70609255  -105132.91385101
  entropy T*S    EENTRO =         0.00000000
  eigenvalues    EBANDS =     -1098.66038163
  atomic energy  EATOM  =    100713.36531073
  Solvation  Ediel_sol  =         0.00000000
  ---------------------------------------------------
  free energy    TOTEN  =      -299.16250898 eV

  energy without entropy =     -299.16250898  energy(sigma->0) =     -299.16250898


--------------------------------------------------------------------------------------------------------




--------------------------------------- Iteration      1(  14)  ---------------------------------------


    POTLOK:  cpu time    0.4174: real time    0.4184
    SETDIJ:  cpu time    0.0300: real time    0.0300
    EDDIAG:  cpu time    8.5249: real time    8.5453
  RMM-DIIS:  cpu time   35.3323: real time   35.4242
    ORTHCH:  cpu time    1.1460: real time    1.1487
 BZINTS: Fermi energy:  1.703908;866.000000 electrons
         Band energy:***********;  BLOECHL correction: -0.124838
       DOS:  cpu time    0.0173: real time    0.0173
    CHARGE:  cpu time    2.9898: real time    2.9969
    MIXING:  cpu time    0.0131: real time    0.0131
    --------------------------------------------
      LOOP:  cpu time   48.4707: real time   48.5939

 eigenvalue-minimisations  :  9038
 total energy-change (2. order) :-0.1009271E+02  (-0.5291624E+00)
 number of electron     866.0000432 magnetization      20.8591362
 augmentation part      500.3150857 magnetization      12.3347363

 Broyden mixing:
  rms(total) = 0.10435E+01    rms(broyden)= 0.10435E+01
  rms(prec ) = 0.11522E+01
  weight for this iteration     100.00

 eigenvalues of (default mixing * dielectric matrix)
  average eigenvalue GAMMA=   0.9210
  3.5590  1.3568  0.6489  0.6489  0.7086  0.1815  0.3024  0.4909  0.3923

 Free energy of the ion-electron system (eV)
  ---------------------------------------------------
  alpha Z        PSCENC =      2356.26949328
  Ewald energy   TEWEN  =    310586.30158111
  -Hartree energ DENC   =   -409325.50962785
  -exchange      EXHF   =         0.00000000
  -V(xc)+E(xc)   XCENC  =      2921.96387341
  PAW double counting   =     99013.61291297  -105517.71780640
  entropy T*S    EENTRO =         0.00000000
  eigenvalues    EBANDS =     -1057.54095491
  atomic energy  EATOM  =    100713.36531073
  Solvation  Ediel_sol  =         0.00000000
  ---------------------------------------------------
  free energy    TOTEN  =      -309.25521766 eV

  energy without entropy =     -309.25521766  energy(sigma->0) =     -309.25521766


--------------------------------------------------------------------------------------------------------




--------------------------------------- Iteration      1(  15)  ---------------------------------------


    POTLOK:  cpu time    0.4152: real time    0.4161
    SETDIJ:  cpu time    0.0309: real time    0.0310
    EDDIAG:  cpu time    8.5129: real time    8.5330
  RMM-DIIS:  cpu time   35.4204: real time   35.5042
    ORTHCH:  cpu time    1.1386: real time    1.1413
 BZINTS: Fermi energy:  1.707702;866.000000 electrons
         Band energy:***********;  BLOECHL correction: -0.134966
       DOS:  cpu time    0.0186: real time    0.0186
    CHARGE:  cpu time    3.0005: real time    3.0076
    MIXING:  cpu time    0.0143: real time    0.0143
    --------------------------------------------
      LOOP:  cpu time   48.5513: real time   48.6661

 eigenvalue-minimisations  :  9053
 total energy-change (2. order) :-0.5748977E+01  (-0.3083557E+00)
 number of electron     866.0000433 magnetization      12.7062517
 augmentation part      500.3682903 magnetization       5.2645669

 Broyden mixing:
  rms(total) = 0.92765E+00    rms(broyden)= 0.92764E+00
  rms(prec ) = 0.10428E+01
  weight for this iteration     100.00

 eigenvalues of (default mixing * dielectric matrix)
  average eigenvalue GAMMA=   1.0221
  4.6835  1.3737  0.9358  0.7103  0.7103  0.1815  0.5133  0.4697  0.3046  0.3388

 Free energy of the ion-electron system (eV)
  ---------------------------------------------------
  alpha Z        PSCENC =      2356.26949328
  Ewald energy   TEWEN  =    310586.30158111
  -Hartree energ DENC   =   -409370.57855679
  -exchange      EXHF   =         0.00000000
  -V(xc)+E(xc)   XCENC  =      2918.16022403
[...]
     10.207676  3.401823  6.955571            0           0           0  
     10.247721  3.368782  0.987752            0           0           0  
     10.242733  0.325675  4.945478            0           0           0  
      8.920658  7.184516  4.955119            0           0           0  
     10.241865  4.895253  4.955749            0           0           0  
      6.284740  7.183780  4.954187            0           0           0  
      4.962995  0.326164  4.945437            0           0           0  
      4.963870  6.419733  2.976344            0           0           0  
      7.601501  0.326121  4.946665            0           0           0  
      8.920452  1.090545  6.913353            0           0           0  
     10.236291  7.955679  6.915882            0           0           0  
      8.928128  1.082181  0.988024            0           0           0  
     10.247734  7.941044  0.987266            0           0           0  
      4.967797  4.900685  4.952303            0           0           0  
     11.549557  2.616253  4.958847            0           0           0  
     14.203863  8.706121  2.976268            0           0           0  
      8.923224  2.615148  4.956254            0           0           0  
      6.288663  2.615524  4.953779            0           0           0  
     14.194989  8.715727  9.076120            0           0           0  
      3.638232  4.142993  9.097568            0           0           0  
      6.273608  8.728195  9.089362            0           0           0  
     11.581376  4.135775  9.100247            0           0           0  
      8.922237  8.740758  9.100013            0           0           0  
     10.243422  1.851340  9.086759            0           0           0  
      2.324268  1.862406  9.075242            0           0           0  
     11.560799  8.720562  9.097580            0           0           0  
     12.884153  6.431460  9.094531            0           0           0  
      4.956157  1.857808  9.093697            0           0           0  
      7.578040  6.464142  9.186027            0           0           0  
      8.934173  4.117294  9.237205            0           0           0  
      4.938024  6.439811  9.091296            0           0           0  
      7.596601  1.835422  9.089839            0           0           0  
      6.248209  4.127287  9.089047            0           0           0  
     10.273717  6.451655  9.070504            0           0           0  
      7.868924  5.074166 10.662320    -0.404034    0.683845   -0.071356  
      8.653487  5.517348 10.666689    -0.291572    0.525693   -0.051515  
 
   5 f/i=   14.622990 THz    91.878955 2PiTHz  487.770424 cm-1    60.475847 meV
             X         Y         Z           dx          dy          dz
     12.873883  7.944997  6.912700            0           0           0  
      4.961369  7.947876  6.914037            0           0           0  
      3.641964  5.661134  6.915852            0           0           0  
     12.887720  7.941333  0.987864            0           0           0  
      4.968284  7.940902  0.987883            0           0           0  
      3.648115  5.654910  0.987889            0           0           0  
      7.603449  1.847659  2.976120            0           0           0  
      8.923598  8.706422  2.976146            0           0           0  
      2.318998  3.379122  6.912368            0           0           0  
      2.328399  3.368554  0.987894            0           0           0  
     10.243665  1.847492  2.976312            0           0           0  
     12.883044  4.898287  4.945946            0           0           0  
      3.641865  1.086220  6.911889            0           0           0  
      8.916311  5.655705  6.954027            0           0           0  
      4.955967  3.373384  6.912257            0           0           0  
      3.647896  1.082252  0.987910            0           0           0  
      8.928362  5.654909  0.987490            0           0           0  
      4.968684  3.368453  0.987734            0           0           0  
     11.563289  8.706198  2.976004            0           0           0  
     11.558726  7.182048  4.946676            0           0           0  
     12.883675  6.419743  2.976164            0           0           0  
      8.923477  4.133841  2.976139            0           0           0  
      7.605340  7.916126  6.945941            0           0           0  
      7.608531  7.941230  0.987539            0           0           0  
     10.243612  6.420120  2.976148            0           0           0  
      2.319874  0.314134  4.956465            0           0           0  
      7.613599  3.386603  6.945591            0           0           0  
      7.608220  3.368816  0.987541            0           0           0  
      6.280641  1.090092  6.915462            0           0           0  
      6.288209  1.082052  0.987641            0           0           0  
     11.563944  4.133428  2.976108            0           0           0  
      3.643879  4.133784  2.976377            0           0           0  
      0.997190  1.087487  6.913045            0           0           0  
      1.007995  1.082290  0.987966            0           0           0  
      6.283781  8.706163  2.976135            0           0           0  
      7.603312  4.897338  4.962269            0           0           0  
      4.963537  1.847473  2.976285            0           0           0  
      2.323737  1.847712  2.976412            0           0           0  
     14.202600  7.183179  4.947239            0           0           0  
     11.563945  5.654774  6.916599            0           0           0  
      6.291891  5.665534  6.938021            0           0           0  
     11.567787  5.654966  0.987763            0           0           0  
      6.288344  5.654902  0.987657            0           0           0  
      7.603883  6.420029  2.976043            0           0           0  
      6.283603  4.133811  2.976267            0           0           0  
      3.639054  2.609870  4.945755            0           0           0  
     10.207676  3.401823  6.955571            0           0           0  
     10.247721  3.368782  0.987752            0           0           0  
     10.242733  0.325675  4.945478            0           0           0  
      8.920658  7.184516  4.955119            0           0           0  
     10.241865  4.895253  4.955749            0           0           0  
      6.284740  7.183780  4.954187            0           0           0  
      4.962995  0.326164  4.945437            0           0           0  
      4.963870  6.419733  2.976344            0           0           0  
      7.601501  0.326121  4.946665            0           0           0  
      8.920452  1.090545  6.913353            0           0           0  
     10.236291  7.955679  6.915882            0           0           0  
      8.928128  1.082181  0.988024            0           0           0  
     10.247734  7.941044  0.987266            0           0           0  
      4.967797  4.900685  4.952303            0           0           0  
     11.549557  2.616253  4.958847            0           0           0  
     14.203863  8.706121  2.976268            0           0           0  
      8.923224  2.615148  4.956254            0           0           0  
      6.288663  2.615524  4.953779            0           0           0  
     14.194989  8.715727  9.076120            0           0           0  
      3.638232  4.142993  9.097568            0           0           0  
      6.273608  8.728195  9.089362            0           0           0  
     11.581376  4.135775  9.100247            0           0           0  
      8.922237  8.740758  9.100013            0           0           0  
     10.243422  1.851340  9.086759            0           0           0  
      2.324268  1.862406  9.075242            0           0           0  
     11.560799  8.720562  9.097580            0           0           0  
     12.884153  6.431460  9.094531            0           0           0  
      4.956157  1.857808  9.093697            0           0           0  
      7.578040  6.464142  9.186027            0           0           0  
      8.934173  4.117294  9.237205            0           0           0  
      4.938024  6.439811  9.091296            0           0           0  
      7.596601  1.835422  9.089839            0           0           0  
      6.248209  4.127287  9.089047            0           0           0  
     10.273717  6.451655  9.070504            0           0           0  
      7.868924  5.074166 10.662320    -0.302811    0.518293   -0.054613  
      8.653487  5.517348 10.666689     0.393511   -0.693725    0.024289  
 
   6 f/i=   23.000466 THz   144.516189 2PiTHz  767.212933 cm-1    95.122315 meV
             X         Y         Z           dx          dy          dz
     12.873883  7.944997  6.912700            0           0           0  
      4.961369  7.947876  6.914037            0           0           0  
      3.641964  5.661134  6.915852            0           0           0  
     12.887720  7.941333  0.987864            0           0           0  
      4.968284  7.940902  0.987883            0           0           0  
      3.648115  5.654910  0.987889            0           0           0  
      7.603449  1.847659  2.976120            0           0           0  
      8.923598  8.706422  2.976146            0           0           0  
      2.318998  3.379122  6.912368            0           0           0  
      2.328399  3.368554  0.987894            0           0           0  
     10.243665  1.847492  2.976312            0           0           0  
     12.883044  4.898287  4.945946            0           0           0  
      3.641865  1.086220  6.911889            0           0           0  
      8.916311  5.655705  6.954027            0           0           0  
      4.955967  3.373384  6.912257            0           0           0  
      3.647896  1.082252  0.987910            0           0           0  
      8.928362  5.654909  0.987490            0           0           0  
      4.968684  3.368453  0.987734            0           0           0  
     11.563289  8.706198  2.976004            0           0           0  
     11.558726  7.182048  4.946676            0           0           0  
     12.883675  6.419743  2.976164            0           0           0  
      8.923477  4.133841  2.976139            0           0           0  
      7.605340  7.916126  6.945941            0           0           0  
      7.608531  7.941230  0.987539            0           0           0  
     10.243612  6.420120  2.976148            0           0           0  
      2.319874  0.314134  4.956465            0           0           0  
      7.613599  3.386603  6.945591            0           0           0  
      7.608220  3.368816  0.987541            0           0           0  
      6.280641  1.090092  6.915462            0           0           0  
      6.288209  1.082052  0.987641            0           0           0  
     11.563944  4.133428  2.976108            0           0           0  
      3.643879  4.133784  2.976377            0           0           0  
      0.997190  1.087487  6.913045            0           0           0  
      1.007995  1.082290  0.987966            0           0           0  
      6.283781  8.706163  2.976135            0           0           0  
      7.603312  4.897338  4.962269            0           0           0  
      4.963537  1.847473  2.976285            0           0           0  
      2.323737  1.847712  2.976412            0           0           0  
     14.202600  7.183179  4.947239            0           0           0  
     11.563945  5.654774  6.916599            0           0           0  
      6.291891  5.665534  6.938021            0           0           0  
     11.567787  5.654966  0.987763            0           0           0  
      6.288344  5.654902  0.987657            0           0           0  
      7.603883  6.420029  2.976043            0           0           0  
      6.283603  4.133811  2.976267            0           0           0  
      3.639054  2.609870  4.945755            0           0           0  
     10.207676  3.401823  6.955571            0           0           0  
     10.247721  3.368782  0.987752            0           0           0  
     10.242733  0.325675  4.945478            0           0           0  
      8.920658  7.184516  4.955119            0           0           0  
     10.241865  4.895253  4.955749            0           0           0  
      6.284740  7.183780  4.954187            0           0           0  
      4.962995  0.326164  4.945437            0           0           0  
      4.963870  6.419733  2.976344            0           0           0  
      7.601501  0.326121  4.946665            0           0           0  
      8.920452  1.090545  6.913353            0           0           0  
     10.236291  7.955679  6.915882            0           0           0  
      8.928128  1.082181  0.988024            0           0           0  
     10.247734  7.941044  0.987266            0           0           0  
      4.967797  4.900685  4.952303            0           0           0  
     11.549557  2.616253  4.958847            0           0           0  
     14.203863  8.706121  2.976268            0           0           0  
      8.923224  2.615148  4.956254            0           0           0  
      6.288663  2.615524  4.953779            0           0           0  
     14.194989  8.715727  9.076120            0           0           0  
      3.638232  4.142993  9.097568            0           0           0  
      6.273608  8.728195  9.089362            0           0           0  
     11.581376  4.135775  9.100247            0           0           0  
      8.922237  8.740758  9.100013            0           0           0  
     10.243422  1.851340  9.086759            0           0           0  
      2.324268  1.862406  9.075242            0           0           0  
     11.560799  8.720562  9.097580            0           0           0  
     12.884153  6.431460  9.094531            0           0           0  
      4.956157  1.857808  9.093697            0           0           0  
      7.578040  6.464142  9.186027            0           0           0  
      8.934173  4.117294  9.237205            0           0           0  
      4.938024  6.439811  9.091296            0           0           0  
      7.596601  1.835422  9.089839            0           0           0  
      6.248209  4.127287  9.089047            0           0           0  
     10.273717  6.451655  9.070504            0           0           0  
      7.868924  5.074166 10.662320    -0.141134   -0.176549   -0.686382  
      8.653487  5.517348 10.666689     0.151608    0.046179   -0.672810  
 
 Finite differences POTIM=  1.000000000000000E-002
  LATTYP: Found a hexagonal cell.
 ALAT       =    10.5600004196
 C/A-ratio  =     2.0833332505
  
  Lattice vectors:
  
 A1 = (   5.2800002098,  -9.1452286274,   0.0000000000)
 A2 = ( -10.5600004196,   0.0000000000,   0.0000000000)
 A3 = (   0.0000000000,   0.0000000000, -22.0000000000)


Analysis of symmetry for initial positions (statically):
=====================================================================
 Subroutine PRICEL returns:
 Original cell was already a primitive cell.
 

 Routine SETGRP: Setting up the symmetry group for a 
 hexagonal supercell.


 Subroutine GETGRP returns: Found  1 space group operations
 (whereof  1 operations were pure point group operations)
 out of a pool of 24 trial point group operations.


The static configuration has the point symmetry C_1 .


Analysis of symmetry for dynamics (positions and initial velocities):
=====================================================================
 Subroutine PRICEL returns:
 Original cell was already a primitive cell.
 

 Routine SETGRP: Setting up the symmetry group for a 
 hexagonal supercell.


 Subroutine GETGRP returns: Found  1 space group operations
 (whereof  1 operations were pure point group operations)
 out of a pool of 24 trial point group operations.


The dynamic configuration has the point symmetry C_1 .


Analysis of constrained symmetry for selective dynamics:
=====================================================================
 Subroutine PRICEL returns:
 Original cell was already a primitive cell.
 

 Routine SETGRP: Setting up the symmetry group for a 
 hexagonal supercell.


 Subroutine GETGRP returns: Found  1 space group operations
 (whereof  1 operations were pure point group operations)
 out of a pool of 24 trial point group operations.


The constrained configuration has the point symmetry C_1 .


Analysis of structural, dynamic, and magnetic symmetry:
=====================================================================
 Subroutine PRICEL returns:
 Original cell was already a primitive cell.
 

 Routine SETGRP: Setting up the symmetry group for a 
 hexagonal supercell.


 Subroutine GETGRP returns: Found  1 space group operations
 (whereof  1 operations were pure point group operations)
 out of a pool of 24 trial point group operations.


The magnetic configuration has the point symmetry C_1 .


 Subroutine INISYM returns: Found  1 space group operations
 (whereof  1 operations are pure point group operations),
 and found     1 'primitive' translations

 
 KPOINTS: mesh auto                               

Automatic generation of k-mesh.
Space group operators:
 irot       det(A)        alpha          n_x          n_y          n_z        tau_x        tau_y        tau_z
    1     1.000000     0.000001     1.000000     0.000000     0.000000     0.000000     0.000000     0.000000
 
 Subroutine IBZKPT returns following result:
 ===========================================
 
 Found      4 irreducible k-points:
 
 Following reciprocal coordinates:
            Coordinates               Weight
  0.000000  0.000000  0.000000      1.000000
  0.500000  0.000000  0.000000      1.000000
  0.000000  0.500000  0.000000      1.000000
  0.500000  0.500000  0.000000      1.000000
 
 Following cartesian coordinates:
            Coordinates               Weight
  0.000000  0.000000  0.000000      1.000000
  0.047348 -0.027337  0.000000      1.000000
  0.000000  0.054673  0.000000      1.000000
  0.047348  0.027337  0.000000      1.000000
 
 TETIRR: Found     12 inequivalent tetrahedra from       24
     LOOP+:  cpu time  447.6431: real time  448.8344
    4ORBIT:  cpu time    0.0000: real time    0.0000
 BZINTS: Fermi energy:  1.251994;866.000000 electrons
         Band energy:***********;  BLOECHL correction: -0.004175

 total amount of memory used by VASP MPI-rank0   387455. kBytes
=======================================================================

   base      :      30000. kBytes
   nonlr-proj:     106637. kBytes
   fftplans  :      13995. kBytes
   grid      :     120016. kBytes
   one-center:       2550. kBytes
   wavefun   :     114257. kBytes
 
  
  
 General timing and accounting informations for this job:
 ========================================================
  
                  Total CPU time used (sec):     7408.759
                            User time (sec):     7392.948
                          System time (sec):       15.811
                         Elapsed time (sec):     7428.996
  
                   Maximum memory used (kb):     1101756.
                   Average memory used (kb):           0.
  
                          Minor page faults:      2751783
                          Major page faults:            0
                 Voluntary context switches:         5086
