 vasp.5.4.4.18Apr17-6-g9f103f2a35 (build Nov 30 2020 22:55:02) complex          
  
 executed on             LinuxIFC date 2023.08.07  23:03:38
 running on   40 total cores
 distrk:  each k-point on   40 cores,    1 groups
 distr:  one band on NCORES_PER_BAND=   4 cores,   10 groups


--------------------------------------------------------------------------------------------------------


 INCAR:
 POTCAR:    PAW_PBE Pt 04Feb2005                  
 POTCAR:    PAW_PBE H 15Jun2001                   
 POTCAR:    PAW_PBE Pt 04Feb2005                  
   VRHFIN =Pt: s1d9                                                             
   LEXCH  = PE                                                                  
   EATOM  =   729.1176 eV,   53.5886 Ry                                         
                                                                                
   TITEL  = PAW_PBE Pt 04Feb2005                                                
   LULTRA =        F    use ultrasoft PP ?                                      
   IUNSCR =        1    unscreen: 0-lin 1-nonlin 2-no                           
   RPACOR =    2.330    partial core radius                                     
   POMASS =  195.080; ZVAL   =   10.000    mass and valenz                      
   RCORE  =    2.600    outmost cutoff radius                                   
   RWIGS  =    2.750; RWIGS  =    1.455    wigner-seitz radius (au A)           
   ENMAX  =  230.283; ENMIN  =  172.712 eV                                      
   ICORE  =        3    local potential                                         
   LCOR   =        T    correct aug charges                                     
   LPAW   =        T    paw PP                                                  
   EAUG   =  358.966                                                            
   DEXC   =    0.000                                                            
   RMAX   =    2.658    core radius for proj-oper                               
   RAUG   =    1.300    factor for augmentation sphere                          
   RDEP   =    2.761    radius for radial grids                                 
   RDEPT  =    2.203    core radius for aug-charge                              
                                                                                
   Atomic configuration                                                         
   16 entries                                                                   
     n  l   j            E        occ.                                          
     1  0  0.50    -78401.1885   2.0000                                         
     2  0  0.50    -13770.7750   2.0000                                         
     2  1  1.50    -11931.0468   6.0000                                         
     3  0  0.50     -3234.7234   2.0000                                         
     3  1  1.50     -2699.2216   6.0000                                         
     3  2  2.50     -2119.5714  10.0000                                         
     4  0  0.50      -695.1528   2.0000                                         
     4  1  1.50      -519.6034   6.0000                                         
     4  2  2.50      -306.6786  10.0000                                         
     4  3  3.50       -70.1041  14.0000                                         
     5  0  0.50      -101.7747   2.0000                                         
     5  1  1.50       -55.9873   6.0000                                         
     5  2  2.50        -6.1423   9.0000                                         
     6  0  0.50        -5.6573   1.0000                                         
     6  1  1.50        -6.8029   0.0000                                         
     5  3  2.50        -1.3606   0.0000                                         
   Description                                                                  
     l       E           TYP  RCUT    TYP  RCUT                                 
     2     -6.1423404     23  2.500                                             
     2     -7.5029230     23  2.500                                             
     0     -5.6573207     23  2.500                                             
     0      0.7416693     23  2.500                                             
     1     -2.7211652     23  2.600                                             
     1     20.4087390     23  2.600                                             
     3     -1.3605826     23  2.500                                             
  local pseudopotential read in
  partial core-charges read in
  partial kinetic energy density read in
  atomic valenz-charges read in
  non local Contribution for L=           2  read in
    real space projection operators read in
  non local Contribution for L=           2  read in
    real space projection operators read in
  non local Contribution for L=           0  read in
    real space projection operators read in
  non local Contribution for L=           0  read in
    real space projection operators read in
  non local Contribution for L=           1  read in
    real space projection operators read in
  non local Contribution for L=           1  read in
    real space projection operators read in
    PAW grid and wavefunctions read in
 
   number of l-projection  operators is LMAX  =           6
   number of lm-projection operators is LMMAX =          18
 
 POTCAR:    PAW_PBE H 15Jun2001                   
   VRHFIN =H: ultrasoft test                                                    
   LEXCH  = PE                                                                  
   EATOM  =    12.4884 eV,    0.9179 Ry                                         
                                                                                
   TITEL  = PAW_PBE H 15Jun2001                                                 
   LULTRA =        F    use ultrasoft PP ?                                      
   IUNSCR =        0    unscreen: 0-lin 1-nonlin 2-no                           
   RPACOR =    0.000    partial core radius                                     
   POMASS =    1.000; ZVAL   =    1.000    mass and valenz                      
   RCORE  =    1.100    outmost cutoff radius                                   
   RWIGS  =    0.700; RWIGS  =    0.370    wigner-seitz radius (au A)           
   ENMAX  =  250.000; ENMIN  =  200.000 eV                                      
   RCLOC  =    0.701    cutoff for local pot                                    
   LCOR   =        T    correct aug charges                                     
   LPAW   =        T    paw PP                                                  
   EAUG   =  400.000                                                            
   RMAX   =    1.123    core radius for proj-oper                               
   RAUG   =    1.200    factor for augmentation sphere                          
   RDEP   =    1.112    radius for radial grids                                 
   RDEPT  =    0.926    core radius for aug-charge                              
                                                                                
   Atomic configuration                                                         
    2 entries                                                                   
     n  l   j            E        occ.                                          
     1  0  0.50        -6.4927   1.0000                                         
     2  1  0.50        -3.4015   0.0000                                         
   Description                                                                  
     l       E           TYP  RCUT    TYP  RCUT                                 
     0     -6.4927494     23  1.100                                             
     0      6.8029130     23  1.100                                             
     1     -4.0817478     23  1.100                                             
  local pseudopotential read in
  atomic valenz-charges read in
  non local Contribution for L=           0  read in
    real space projection operators read in
  non local Contribution for L=           0  read in
    real space projection operators read in
  non local Contribution for L=           1  read in
    real space projection operators read in
    PAW grid and wavefunctions read in
 
   number of l-projection  operators is LMAX  =           3
   number of lm-projection operators is LMMAX =           5
 
 Optimization of the real space projectors (new method)

 maximal supplied QI-value         = 14.36
 optimisation between [QCUT,QGAM] = [ 11.92, 23.98] = [ 39.79,161.09] Ry 
 Optimized for a Real-space Cutoff    1.49 Angstroem

   l    n(q)    QCUT    max X(q) W(low)/X(q) W(high)/X(q)  e(spline) 
   2     10    11.920    66.195    0.79E-04    0.18E-03    0.24E-06
   2     10    11.920    64.643    0.81E-04    0.19E-03    0.24E-06
   0     11    11.920    95.520    0.28E-04    0.54E-04    0.18E-06
   0     11    11.920    63.403    0.27E-04    0.52E-04    0.17E-06
   1     10    11.920    19.961    0.18E-04    0.11E-03    0.23E-06
   1     10    11.920    13.289    0.25E-04    0.87E-04    0.19E-06
 Optimization of the real space projectors (new method)

 maximal supplied QI-value         = 34.20
 optimisation between [QCUT,QGAM] = [ 11.97, 23.94] = [ 40.13,160.53] Ry 
 Optimized for a Real-space Cutoff    1.18 Angstroem

   l    n(q)    QCUT    max X(q) W(low)/X(q) W(high)/X(q)  e(spline) 
   0      8    11.971    19.460    0.15E-03    0.31E-03    0.25E-06
   0      8    11.971    12.209    0.13E-03    0.29E-03    0.25E-06
   1      8    11.971     4.655    0.22E-03    0.24E-03    0.21E-06
  PAW_PBE Pt 04Feb2005                  :
 energy of atom  1       EATOM= -729.1176
 kinetic energy error for atom=    0.0021 (will be added to EATOM!!)
  PAW_PBE H 15Jun2001                   :
 energy of atom  2       EATOM=  -12.4884
 kinetic energy error for atom=    0.0008 (will be added to EATOM!!)
 
 
 POSCAR: Pt111\(1\1\1)\(2)                       
  positions in direct lattice
  velocities in cartesian coordinates
 exchange correlation table for  LEXCH =        8
   RHO(1)=    0.500       N(1)  =     2000
   RHO(2)=  100.500       N(2)  =     4000
 


--------------------------------------------------------------------------------------------------------


 ion  position               nearest neighbor table
   1  1.000  0.000  0.056-   5 2.64   9 2.64  13 2.64  29 2.64  57 2.64  37 2.64  42 2.82  54 2.83
                            14 2.92
   2  0.334  0.169  0.180-  26 2.61  14 2.62   6 2.63  30 2.64  42 2.64  38 2.67  11 2.79   7 2.81
                             9 2.90  21 2.91  13 2.92  15 3.02
   3  0.169  0.333  0.310-  15 2.61   7 2.61  43 2.61  39 2.62  27 2.66  31 2.66   8 2.72   6 2.80
                            48 2.96  14 3.02  10 3.03  12 3.06
   4  0.001  0.002  0.415-  16 2.63   8 2.63  32 2.64  12 2.64  40 2.65  60 2.67   7 2.80  27 2.83
                            63 2.91
   5  1.000  0.250  0.056-   1 2.64  45 2.64  33 2.64   9 2.64  29 2.64  25 2.64  18 2.86  14 2.91
                            10 2.91
   6  0.333  0.417  0.192-  62 2.63  14 2.63  10 2.63  34 2.63  26 2.63   2 2.63  43 2.80   3 2.80
                            15 2.82  45 3.13   9 3.13  49 3.13
   7  0.169  0.087  0.298-   3 2.61  15 2.62  11 2.63  27 2.64  63 2.68  35 2.68  16 2.77   4 2.80
                             2 2.81  14 2.82  42 2.92  12 3.24
   8  0.999  0.250  0.422-   4 2.63  28 2.63  32 2.64  36 2.64  12 2.65  48 2.66   3 2.72  31 2.93
                            27 2.94
   9  0.250  0.250  0.056-  21 2.64  13 2.64   1 2.64  49 2.64  45 2.64   5 2.64  14 2.90   2 2.90
                             6 3.13
  10  0.085  0.417  0.180-  14 2.62  34 2.62   6 2.63  46 2.64  18 2.65  22 2.66  31 2.79  39 2.82
                            45 2.90   5 2.91  33 2.92   3 3.03
  11  0.417  0.085  0.296-  19 2.62   7 2.63  23 2.64  35 2.65  15 2.65  47 2.67   2 2.79  16 2.81
                            30 2.82  20 2.86  38 2.87  24 2.97
  12  0.245  0.246  0.443-  66 1.93  65 1.98   4 2.64   8 2.65  16 2.67  48 2.71  24 2.72  52 2.73
                             3 3.06  15 3.08   7 3.24
  13  0.250  0.000  0.056-  21 2.64   9 2.64  17 2.64   1 2.64  37 2.64  41 2.64  42 2.82  38 2.83
                             2 2.92
  14  0.086  0.169  0.180-  10 2.62   2 2.62   6 2.63  42 2.64  18 2.65  54 2.67  27 2.79   7 2.82
                             9 2.90   5 2.91   1 2.92   3 3.02
  15  0.416  0.334  0.311-   3 2.61  43 2.61   7 2.62  55 2.62  11 2.65  19 2.65  24 2.76   6 2.82
                             2 3.02  26 3.02  52 3.07  12 3.08
  16  0.249  0.001  0.414-   4 2.63  40 2.64  24 2.65  44 2.65  20 2.66  12 2.67   7 2.77  11 2.81
                            35 2.89
  17  0.500  0.000  0.056-  29 2.64  25 2.64  13 2.64  21 2.64  41 2.64  53 2.64  38 2.83  58 2.86
                            30 2.87
  18  0.834  0.167  0.177-  22 2.64  54 2.64  10 2.65  14 2.65  58 2.65  30 2.66  31 2.82  27 2.83
                            23 2.84   5 2.86  25 2.86  29 2.86
  19  0.665  0.333  0.296-  11 2.62  55 2.63  23 2.64  59 2.65  15 2.65  31 2.67  26 2.79  64 2.81
                            30 2.82  28 2.85  22 2.87  24 2.97
  20  0.500  1.000  0.417-  24 2.62  56 2.63  44 2.64  28 2.64  32 2.64  16 2.66  23 2.85  11 2.86
                            47 2.86
  21  0.500  0.250  0.056-  25 2.64  61 2.64   9 2.64  13 2.64  49 2.64  17 2.64  30 2.86  26 2.91
                             2 2.91
  22  0.833  0.416  0.175-  18 2.64  30 2.64  50 2.64  46 2.64  10 2.66  26 2.67  59 2.78  25 2.83
                            33 2.83  61 2.83  31 2.87  19 2.87
  23  0.667  0.083  0.296-  47 2.64  31 2.64  19 2.64  11 2.64  51 2.65  27 2.65  30 2.83  58 2.84
                            18 2.84  28 2.85  20 2.85  32 2.85
  24  0.502  0.248  0.425-  66 1.74  28 2.62  20 2.62  64 2.65  16 2.65  52 2.72  12 2.72  15 2.76
                            11 2.97  19 2.97
  25  0.750  0.250  0.056-  17 2.64  21 2.64  29 2.64  61 2.64  33 2.64   5 2.64  22 2.83  18 2.86
                            30 2.87
  26  0.581  0.416  0.180-   2 2.61  62 2.62   6 2.63  30 2.64  50 2.64  22 2.67  19 2.79  55 2.81
                            49 2.90  21 2.91  61 2.92  15 3.02
  27  0.918  0.084  0.296-  31 2.62   7 2.64  63 2.64  23 2.65   3 2.66  51 2.67  14 2.79  18 2.83
                             4 2.83  54 2.86  32 2.86   8 2.94
  28  0.750  0.250  0.417-  24 2.62   8 2.63  36 2.64  20 2.64  32 2.64  64 2.66  23 2.85  19 2.85
                            31 2.86
  29  0.750  0.000  0.056-  17 2.64  25 2.64   5 2.64  53 2.64   1 2.64  57 2.64  54 2.83  18 2.86
                            58 2.86
  30  0.583  0.167  0.177-  38 2.64  22 2.64   2 2.64  26 2.64  58 2.66  18 2.66  19 2.82  11 2.82
                            23 2.83  21 2.86  17 2.87  25 2.87
  31  0.918  0.332  0.296-  27 2.62  39 2.64  23 2.64  59 2.64   3 2.66  19 2.67  10 2.79  18 2.82
                            36 2.83  28 2.86  22 2.87   8 2.93
  32  0.750  1.000  0.417-   4 2.64  60 2.64  56 2.64   8 2.64  20 2.64  28 2.64  23 2.85  51 2.86
                            27 2.86
  33  1.000  0.500  0.056-  37 2.64  41 2.64   5 2.64  45 2.64  25 2.64  61 2.64  46 2.82  22 2.83
                            10 2.92
  34  0.333  0.665  0.180-  62 2.62  10 2.62   6 2.63  46 2.64  58 2.65  38 2.66  47 2.79  39 2.82
                            45 2.90  53 2.91  41 2.92  43 3.03
  35  0.168  0.834  0.292-  47 2.64  11 2.65  59 2.66  63 2.66   7 2.68  39 2.68  38 2.78  46 2.80
                            42 2.81  40 2.82  16 2.89  44 2.90
  36  0.999  0.500  0.415-  48 2.63  28 2.64   8 2.64  44 2.65  40 2.65  64 2.65  39 2.79  31 2.83
                            59 2.90
  37  1.000  0.750  0.056-  33 2.64  41 2.64  61 2.64  57 2.64  13 2.64   1 2.64  42 2.83  50 2.83
                            46 2.83
  38  0.334  0.917  0.175-  58 2.64  30 2.64  42 2.64  46 2.64  34 2.66   2 2.67  35 2.78  17 2.83
                            41 2.83  13 2.83  47 2.87  11 2.87
  39  0.169  0.581  0.299-  43 2.62   3 2.62  47 2.64  31 2.64  35 2.68  59 2.68  36 2.79  44 2.79
                            10 2.82  34 2.82  46 2.93  48 3.10
  40  0.999  0.750  0.410-  16 2.64  64 2.64   4 2.65  60 2.65  36 2.65  44 2.65  63 2.81  59 2.82
                            35 2.82
  41  0.250  0.750  0.056-  45 2.64  33 2.64  37 2.64  53 2.64  17 2.64  13 2.64  46 2.82  38 2.83
                            34 2.92
  42  0.084  0.918  0.174-  14 2.64  38 2.64   2 2.64  54 2.65  46 2.67  50 2.67  63 2.80  35 2.81
                            13 2.82   1 2.82  37 2.83   7 2.92
  43  0.416  0.581  0.310-  15 2.61  55 2.61   3 2.61  39 2.62  51 2.66  47 2.66  56 2.72   6 2.80
                            48 2.96  62 3.02  34 3.03  52 3.06
  44  0.250  0.750  0.415-  48 2.63  20 2.64  56 2.64  36 2.65  40 2.65  16 2.65  39 2.79  47 2.83
                            35 2.90
  45  0.250  0.500  0.056-  41 2.64  53 2.64   5 2.64   9 2.64  49 2.64  33 2.64  10 2.90  34 2.90
                             6 3.13
  46  0.084  0.666  0.175-  10 2.64  34 2.64  22 2.64  38 2.64  50 2.67  42 2.67  35 2.80  59 2.80
                            33 2.82  41 2.82  37 2.83  39 2.93
  47  0.417  0.832  0.296-  51 2.62  39 2.64  23 2.64  35 2.64  43 2.66  11 2.67  34 2.79  58 2.82
                            44 2.83  20 2.86  38 2.87  56 2.93
  48  0.247  0.503  0.437-  65 1.70  36 2.63  44 2.63   8 2.66  56 2.66  52 2.71  12 2.71  43 2.96
                             3 2.96  39 3.10
  49  0.500  0.500  0.056-  61 2.64  53 2.64  57 2.64  21 2.64   9 2.64  45 2.64  62 2.90  26 2.90
                             6 3.13
  50  0.832  0.666  0.174-  62 2.64  22 2.64  26 2.64  54 2.65  46 2.67  42 2.67  63 2.80  59 2.81
                            61 2.82  57 2.82  37 2.83  55 2.92
  51  0.665  0.832  0.296-  47 2.62  55 2.64  63 2.64  23 2.65  43 2.66  27 2.67  62 2.79  58 2.83
                            60 2.83  32 2.86  54 2.86  56 2.94
  52  0.504  0.504  0.443-  66 1.93  65 1.98  60 2.64  56 2.65  64 2.67  48 2.71  24 2.72  12 2.73
                            43 3.06  15 3.07  55 3.24
  53  0.500  0.750  0.056-  49 2.64  57 2.64  45 2.64  41 2.64  29 2.64  17 2.64  58 2.86  62 2.91
                            34 2.91
  54  0.833  0.917  0.175-  18 2.64  58 2.64  50 2.65  42 2.65  62 2.67  14 2.67  63 2.78  29 2.83
                            57 2.83   1 2.83  27 2.86  51 2.86
  55  0.663  0.581  0.298-  43 2.61  15 2.62  19 2.63  51 2.64  63 2.68  59 2.68  64 2.77  60 2.80
                            26 2.81  62 2.82  50 2.92  52 3.24
  56  0.500  0.751  0.422-  60 2.63  20 2.63  32 2.64  44 2.64  52 2.65  48 2.66  43 2.72  47 2.93
                            51 2.94
  57  0.750  0.750  0.056-  61 2.64  49 2.64  53 2.64  37 2.64   1 2.64  29 2.64  50 2.82  54 2.83
                            62 2.92
  58  0.583  0.916  0.177-  38 2.64  54 2.64  34 2.65  62 2.65  18 2.65  30 2.66  47 2.82  51 2.83
                            23 2.84  53 2.86  17 2.86  29 2.86
  59  0.916  0.582  0.292-  31 2.64  19 2.65  35 2.66  63 2.66  55 2.68  39 2.68  22 2.78  46 2.80
                            50 2.81  40 2.82  64 2.89  36 2.90
  60  0.748  0.749  0.415-  64 2.63  56 2.63  32 2.64  52 2.64  40 2.65   4 2.67  55 2.80  51 2.83
                            63 2.91
  61  0.750  0.500  0.056-  49 2.64  57 2.64  21 2.64  25 2.64  37 2.64  33 2.64  50 2.82  22 2.83
                            26 2.92
  62  0.581  0.664  0.180-  34 2.62  26 2.62   6 2.63  50 2.64  58 2.65  54 2.67  51 2.79  55 2.82
                            49 2.90  53 2.91  57 2.92  43 3.02
  63  0.916  0.834  0.292-  51 2.64  27 2.64  59 2.66  35 2.66   7 2.68  55 2.68  54 2.78  50 2.80
                            42 2.80  40 2.81   4 2.91  60 2.91
  64  0.749  0.501  0.414-  60 2.63  40 2.64  24 2.65  36 2.65  28 2.66  52 2.67  55 2.77  19 2.81
                            59 2.89
  65  0.317  0.433  0.492-  48 1.70  52 1.98  12 1.98
  66  0.433  0.316  0.486-  24 1.74  12 1.93  52 1.93
 
  LATTYP: Found a hexagonal cell.
 ALAT       =    10.5600004196
 C/A-ratio  =     1.8939393187
  
  Lattice vectors:
  
 A1 = (  10.5600004196,   0.0000000000,   0.0000000000)
 A2 = (  -5.2800002098,   9.1452286274,   0.0000000000)
 A3 = (   0.0000000000,   0.0000000000,  20.0000000000)


Analysis of symmetry for initial positions (statically):
=====================================================================
 Subroutine PRICEL returns:
 Original cell was already a primitive cell.
 

 Routine SETGRP: Setting up the symmetry group for a 
 hexagonal supercell.


 Subroutine GETGRP returns: Found  1 space group operations
 (whereof  1 operations were pure point group operations)
 out of a pool of 24 trial point group operations.


The static configuration has the point symmetry C_1 .


Analysis of symmetry for dynamics (positions and initial velocities):
=====================================================================
 Subroutine PRICEL returns:
 Original cell was already a primitive cell.
 

 Routine SETGRP: Setting up the symmetry group for a 
 hexagonal supercell.


 Subroutine GETGRP returns: Found  1 space group operations
 (whereof  1 operations were pure point group operations)
 out of a pool of 24 trial point group operations.


The dynamic configuration has the point symmetry C_1 .


Analysis of constrained symmetry for selective dynamics:
=====================================================================
 Subroutine PRICEL returns:
 Original cell was already a primitive cell.
 

 Routine SETGRP: Setting up the symmetry group for a 
 hexagonal supercell.


 Subroutine GETGRP returns: Found  1 space group operations
 (whereof  1 operations were pure point group operations)
 out of a pool of 24 trial point group operations.


The constrained configuration has the point symmetry C_1 .


Analysis of structural, dynamic, and magnetic symmetry:
=====================================================================
 Subroutine PRICEL returns:
 Original cell was already a primitive cell.
 

 Routine SETGRP: Setting up the symmetry group for a 
 hexagonal supercell.


 Subroutine GETGRP returns: Found  1 space group operations
 (whereof  1 operations were pure point group operations)
 out of a pool of 24 trial point group operations.


The magnetic configuration has the point symmetry C_1 .


 Subroutine INISYM returns: Found  1 space group operations
 (whereof  1 operations are pure point group operations),
 and found     1 'primitive' translations

 
 
 KPOINTS: mesh auto                               

Automatic generation of k-mesh.
Space group operators:
 irot       det(A)        alpha          n_x          n_y          n_z        tau_x        tau_y        tau_z
    1     1.000000     0.000000     1.000000     0.000000     0.000000     0.000000     0.000000     0.000000
 
 Subroutine IBZKPT returns following result:
 ===========================================
 
 Found      4 irreducible k-points:
 
 Following reciprocal coordinates:
            Coordinates               Weight
  0.000000  0.000000  0.000000      1.000000
  0.500000 -0.000000  0.000000      1.000000
  0.000000  0.500000  0.000000      1.000000
  0.500000  0.500000  0.000000      1.000000
 
 Following cartesian coordinates:
            Coordinates               Weight
  0.000000  0.000000  0.000000      1.000000
  0.047348  0.027337  0.000000      1.000000
  0.000000  0.054673  0.000000      1.000000
  0.047348  0.082010  0.000000      1.000000
 


--------------------------------------------------------------------------------------------------------




 Dimension of arrays:
   k-points           NKPTS =      4   k-points in BZ     NKDIM =      4   number of bands    NBANDS=    420
   number of dos      NEDOS =    301   number of ions     NIONS =     66
   non local maximal  LDIM  =      6   non local SUM 2l+1 LMDIM =     18
   total plane-waves  NPLWV = ******
   max r-space proj   IRMAX =   8171   max aug-charges    IRDMAX=  35597
   dimension x,y,z NGX =    84 NGY =   84 NGZ =  160
   dimension x,y,z NGXF=   168 NGYF=  168 NGZF=  320
   support grid    NGXF=   168 NGYF=  168 NGZF=  320
   ions per type =              64   2
   NGX,Y,Z   is equivalent  to a cutoff of  13.22, 13.22, 13.30 a.u.
   NGXF,Y,Z  is equivalent  to a cutoff of  26.45, 26.45, 26.60 a.u.

 SYSTEM =  Pt111                                   
 POSCAR =  Pt111\(1\1\1)\(2)                       

 Startparameter for this run:
   NWRITE =      2    write-flag & timer
   PREC   = accura    normal or accurate (medium, high low for compatibility)
   ISTART =      0    job   : 0-new  1-cont  2-samecut
   ICHARG =      2    charge: 1-file 2-atom 10-const
   ISPIN  =      2    spin polarized calculation?
   LNONCOLLINEAR =      F non collinear calculations
   LSORBIT =      F    spin-orbit coupling
   INIWAV =      1    electr: 0-lowe 1-rand  2-diag
   LASPH  =      F    aspherical Exc in radial PAW
   METAGGA=      F    non-selfconsistent MetaGGA calc.

 Electronic Relaxation 1
   ENCUT  =  550.0 eV  40.42 Ry    6.36 a.u.  20.19 20.19 38.24*2*pi/ulx,y,z
   ENINI  =  550.0     initial cutoff
   ENAUG  =  400.0 eV  augmentation charge cutoff
   NELM   =    200;   NELMIN=  2; NELMDL= -5     # of ELM steps 
   EDIFF  = 0.1E-04   stopping-criterion for ELM
   LREAL  =      T    real-space projection
   NLSPLINE    = F    spline interpolate recip. space projectors
   LCOMPAT=      F    compatible to vasp.4.4
   GGA_COMPAT  = T    GGA compatible to vasp.4.4-vasp.4.6
   LMAXPAW     = -100 max onsite density
   LMAXMIX     =    2 max onsite mixed and CHGCAR
   VOSKOWN=      0    Vosko Wilk Nusair interpolation
   ROPT   =   -0.00025  -0.00025
 Ionic relaxation
   EDIFFG = -.5E-01   stopping-criterion for IOM
   NSW    =    300    number of steps for IOM
   NBLOCK =      1;   KBLOCK =    300    inner block; outer block 
   IBRION =      2    ionic relax: 0-MD 1-quasi-New 2-CG
   NFREE  =      1    steps in history (QN), initial steepest desc. (CG)
   ISIF   =      2    stress and relaxation
   IWAVPR =     11    prediction:  0-non 1-charg 2-wave 3-comb
   ISYM   =      2    0-nonsym 1-usesym 2-fastsym
   LCORR  =      T    Harris-Foulkes like correction to forces

   POTIM  = 0.5000    time-step for ionic-motion
   TEIN   =    0.0    initial temperature
   TEBEG  =    0.0;   TEEND  =   0.0 temperature during run
   SMASS  =  -3.00    Nose mass-parameter (am)
   estimated Nose-frequenzy (Omega)   =  0.10E-29 period in steps =****** mass=  -0.255E-26a.u.
   SCALEE = 1.0000    scale energy and forces
   NPACO  =    256;   APACO  = 16.0  distance and # of slots for P.C.
   PSTRESS=    0.0 pullay stress

  Mass of Ions in am
   POMASS = 195.08  1.00
  Ionic Valenz
   ZVAL   =  10.00  1.00
  Atomic Wigner-Seitz radii
   RWIGS  =  -1.00 -1.00
  virtual crystal weights 
   VCA    =   1.00  1.00
   NELECT =     642.0000    total number of electrons
   NUPDOWN=      -1.0000    fix difference up-down

 DOS related values:
   EMIN   =  10.00;   EMAX   =-10.00  energy-range for DOS
   EFERMI =   0.00
   ISMEAR =     1;   SIGMA  =   0.10  broadening in eV -4-tet -1-fermi 0-gaus

 Electronic relaxation 2 (details)
   IALGO  =     68    algorithm
   LDIAG  =      T    sub-space diagonalisation (order eigenvalues)
   LSUBROT=      F    optimize rotation matrix (better conditioning)
   TURBO    =      0    0=normal 1=particle mesh
   IRESTART =      0    0=no restart 2=restart with 2 vectors
   NREBOOT  =      0    no. of reboots
   NMIN     =      0    reboot dimension
   EREF     =   0.00    reference energy to select bands
   IMIX   =      4    mixing-type and parameters
     AMIX     =   0.40;   BMIX     =  1.00
     AMIX_MAG =   1.60;   BMIX_MAG =  1.00
     AMIN     =   0.10
     WC   =   100.;   INIMIX=   1;  MIXPRE=   1;  MAXMIX= -45

 Intra band minimization:
   WEIMIN = 0.0010     energy-eigenvalue tresh-hold
   EBREAK =  0.60E-08  absolut break condition
   DEPER  =   0.30     relativ break condition  

   TIME   =   0.40     timestep for ELM

  volume/ion in A,a.u.               =      29.26       197.49
  Fermi-wavevector in a.u.,A,eV,Ry     =   1.134028  2.143002 17.497349  1.286019
  Thomas-Fermi vector in A             =   2.270731
 
 Write flags
   LWAVE        =      F    write WAVECAR
   LDOWNSAMPLE  =      F    k-point downsampling of WAVECAR
   LCHARG       =      F    write CHGCAR
   LVTOT        =      F    write LOCPOT, total local potential
   LVHAR        =      F    write LOCPOT, Hartree potential only
   LELF         =      F    write electronic localiz. function (ELF)
   LORBIT       =      0    0 simple, 1 ext, 2 COOP (PROOUT), +10 PAW based schemes


 Dipole corrections
   LMONO  =      F    monopole corrections only (constant potential shift)
   LDIPOL =      F    correct potential (dipole corrections)
   IDIPOL =      0    1-x, 2-y, 3-z, 4-all directions 
   EPSILON=  1.0000000 bulk dielectric constant

 Exchange correlation treatment:
   GGA     =    --    GGA type
   LEXCH   =     8    internal setting for exchange type
   VOSKOWN=      0    Vosko Wilk Nusair interpolation
   LHFCALC =     F    Hartree Fock is set to
   LHFONE  =     F    Hartree Fock one center treatment
   AEXX    =    0.0000 exact exchange contribution

 Linear response parameters
   LEPSILON=     F    determine dielectric tensor
   LRPA    =     F    only Hartree local field effects (RPA)
   LNABLA  =     F    use nabla operator in PAW spheres
   LVEL    =     F    velocity operator in full k-point grid
   LINTERFAST=   F  fast interpolation
   KINTER  =     0    interpolate to denser k-point grid
   CSHIFT  =0.1000    complex shift for real part using Kramers Kronig
   OMEGAMAX=  -1.0    maximum frequency
   DEG_THRESHOLD= 0.2000000E-02 threshold for treating states as degnerate
   RTIME   =   -0.100 relaxation time in fs
  (WPLASMAI=    0.000 imaginary part of plasma frequency in eV, 0.658/RTIME)
   DFIELD  = 0.0000000 0.0000000 0.0000000 field for delta impulse in time
 
 Orbital magnetization related:
   ORBITALMAG=     F  switch on orbital magnetization
   LCHIMAG   =     F  perturbation theory with respect to B field
   DQ        =  0.001000  dq finite difference perturbation B field
   LLRAUG    =     F  two centre corrections for induced B field



--------------------------------------------------------------------------------------------------------


 conjugate gradient relaxation of ions
   using selective dynamics as specified on POSCAR
 charge density and potential will be updated during run
 spin polarized calculation
 RMM-DIIS sequential band-by-band and
  variant of blocked Davidson during initial phase
 perform sub-space diagonalisation
    before iterative eigenvector-optimisation
 modified Broyden-mixing scheme, WC =      100.0
 initial mixing is a Kerker type mixing with AMIX =  0.4000 and BMIX =      1.0000
 Hartree-type preconditioning will be used
 using additional bands           99
 real space projection scheme for non local part
 use partial core corrections
 calculate Harris-corrections to forces 
   (improved forces if not selfconsistent)
 use gradient corrections 
 use of overlap-Matrix (Vanderbilt PP)
 Methfessel and Paxton  Order N= 1 SIGMA  =   0.10


--------------------------------------------------------------------------------------------------------


  energy-cutoff  :      550.00
  volume of cell :     1931.47
      direct lattice vectors                 reciprocal lattice vectors
    10.560000420  0.000000000  0.000000000     0.094696966  0.054673319  0.000000000
    -5.280000210  9.145228627  0.000000000     0.000000000  0.109346638  0.000000000
     0.000000000  0.000000000 20.000000000     0.000000000  0.000000000  0.050000000

  length of vectors
    10.560000420 10.560000420 20.000000000     0.109346638  0.109346638  0.050000000


 
 k-points in units of 2pi/SCALE and weight: mesh auto                               
   0.00000000  0.00000000  0.00000000       0.250
   0.04734848  0.02733666  0.00000000       0.250
   0.00000000  0.05467332  0.00000000       0.250
   0.04734848  0.08200998  0.00000000       0.250
 
 k-points in reciprocal lattice and weights: mesh auto                               
   0.00000000  0.00000000  0.00000000       0.250
   0.50000000 -0.00000000  0.00000000       0.250
   0.00000000  0.50000000  0.00000000       0.250
   0.50000000  0.50000000  0.00000000       0.250
 
 position of ions in fractional coordinates (direct lattice) 
   0.99999844  0.00000156  0.05579229
   0.33367775  0.16911787  0.17987373
   0.16902701  0.33342325  0.31030747
   0.00081017  0.00152404  0.41538643
   0.99999844  0.25000155  0.05579229
   0.33321441  0.41678012  0.19229472
   0.16888912  0.08716349  0.29844683
   0.99936697  0.24976412  0.42197888
   0.24999844  0.25000155  0.05579229
   0.08546023  0.41663901  0.17968138
   0.41723222  0.08502069  0.29647609
   0.24543703  0.24593849  0.44348621
   0.24999844  0.00000156  0.05579229
   0.08562113  0.16906895  0.17956206
   0.41617780  0.33374521  0.31102800
   0.24922481  0.00086090  0.41421682
   0.49999844  0.00000156  0.05579229
   0.83408820  0.16707790  0.17691543
   0.66489988  0.33268368  0.29647253
   0.50000445  0.99958748  0.41675275
   0.49999843  0.25000155  0.05579229
   0.83313014  0.41624105  0.17504031
   0.66676484  0.08315532  0.29642294
   0.50154088  0.24837687  0.42483043
   0.74999841  0.25000155  0.05579229
   0.58086807  0.41630885  0.17986715
   0.91791033  0.08445144  0.29604008
   0.75029755  0.24989305  0.41673045
   0.74999842  0.00000156  0.05579229
   0.58270917  0.16726320  0.17734884
   0.91781622  0.33244013  0.29601495
   0.75031804  0.99957187  0.41688186
   0.99999844  0.50000154  0.05579229
   0.33335499  0.66454071  0.17969709
   0.16800884  0.83350279  0.29165357
   0.99947887  0.49988989  0.41515441
   0.99999843  0.75000151  0.05579229
   0.33374584  0.91685369  0.17504602
   0.16910102  0.58083546  0.29900365
   0.99947046  0.75042811  0.40991068
   0.24999843  0.75000151  0.05579229
   0.08431408  0.91840332  0.17443868
   0.41649715  0.58089802  0.31031896
   0.25001583  0.75043404  0.41518910
   0.24999844  0.50000154  0.05579229
   0.08416872  0.66580661  0.17462485
   0.41748606  0.83211211  0.29604010
   0.24670496  0.50319055  0.43651065
   0.49999844  0.50000154  0.05579229
   0.83157697  0.66566919  0.17444096
   0.66547966  0.83202067  0.29605708
   0.50395575  0.50445525  0.44346155
   0.49999843  0.75000151  0.05579229
   0.83307592  0.91690728  0.17521969
   0.66275983  0.58104128  0.29845239
   0.50014655  0.75055035  0.42200370
   0.74999841  0.75000151  0.05579229
   0.58289917  0.91589166  0.17692213
   0.91641696  0.58192976  0.29164902
   0.74835829  0.74906232  0.41540519
   0.74999839  0.50000154  0.05579229
   0.58091302  0.66436476  0.17957086
   0.91624973  0.83367694  0.29169202
   0.74902533  0.50066136  0.41422196
   0.31728783  0.43283295  0.49224653
   0.43302366  0.31612919  0.48577245
 
 position of ions in cartesian coordinates  (Angst):
  10.55997578  0.00001422  1.11584590
   2.63069478  1.54662155  3.59747455
   0.02445045  3.04923187  6.20614948
   0.00050845  0.01393766  8.30772850
   9.23997574  2.28632132  1.11584590
   1.31814516  3.81154946  3.84589438
   1.32324587  0.79713007  5.96893668
   9.23456095  2.28415002  8.43957758
   1.31997542  2.28632132  1.11584590
  -1.29739403  3.81025901  3.59362770
   3.95706310  0.77753367  5.92952184
   1.29325984  2.24916376  8.86972424
   2.63997547  0.00001422  1.11584590
   0.01147510  1.54617421  3.59124119
   2.63266296  3.05217626  6.22056009
   2.62726852  0.00787313  8.28433635
   5.27997557  0.00001422  1.11584590
   7.92580040  1.52796563  3.53830859
   5.26477311  3.04246833  5.92945056
   0.00222506  9.14145601  8.33505500
   3.95997540  2.28632132  1.11584590
   6.60010182  3.80661957  3.50080617
   6.60197686  0.76047441  5.92845888
   3.98484196  2.27146327  8.49660860
   6.59997527  2.28632132  1.11584590
   3.93585623  3.80723957  3.59734301
   9.24722983  0.77232773  5.92080154
   6.60370711  2.28532908  8.33460891
   7.91997543  0.00001422  1.11584590
   5.27025937  1.52966019  3.54697681
   7.93685566  3.04024099  5.92029890
   2.64561919  9.14131324  8.33763717
   7.91997567  4.57262842  1.11584590
   0.01145372  6.07737676  3.59394175
  -2.62672142  7.62257354  5.83307133
   7.91507857  4.57160734  8.30308818
   6.59997574  6.85893527  1.11584590
  -1.31663146  8.38483663  3.50092044
  -1.28110452  5.31187309  5.98007304
   6.59214786  6.86283664  8.19821355
  -1.32002457  6.85893527  1.11584590
  -3.95881297  8.39900835  3.48877353
   1.33106839  5.31244519  6.20637917
  -1.32212466  6.86289089  8.30378197
  -0.00002464  4.57262842  1.11584590
  -2.62663737  6.08895370  3.49249704
   0.01510084  7.60985547  5.92080192
  -0.05164172  4.60179264  8.73021306
   2.63997546  4.57262842  1.11584590
   5.26671966  6.08769694  3.48881917
   2.63439619  7.60901926  5.92114167
   2.65824915  4.61335856  8.86923109
   1.31997553  6.85893527  1.11584590
   3.95601147  8.38532673  3.50439372
   3.93084596  5.31375533  5.96904790
   1.31864182  6.86395454  8.44007405
   3.95997540  6.85893527  1.11584590
   1.31950736  8.37603864  3.53844261
   6.60477417  5.32188072  5.83298046
   3.94761468  6.85034620  8.30810386
   5.27997509  4.57262842  1.11584590
   2.62659559  6.07576766  3.59141725
   5.27378316  7.62416617  5.83384042
   5.26621567  4.57866259  8.28443915
   1.06520156  3.95835628  9.84493058
   2.90356780  2.89107376  9.71544895
 


--------------------------------------------------------------------------------------------------------


 k-point  1 :   0.0000 0.0000 0.0000  plane waves:   56579
 k-point  2 :   0.5000-0.0000 0.0000  plane waves:   56606
 k-point  3 :   0.0000 0.5000 0.0000  plane waves:   56606
 k-point  4 :   0.5000 0.5000 0.0000  plane waves:   56606

 maximum and minimum number of plane-waves per node :     14185    14108

 maximum number of plane-waves:     56606
 maximum index in each direction: 
   IXMAX=   20   IYMAX=   20   IZMAX=   38
   IXMIN=  -20   IYMIN=  -20   IZMIN=  -38


 real space projection operators:
  total allocation   :      71359.34 KBytes
  max/ min on nodes  :      17849.80      17828.60


 parallel 3D FFT for wavefunctions:
    minimum data exchange during FFTs selected (reduces bandwidth)
 parallel 3D FFT for charge:
    minimum data exchange during FFTs selected (reduces bandwidth)


 total amount of memory used by VASP MPI-rank0   200787. kBytes
=======================================================================

   base      :      30000. kBytes
   nonlr-proj:      31129. kBytes
   fftplans  :      17093. kBytes
   grid      :      44247. kBytes
   one-center:        528. kBytes
   wavefun   :      77790. kBytes
 
     INWAV:  cpu time    0.0000: real time    0.0000
 Broyden mixing: mesh for mixing (old mesh)
   NGX = 41   NGY = 41   NGZ = 77
  (NGX  =168   NGY  =168   NGZ  =320)
  gives a total of 129437 points

 initial charge density was supplied:
 charge density of overlapping atoms calculated
 number of electron     642.0000000 magnetization      66.0000000
 keeping initial charge density in first step


--------------------------------------------------------------------------------------------------------


 Maximum index for non-local projection operator         2015
 Maximum index for augmentation-charges         2181 (set IRDMAX)


--------------------------------------------------------------------------------------------------------


 First call to EWALD:  gamma=   0.142
 Maximum number of real-space cells 4x 4x 2
 Maximum number of reciprocal cells 2x 2x 4

    FEWALD:  cpu time    0.0090: real time    0.0090


--------------------------------------- Iteration      1(   1)  ---------------------------------------


    POTLOK:  cpu time    0.4090: real time    0.4194
    SETDIJ:  cpu time    0.0392: real time    0.0396
     EDDAV:  cpu time   42.6189: real time   42.7484
       DOS:  cpu time    0.0024: real time    0.0025
    --------------------------------------------
      LOOP:  cpu time   43.0696: real time   43.2100

 eigenvalue-minimisations  :  6720
 total energy-change (2. order) : 0.4503846E+04  (-0.3126497E+05)
 number of electron     642.0000000 magnetization      66.0000000
 augmentation part      642.0000000 magnetization      66.0000000

 Free energy of the ion-electron system (eV)
  ---------------------------------------------------
  alpha Z        PSCENC =      2023.78361127
  Ewald energy   TEWEN  =    123984.33645401
  -Hartree energ DENC   =   -175096.33328435
  -exchange      EXHF   =         0.00000000
  -V(xc)+E(xc)   XCENC  =       247.64898088
  PAW double counting   =     44550.55032729   -42740.70693553
  entropy T*S    EENTRO =        -0.00191460
  eigenvalues    EBANDS =      4846.19862660
  atomic energy  EATOM  =     46688.37031544
  Solvation  Ediel_sol  =         0.00000000
  ---------------------------------------------------
  free energy    TOTEN  =      4503.84618101 eV

  energy without entropy =     4503.84809562  energy(sigma->0) =     4503.84681921


--------------------------------------------------------------------------------------------------------




--------------------------------------- Iteration      1(   2)  ---------------------------------------


     EDDAV:  cpu time   46.2613: real time   46.3882
       DOS:  cpu time    0.0021: real time    0.0021
    --------------------------------------------
      LOOP:  cpu time   46.2633: real time   46.3903

 eigenvalue-minimisations  :  7520
 total energy-change (2. order) :-0.4640241E+04  (-0.4253417E+04)
 number of electron     642.0000000 magnetization      66.0000000
 augmentation part      642.0000000 magnetization      66.0000000

 Free energy of the ion-electron system (eV)
  ---------------------------------------------------
  alpha Z        PSCENC =      2023.78361127
  Ewald energy   TEWEN  =    123984.33645401
  -Hartree energ DENC   =   -175096.33328435
  -exchange      EXHF   =         0.00000000
  -V(xc)+E(xc)   XCENC  =       247.64898088
  PAW double counting   =     44550.55032729   -42740.70693553
  entropy T*S    EENTRO =         0.00517480
  eigenvalues    EBANDS =       205.95063006
  atomic energy  EATOM  =     46688.37031544
  Solvation  Ediel_sol  =         0.00000000
  ---------------------------------------------------
  free energy    TOTEN  =      -136.39472613 eV

  energy without entropy =     -136.39990092  energy(sigma->0) =     -136.39645106


--------------------------------------------------------------------------------------------------------




--------------------------------------- Iteration      1(   3)  ---------------------------------------


     EDDAV:  cpu time   47.0507: real time   47.1803
       DOS:  cpu time    0.0016: real time    0.0016
    --------------------------------------------
      LOOP:  cpu time   47.0523: real time   47.1819

 eigenvalue-minimisations  :  7660
 total energy-change (2. order) :-0.2479465E+03  (-0.2291363E+03)
 number of electron     642.0000000 magnetization      66.0000000
 augmentation part      642.0000000 magnetization      66.0000000

 Free energy of the ion-electron system (eV)
  ---------------------------------------------------
  alpha Z        PSCENC =      2023.78361127
  Ewald energy   TEWEN  =    123984.33645401
  -Hartree energ DENC   =   -175096.33328435
  -exchange      EXHF   =         0.00000000
  -V(xc)+E(xc)   XCENC  =       247.64898088
  PAW double counting   =     44550.55032729   -42740.70693553
  entropy T*S    EENTRO =        -0.02110093
  eigenvalues    EBANDS =       -41.96959118
  atomic energy  EATOM  =     46688.37031544
  Solvation  Ediel_sol  =         0.00000000
  ---------------------------------------------------
  free energy    TOTEN  =      -384.34122310 eV

  energy without entropy =     -384.32012217  energy(sigma->0) =     -384.33418946


--------------------------------------------------------------------------------------------------------




--------------------------------------- Iteration      1(   4)  ---------------------------------------


     EDDAV:  cpu time   48.1977: real time   48.3310
       DOS:  cpu time    0.0016: real time    0.0016
    --------------------------------------------
      LOOP:  cpu time   48.1993: real time   48.3326

 eigenvalue-minimisations  :  7900
 total energy-change (2. order) :-0.6567679E+01  (-0.6497218E+01)
 number of electron     642.0000000 magnetization      66.0000000
 augmentation part      642.0000000 magnetization      66.0000000

 Free energy of the ion-electron system (eV)
  ---------------------------------------------------
  alpha Z        PSCENC =      2023.78361127
  Ewald energy   TEWEN  =    123984.33645401
  -Hartree energ DENC   =   -175096.33328435
  -exchange      EXHF   =         0.00000000
  -V(xc)+E(xc)   XCENC  =       247.64898088
  PAW double counting   =     44550.55032729   -42740.70693553
  entropy T*S    EENTRO =        -0.02325189
  eigenvalues    EBANDS =       -48.53511936
  atomic energy  EATOM  =     46688.37031544
  Solvation  Ediel_sol  =         0.00000000
  ---------------------------------------------------
  free energy    TOTEN  =      -390.90890223 eV

  energy without entropy =     -390.88565034  energy(sigma->0) =     -390.90115160


--------------------------------------------------------------------------------------------------------




--------------------------------------- Iteration      1(   5)  ---------------------------------------


     EDDAV:  cpu time   47.6193: real time   47.7503
       DOS:  cpu time    0.0017: real time    0.0017
    CHARGE:  cpu time    3.1673: real time    3.1759
    MIXING:  cpu time    0.0101: real time    0.0110
    --------------------------------------------
      LOOP:  cpu time   50.7984: real time   50.9389

 eigenvalue-minimisations  :  7800
 total energy-change (2. order) :-0.2281408E+00  (-0.2275228E+00)
 number of electron     642.0000054 magnetization      59.8613718
 augmentation part      185.5647682 magnetization      46.8764284

 Broyden mixing:
  rms(total) = 0.10507E+02    rms(broyden)= 0.10507E+02
  rms(prec ) = 0.10615E+02
  weight for this iteration     100.00

 Free energy of the ion-electron system (eV)
  ---------------------------------------------------
  alpha Z        PSCENC =      2023.78361127
  Ewald energy   TEWEN  =    123984.33645401
  -Hartree energ DENC   =   -175096.33328435
  -exchange      EXHF   =         0.00000000
  -V(xc)+E(xc)   XCENC  =       247.64898088
  PAW double counting   =     44550.55032729   -42740.70693553
  entropy T*S    EENTRO =        -0.02328793
  eigenvalues    EBANDS =       -48.76322411
  atomic energy  EATOM  =     46688.37031544
  Solvation  Ediel_sol  =         0.00000000
  ---------------------------------------------------
  free energy    TOTEN  =      -391.13704303 eV

  energy without entropy =     -391.11375510  energy(sigma->0) =     -391.12928039


--------------------------------------------------------------------------------------------------------




--------------------------------------- Iteration      1(   6)  ---------------------------------------


    POTLOK:  cpu time    0.3763: real time    0.3779
    SETDIJ:  cpu time    0.0324: real time    0.0325
    EDDIAG:  cpu time    7.5626: real time    7.5838
  RMM-DIIS:  cpu time   27.6033: real time   27.6790
    ORTHCH:  cpu time    0.7343: real time    0.7364
       DOS:  cpu time    0.0016: real time    0.0016
    CHARGE:  cpu time    3.1049: real time    3.1132
    MIXING:  cpu time    0.0093: real time    0.0095
    --------------------------------------------
      LOOP:  cpu time   39.4247: real time   39.5340

 eigenvalue-minimisations  :  6770
 total energy-change (2. order) : 0.2621656E+02  (-0.6834440E+01)
 number of electron     642.0000055 magnetization      52.5848758
 augmentation part      195.2677814 magnetization      39.0869029

 Broyden mixing:
  rms(total) = 0.68526E+01    rms(broyden)= 0.68526E+01
  rms(prec ) = 0.71823E+01
  weight for this iteration     100.00

 eigenvalues of (default mixing * dielectric matrix)
  average eigenvalue GAMMA=   1.2013
  1.2013

 Free energy of the ion-electron system (eV)
  ---------------------------------------------------
  alpha Z        PSCENC =      2023.78361127
  Ewald energy   TEWEN  =    123984.33645401
  -Hartree energ DENC   =   -174409.30339836
  -exchange      EXHF   =         0.00000000
  -V(xc)+E(xc)   XCENC  =       237.85647632
  PAW double counting   =     50857.52544405   -49155.47155640
  entropy T*S    EENTRO =        -0.04409105
  eigenvalues    EBANDS =      -591.97373953
  atomic energy  EATOM  =     46688.37031544
  Solvation  Ediel_sol  =         0.00000000
  ---------------------------------------------------
  free energy    TOTEN  =      -364.92048425 eV

  energy without entropy =     -364.87639320  energy(sigma->0) =     -364.90578723


--------------------------------------------------------------------------------------------------------




--------------------------------------- Iteration      1(   7)  ---------------------------------------


    POTLOK:  cpu time    0.3774: real time    0.3786
    SETDIJ:  cpu time    0.0323: real time    0.0324
    EDDIAG:  cpu time    7.4556: real time    7.4759
  RMM-DIIS:  cpu time   27.0689: real time   27.1435
    ORTHCH:  cpu time    0.6336: real time    0.6354
       DOS:  cpu time    0.0016: real time    0.0016
    CHARGE:  cpu time    3.2064: real time    3.2151
    MIXING:  cpu time    0.0090: real time    0.0090
    --------------------------------------------
      LOOP:  cpu time   38.7847: real time   38.8914

 eigenvalue-minimisations  :  6721
 total energy-change (2. order) :-0.1088255E+03  (-0.1280569E+02)
 number of electron     642.0000063 magnetization      46.7323270
 augmentation part      192.7584132 magnetization      34.9515473

 Broyden mixing:
  rms(total) = 0.98879E+01    rms(broyden)= 0.98879E+01
  rms(prec ) = 0.12244E+02
  weight for this iteration     100.00

 eigenvalues of (default mixing * dielectric matrix)
  average eigenvalue GAMMA=   1.0152
  1.7066  0.3238

 Free energy of the ion-electron system (eV)
  ---------------------------------------------------
  alpha Z        PSCENC =      2023.78361127
  Ewald energy   TEWEN  =    123984.33645401
  -Hartree energ DENC   =   -174952.81005768
  -exchange      EXHF   =         0.00000000
  -V(xc)+E(xc)   XCENC  =       232.87389126
  PAW double counting   =     56191.21576527   -54547.37353388
  entropy T*S    EENTRO =        -0.01922676
  eigenvalues    EBANDS =       -94.12318627
  atomic energy  EATOM  =     46688.37031544
  Solvation  Ediel_sol  =         0.00000000
  ---------------------------------------------------
  free energy    TOTEN  =      -473.74596734 eV

  energy without entropy =     -473.72674058  energy(sigma->0) =     -473.73955842


--------------------------------------------------------------------------------------------------------




--------------------------------------- Iteration      1(   8)  ---------------------------------------


    POTLOK:  cpu time    0.3599: real time    0.3611
    SETDIJ:  cpu time    0.0322: real time    0.0323
    EDDIAG:  cpu time    7.4594: real time    7.4798
  RMM-DIIS:  cpu time   27.3326: real time   27.4076
    ORTHCH:  cpu time    0.6306: real time    0.6323
       DOS:  cpu time    0.0015: real time    0.0015
    CHARGE:  cpu time    3.0938: real time    3.1024
    MIXING:  cpu time    0.0100: real time    0.0100
    --------------------------------------------
      LOOP:  cpu time   38.9200: real time   39.0270

 eigenvalue-minimisations  :  6748
 total energy-change (2. order) : 0.1048128E+03  (-0.5435343E+01)
 number of electron     642.0000061 magnetization      44.1812608
 augmentation part      198.1448074 magnetization      33.2381382

 Broyden mixing:
  rms(total) = 0.41580E+01    rms(broyden)= 0.41580E+01
  rms(prec ) = 0.50747E+01
  weight for this iteration     100.00

 eigenvalues of (default mixing * dielectric matrix)
  average eigenvalue GAMMA=   0.9637
  2.0513  0.5336  0.3061

 Free energy of the ion-electron system (eV)
  ---------------------------------------------------
  alpha Z        PSCENC =      2023.78361127
  Ewald energy   TEWEN  =    123984.33645401
  -Hartree energ DENC   =   -174478.07679193
  -exchange      EXHF   =         0.00000000
  -V(xc)+E(xc)   XCENC  =       235.00410914
  PAW double counting   =     59816.19904322   -58215.46703741
  entropy T*S    EENTRO =        -0.00886125
  eigenvalues    EBANDS =      -423.07404197
  atomic energy  EATOM  =     46688.37031544
  Solvation  Ediel_sol  =         0.00000000
  ---------------------------------------------------
  free energy    TOTEN  =      -368.93319949 eV

  energy without entropy =     -368.92433824  energy(sigma->0) =     -368.93024574


--------------------------------------------------------------------------------------------------------




--------------------------------------- Iteration      1(   9)  ---------------------------------------


    POTLOK:  cpu time    0.3727: real time    0.3793
    SETDIJ:  cpu time    0.0322: real time    0.0323
    EDDIAG:  cpu time    7.5027: real time    7.5234
  RMM-DIIS:  cpu time   27.1270: real time   27.2016
    ORTHCH:  cpu time    0.6300: real time    0.6318
       DOS:  cpu time    0.0016: real time    0.0016
    CHARGE:  cpu time    3.1196: real time    3.1282
    MIXING:  cpu time    0.0116: real time    0.0116
    --------------------------------------------
      LOOP:  cpu time   38.7973: real time   38.9098

 eigenvalue-minimisations  :  6741
 total energy-change (2. order) :-0.1732078E+02  (-0.2909407E+01)
 number of electron     642.0000054 magnetization      41.7964567
 augmentation part      197.9135243 magnetization      33.8077910

 Broyden mixing:
  rms(total) = 0.53811E+01    rms(broyden)= 0.53811E+01
  rms(prec ) = 0.82721E+01
  weight for this iteration     100.00

 eigenvalues of (default mixing * dielectric matrix)
  average eigenvalue GAMMA=   0.8517
  2.2343  0.6791  0.3227  0.1707

 Free energy of the ion-electron system (eV)
  ---------------------------------------------------
  alpha Z        PSCENC =      2023.78361127
  Ewald energy   TEWEN  =    123984.33645401
  -Hartree energ DENC   =   -174411.09351658
  -exchange      EXHF   =         0.00000000
  -V(xc)+E(xc)   XCENC  =       234.17694338
  PAW double counting   =     60440.84355591   -58844.77899305
  entropy T*S    EENTRO =         0.01178483
  eigenvalues    EBANDS =      -501.90413274
  atomic energy  EATOM  =     46688.37031544
  Solvation  Ediel_sol  =         0.00000000
  ---------------------------------------------------
  free energy    TOTEN  =      -386.25397754 eV

  energy without entropy =     -386.26576237  energy(sigma->0) =     -386.25790581


--------------------------------------------------------------------------------------------------------




--------------------------------------- Iteration      1(  10)  ---------------------------------------


    POTLOK:  cpu time    0.3839: real time    0.3848
    SETDIJ:  cpu time    0.0454: real time    0.0459
    EDDIAG:  cpu time    7.4811: real time    7.5017
  RMM-DIIS:  cpu time   27.3592: real time   27.4342
    ORTHCH:  cpu time    0.6314: real time    0.6333
       DOS:  cpu time    0.0016: real time    0.0016
    CHARGE:  cpu time    3.1029: real time    3.1115
    MIXING:  cpu time    0.0098: real time    0.0098
    --------------------------------------------
      LOOP:  cpu time   39.0154: real time   39.1226

 eigenvalue-minimisations  :  6760
 total energy-change (2. order) : 0.2069287E+02  (-0.1257888E+01)
 number of electron     642.0000059 magnetization      39.5056463
 augmentation part      197.5880687 magnetization      30.0423709

 Broyden mixing:
  rms(total) = 0.35230E+01    rms(broyden)= 0.35230E+01
  rms(prec ) = 0.43743E+01
  weight for this iteration     100.00

 eigenvalues of (default mixing * dielectric matrix)
  average eigenvalue GAMMA=   0.7452
  2.2673  0.6984  0.3706  0.2587  0.1307

 Free energy of the ion-electron system (eV)
  ---------------------------------------------------
  alpha Z        PSCENC =      2023.78361127
  Ewald energy   TEWEN  =    123984.33645401
  -Hartree energ DENC   =   -174493.75140353
  -exchange      EXHF   =         0.00000000
  -V(xc)+E(xc)   XCENC  =       233.46772935
  PAW double counting   =     60831.80661580   -59237.73792820
  entropy T*S    EENTRO =        -0.00016306
  eigenvalues    EBANDS =      -395.83633650
  atomic energy  EATOM  =     46688.37031544
  Solvation  Ediel_sol  =         0.00000000
  ---------------------------------------------------
  free energy    TOTEN  =      -365.56110542 eV

  energy without entropy =     -365.56094236  energy(sigma->0) =     -365.56105106


--------------------------------------------------------------------------------------------------------




--------------------------------------- Iteration      1(  11)  ---------------------------------------


    POTLOK:  cpu time    0.3785: real time    0.3797
    SETDIJ:  cpu time    0.0323: real time    0.0324
    EDDIAG:  cpu time    7.4583: real time    7.4783
  RMM-DIIS:  cpu time   27.4245: real time   27.5001
    ORTHCH:  cpu time    0.6332: real time    0.6347
       DOS:  cpu time    0.0016: real time    0.0016
    CHARGE:  cpu time    3.0837: real time    3.0921
    MIXING:  cpu time    0.0110: real time    0.0110
    --------------------------------------------
      LOOP:  cpu time   39.0230: real time   39.1298

 eigenvalue-minimisations  :  6749
 total energy-change (2. order) : 0.9155742E+01  (-0.5490683E+00)
 number of electron     642.0000057 magnetization      38.1813935
 augmentation part      197.7060193 magnetization      27.5838432

 Broyden mixing:
  rms(total) = 0.15310E+01    rms(broyden)= 0.15310E+01
  rms(prec ) = 0.17592E+01
  weight for this iteration     100.00

 eigenvalues of (default mixing * dielectric matrix)
  average eigenvalue GAMMA=   0.6945
  2.1844  0.6247  0.6247  0.3030  0.3030  0.1274

 Free energy of the ion-electron system (eV)
  ---------------------------------------------------
  alpha Z        PSCENC =      2023.78361127
  Ewald energy   TEWEN  =    123984.33645401
  -Hartree energ DENC   =   -174492.75729359
  -exchange      EXHF   =         0.00000000
  -V(xc)+E(xc)   XCENC  =       232.89859429
  PAW double counting   =     60988.46947996   -59395.33705223
  entropy T*S    EENTRO =        -0.00198098
  eigenvalues    EBANDS =      -386.16749126
  atomic energy  EATOM  =     46688.37031544
  Solvation  Ediel_sol  =         0.00000000
  ---------------------------------------------------
  free energy    TOTEN  =      -356.40536309 eV

  energy without entropy =     -356.40338210  energy(sigma->0) =     -356.40470276


--------------------------------------------------------------------------------------------------------




--------------------------------------- Iteration      1(  12)  ---------------------------------------


    POTLOK:  cpu time    0.3767: real time    0.3778
    SETDIJ:  cpu time    0.0323: real time    0.0324
    EDDIAG:  cpu time    7.4613: real time    7.4816
  RMM-DIIS:  cpu time   27.4674: real time   27.5482
    ORTHCH:  cpu time    0.6325: real time    0.6340
       DOS:  cpu time    0.0016: real time    0.0016
    CHARGE:  cpu time    3.1089: real time    3.1163
    MIXING:  cpu time    0.0115: real time    0.0115
    --------------------------------------------
      LOOP:  cpu time   39.0922: real time   39.2035

 eigenvalue-minimisations  :  6760
 total energy-change (2. order) :-0.2231620E+01  (-0.1959102E+00)
 number of electron     642.0000056 magnetization      36.5463803
 augmentation part      197.5043984 magnetization      27.3042324

 Broyden mixing:
  rms(total) = 0.14607E+01    rms(broyden)= 0.14607E+01
  rms(prec ) = 0.16224E+01
  weight for this iteration     100.00

 eigenvalues of (default mixing * dielectric matrix)
  average eigenvalue GAMMA=   0.6723
  2.1621  0.6904  0.6904  0.5078  0.2645  0.2645  0.1264

 Free energy of the ion-electron system (eV)
  ---------------------------------------------------
  alpha Z        PSCENC =      2023.78361127
  Ewald energy   TEWEN  =    123984.33645401
  -Hartree energ DENC   =   -174473.23370924
  -exchange      EXHF   =         0.00000000
  -V(xc)+E(xc)   XCENC  =       232.07528947
  PAW double counting   =     60740.52422232   -59144.52392685
  entropy T*S    EENTRO =         0.02656238
  eigenvalues    EBANDS =      -409.99580148
  atomic energy  EATOM  =     46688.37031544
  Solvation  Ediel_sol  =         0.00000000
  ---------------------------------------------------
  free energy    TOTEN  =      -358.63698268 eV

  energy without entropy =     -358.66354506  energy(sigma->0) =     -358.64583680


--------------------------------------------------------------------------------------------------------




--------------------------------------- Iteration      1(  13)  ---------------------------------------


    POTLOK:  cpu time    0.3899: real time    0.3910
    SETDIJ:  cpu time    0.0396: real time    0.0397
    EDDIAG:  cpu time    7.5423: real time    7.5604
  RMM-DIIS:  cpu time   27.4271: real time   27.4919
    ORTHCH:  cpu time    0.6298: real time    0.6313
       DOS:  cpu time    0.0015: real time    0.0015
    CHARGE:  cpu time    3.0865: real time    3.0938
    MIXING:  cpu time    0.0108: real time    0.0109
    --------------------------------------------
      LOOP:  cpu time   39.1276: real time   39.2205

 eigenvalue-minimisations  :  6761
 total energy-change (2. order) :-0.4523622E+00  (-0.7238280E-01)
 number of electron     642.0000056 magnetization      33.1155529
 augmentation part      197.4936697 magnetization      23.9585247

 Broyden mixing:
  rms(total) = 0.10397E+01    rms(broyden)= 0.10397E+01
  rms(prec ) = 0.10956E+01
  weight for this iteration     100.00

 eigenvalues of (default mixing * dielectric matrix)
  average eigenvalue GAMMA=   0.7030
  2.1919  0.8238  0.8238  0.8081  0.1265  0.2996  0.2996  0.2503

 Free energy of the ion-electron system (eV)
  ---------------------------------------------------
  alpha Z        PSCENC =      2023.78361127
  Ewald energy   TEWEN  =    123984.33645401
  -Hartree energ DENC   =   -174481.52123865
  -exchange      EXHF   =         0.00000000
  -V(xc)+E(xc)   XCENC  =       231.47961110
  PAW double counting   =     60694.61541678   -59098.24920331
  entropy T*S    EENTRO =         0.02594440
  eigenvalues    EBANDS =      -401.93025587
  atomic energy  EATOM  =     46688.37031544
  Solvation  Ediel_sol  =         0.00000000
  ---------------------------------------------------
  free energy    TOTEN  =      -359.08934483 eV

  energy without entropy =     -359.11528923  energy(sigma->0) =     -359.09799296


--------------------------------------------------------------------------------------------------------




--------------------------------------- Iteration      1(  14)  ---------------------------------------


    POTLOK:  cpu time    0.3810: real time    0.3819
    SETDIJ:  cpu time    0.0317: real time    0.0317
    EDDIAG:  cpu time    7.4579: real time    7.4757
  RMM-DIIS:  cpu time   27.4235: real time   27.4883
    ORTHCH:  cpu time    0.6342: real time    0.6357
       DOS:  cpu time    0.0017: real time    0.0017
    CHARGE:  cpu time    3.0843: real time    3.0916
    MIXING:  cpu time    0.0118: real time    0.0118
    --------------------------------------------
      LOOP:  cpu time   39.0260: real time   39.1184

 eigenvalue-minimisations  :  6754
 total energy-change (2. order) :-0.2199101E+01  (-0.8620719E-01)
 number of electron     642.0000056 magnetization      27.4921025
 augmentation part      197.4108811 magnetization      18.2329261

 Broyden mixing:
  rms(total) = 0.90498E+00    rms(broyden)= 0.90498E+00
  rms(prec ) = 0.96129E+00
  weight for this iteration     100.00

 eigenvalues of (default mixing * dielectric matrix)
  average eigenvalue GAMMA=   0.7403
  2.2679  1.0670  1.0670  0.9004  0.4126  0.1265  0.2766  0.2766  0.2676

 Free energy of the ion-electron system (eV)
  ---------------------------------------------------
  alpha Z        PSCENC =      2023.78361127
  Ewald energy   TEWEN  =    123984.33645401
  -Hartree energ DENC   =   -174487.91153606
  -exchange      EXHF   =         0.00000000
  -V(xc)+E(xc)   XCENC  =       230.22505764
  PAW double counting   =     60737.27255840   -59141.53609640
  entropy T*S    EENTRO =         0.01642149
  eigenvalues    EBANDS =      -395.84523138
  atomic energy  EATOM  =     46688.37031544
  Solvation  Ediel_sol  =         0.00000000
  ---------------------------------------------------
  free energy    TOTEN  =      -361.28844558 eV

  energy without entropy =     -361.30486707  energy(sigma->0) =     -361.29391941


--------------------------------------------------------------------------------------------------------




--------------------------------------- Iteration      1(  15)  ---------------------------------------


    POTLOK:  cpu time    0.3777: real time    0.3786
    SETDIJ:  cpu time    0.0319: real time    0.0320
    EDDIAG:  cpu time    7.4582: real time    7.4761
  RMM-DIIS:  cpu time   27.5345: real time   27.6011
    ORTHCH:  cpu time    0.6306: real time    0.6321
       DOS:  cpu time    0.0016: real time    0.0016
    CHARGE:  cpu time    3.0711: real time    3.0784
    MIXING:  cpu time    0.0115: real time    0.0115
    --------------------------------------------
      LOOP:  cpu time   39.1172: real time   39.2115

 eigenvalue-minimisations  :  6748
 total energy-change (2. order) :-0.4175121E+01  (-0.1645686E+00)
 number of electron     642.0000057 magnetization      24.2406897
 augmentation part      197.2649710 magnetization      15.6843753

 Broyden mixing:
  rms(total) = 0.71407E+00    rms(broyden)= 0.71407E+00
  rms(prec ) = 0.77815E+00
  weight for this iteration     100.00

 eigenvalues of (default mixing * dielectric matrix)
  average eigenvalue GAMMA=   0.7547
  2.0690  1.9339  0.8121  0.8121  0.5373  0.4557  0.1265  0.2781  0.2781  0.2442

 Free energy of the ion-electron system (eV)
  ---------------------------------------------------
  alpha Z        PSCENC =      2023.78361127
  Ewald energy   TEWEN  =    123984.33645401
  -Hartree energ DENC   =   -174510.84310650
  -exchange      EXHF   =         0.00000000
  -V(xc)+E(xc)   XCENC  =       227.57753642
  PAW double counting   =     60798.09869755   -59203.12856807
  entropy T*S    EENTRO =        -0.02729934
  eigenvalues    EBANDS =      -373.63120689
  atomic energy  EATOM  =     46688.37031544
  Solvation  Ediel_sol  =         0.00000000
  ---------------------------------------------------
  free energy    TOTEN  =      -365.46356610 eV

  energy without entropy =     -365.43626677  energy(sigma->0) =     -365.45446633


--------------------------------------------------------------------------------------------------------




--------------------------------------- Iteration      1(  16)  ---------------------------------------


    POTLOK:  cpu time    0.3786: real time    0.3795
    SETDIJ:  cpu time    0.0323: real time    0.0324
    EDDIAG:  cpu time    7.5603: real time    7.5814
  RMM-DIIS:  cpu time   27.4159: real time   27.4917
    ORTHCH:  cpu time    0.7425: real time    0.7443
       DOS:  cpu time    0.0016: real time    0.0016
    CHARGE:  cpu time    3.0603: real time    3.0686
    MIXING:  cpu time    0.0120: real time    0.0120
    --------------------------------------------
      LOOP:  cpu time   39.2036: real time   39.3115

 eigenvalue-minimisations  :  6748
 total energy-change (2. order) :-0.2786126E+01  (-0.1255574E+00)
 number of electron     642.0000057 magnetization      20.8993505
 augmentation part      197.1346315 magnetization      12.9988105

 Broyden mixing:
  rms(total) = 0.48393E+00    rms(broyden)= 0.48393E+00
  rms(prec ) = 0.51704E+00
  weight for this iteration     100.00

 eigenvalues of (default mixing * dielectric matrix)
  average eigenvalue GAMMA=   0.8317
  2.4931  2.4931  0.7605  0.7605  0.7462  0.6313  0.1265  0.3404  0.2794  0.2794
  0.2387

 Free energy of the ion-electron system (eV)
  ---------------------------------------------------
  alpha Z        PSCENC =      2023.78361127
  Ewald energy   TEWEN  =    123984.33645401
  -Hartree energ DENC   =   -174513.70091002
  -exchange      EXHF   =         0.00000000
  -V(xc)+E(xc)   XCENC  =       225.81499913
  PAW double counting   =     60685.54804899   -59089.37624285
  entropy T*S    EENTRO =        -0.01676759
  eigenvalues    EBANDS =      -373.00920085
  atomic energy  EATOM  =     46688.37031544
  Solvation  Ediel_sol  =         0.00000000
  ---------------------------------------------------
  free energy    TOTEN  =      -368.24969247 eV

  energy without entropy =     -368.23292488  energy(sigma->0) =     -368.24410327


--------------------------------------------------------------------------------------------------------




--------------------------------------- Iteration      1(  17)  ---------------------------------------


    POTLOK:  cpu time    0.3763: real time    0.3774
    SETDIJ:  cpu time    0.0332: real time    0.0333
    EDDIAG:  cpu time    7.4530: real time    7.4735
  RMM-DIIS:  cpu time   27.5159: real time   27.6011
    ORTHCH:  cpu time    0.6331: real time    0.6350
       DOS:  cpu time    0.0016: real time    0.0016
    CHARGE:  cpu time    3.0715: real time    3.0800
    MIXING:  cpu time    0.0135: real time    0.0135
    --------------------------------------------
      LOOP:  cpu time   39.0982: real time   39.2154

 eigenvalue-minimisations  :  6742
 total energy-change (2. order) :-0.2579013E+01  (-0.1219351E+00)
 number of electron     642.0000057 magnetization      18.5036205
 augmentation part      197.0664118 magnetization      11.4011622

 Broyden mixing:
  rms(total) = 0.49569E+00    rms(broyden)= 0.49569E+00
  rms(prec ) = 0.55205E+00
  weight for this iteration     100.00

 eigenvalues of (default mixing * dielectric matrix)
  average eigenvalue GAMMA=   0.8684
  3.2444  2.4525  0.8727  0.8727  0.6956  0.6956  0.1265  0.3798  0.2866  0.2866
  0.2672  0.2404

 Free energy of the ion-electron system (eV)
  ---------------------------------------------------
  alpha Z        PSCENC =      2023.78361127
  Ewald energy   TEWEN  =    123984.33645401
  -Hartree energ DENC   =   -174507.62490866
  -exchange      EXHF   =         0.00000000
  -V(xc)+E(xc)   XCENC  =       224.15911592
  PAW double counting   =     60564.18279668   -58966.83072047
  entropy T*S    EENTRO =        -0.00420711
  eigenvalues    EBANDS =      -381.20116294
  atomic energy  EATOM  =     46688.37031544
  Solvation  Ediel_sol  =         0.00000000
  ---------------------------------------------------
  free energy    TOTEN  =      -370.82870586 eV

  energy without entropy =     -370.82449875  energy(sigma->0) =     -370.82730349


--------------------------------------------------------------------------------------------------------




--------------------------------------- Iteration      1(  18)  ---------------------------------------


    POTLOK:  cpu time    0.3778: real time    0.3787
    SETDIJ:  cpu time    0.0330: real time    0.0331
    EDDIAG:  cpu time    7.4509: real time    7.4715
  RMM-DIIS:  cpu time   27.4568: real time   27.5322
    ORTHCH:  cpu time    0.6336: real time    0.6353
       DOS:  cpu time    0.0016: real time    0.0016
    CHARGE:  cpu time    3.0748: real time    3.0832
    MIXING:  cpu time    0.0139: real time    0.0140
    --------------------------------------------
      LOOP:  cpu time   39.0425: real time   39.1496

 eigenvalue-minimisations  :  6744
 total energy-change (2. order) :-0.1243017E+01  (-0.6404475E-01)
 number of electron     642.0000057 magnetization      16.0780132
 augmentation part      197.0543189 magnetization       9.8821965

 Broyden mixing:
  rms(total) = 0.42720E+00    rms(broyden)= 0.42720E+00
  rms(prec ) = 0.46007E+00
  weight for this iteration     100.00

 eigenvalues of (default mixing * dielectric matrix)
  average eigenvalue GAMMA=   0.9015
  3.9067  2.4068  1.0479  1.0479  0.6297  0.6297  0.5532  0.3587  0.1265  0.2727
  0.2727  0.2480  0.2196

 Free energy of the ion-electron system (eV)
  ---------------------------------------------------
  alpha Z        PSCENC =      2023.78361127
  Ewald energy   TEWEN  =    123984.33645401
  -Hartree energ DENC   =   -174500.56941015
  -exchange      EXHF   =         0.00000000
  -V(xc)+E(xc)   XCENC  =       223.18043978
  PAW double counting   =     60526.38793276   -58928.79105251
  entropy T*S    EENTRO =        -0.01562784
  eigenvalues    EBANDS =      -388.75438549
  atomic energy  EATOM  =     46688.37031544
  Solvation  Ediel_sol  =         0.00000000
  ---------------------------------------------------
  free energy    TOTEN  =      -372.07172273 eV

  energy without entropy =     -372.05609489  energy(sigma->0) =     -372.06651345


--------------------------------------------------------------------------------------------------------




--------------------------------------- Iteration      1(  19)  ---------------------------------------


    POTLOK:  cpu time    0.3774: real time    0.3783
    SETDIJ:  cpu time    0.0331: real time    0.0332
    EDDIAG:  cpu time    7.5553: real time    7.5771
  RMM-DIIS:  cpu time   27.3754: real time   27.4443
    ORTHCH:  cpu time    0.7241: real time    0.7260
       DOS:  cpu time    0.0015: real time    0.0015
    CHARGE:  cpu time    3.0743: real time    3.0826
    MIXING:  cpu time    0.0135: real time    0.0135
    --------------------------------------------
      LOOP:  cpu time   39.1546: real time   39.2566

 eigenvalue-minimisations  :  6734
 total energy-change (2. order) :-0.8026878E+00  (-0.4004372E-01)
 number of electron     642.0000057 magnetization      13.0753514
 augmentation part      197.0872145 magnetization       7.3506699

 Broyden mixing:
  rms(total) = 0.34542E+00    rms(broyden)= 0.34542E+00
  rms(prec ) = 0.37465E+00
  weight for this iteration     100.00

 eigenvalues of (default mixing * dielectric matrix)
  average eigenvalue GAMMA=   0.9719
  4.9326  2.2968  1.2512  1.2512  0.6581  0.6581  0.6811  0.4143  0.1265  0.3202
  0.2796  0.2796  0.2402  0.2166

 Free energy of the ion-electron system (eV)
  ---------------------------------------------------
  alpha Z        PSCENC =      2023.78361127
  Ewald energy   TEWEN  =    123984.33645401
  -Hartree energ DENC   =   -174487.16679304
  -exchange      EXHF   =         0.00000000
  -V(xc)+E(xc)   XCENC  =       222.41065391
  PAW double counting   =     60522.87927136   -58925.43014977
  entropy T*S    EENTRO =        -0.01409631
  eigenvalues    EBANDS =      -402.04367744
  atomic energy  EATOM  =     46688.37031544
  Solvation  Ediel_sol  =         0.00000000
  ---------------------------------------------------
  free energy    TOTEN  =      -372.87441058 eV

  energy without entropy =     -372.86031427  energy(sigma->0) =     -372.86971181


--------------------------------------------------------------------------------------------------------




--------------------------------------- Iteration      1(  20)  ---------------------------------------


    POTLOK:  cpu time    0.3794: real time    0.3803
    SETDIJ:  cpu time    0.0332: real time    0.0333
    EDDIAG:  cpu time    7.4539: real time    7.4746
  RMM-DIIS:  cpu time   27.5008: real time   27.5762
    ORTHCH:  cpu time    0.6335: real time    0.6350
       DOS:  cpu time    0.0015: real time    0.0016
    CHARGE:  cpu time    3.0861: real time    3.0944
    MIXING:  cpu time    0.0147: real time    0.0147
    --------------------------------------------
      LOOP:  cpu time   39.1031: real time   39.2100

 eigenvalue-minimisations  :  6746
 total energy-change (2. order) :-0.4050100E+00  (-0.3061863E-01)
 number of electron     642.0000057 magnetization      10.7563089
 augmentation part      197.1446462 magnetization       5.9771622

 Broyden mixing:
  rms(total) = 0.31620E+00    rms(broyden)= 0.31620E+00
  rms(prec ) = 0.35983E+00
  weight for this iteration     100.00

 eigenvalues of (default mixing * dielectric matrix)
  average eigenvalue GAMMA=   1.0157
  5.8258  2.2036  1.4111  1.4111  0.7242  0.7242  0.7033  0.4720  0.1265  0.3394
  0.2814  0.2814  0.2780  0.2431  0.2109

 Free energy of the ion-electron system (eV)
  ---------------------------------------------------
  alpha Z        PSCENC =      2023.78361127
  Ewald energy   TEWEN  =    123984.33645401
  -Hartree energ DENC   =   -174469.58133452
  -exchange      EXHF   =         0.00000000
  -V(xc)+E(xc)   XCENC  =       221.84852771
  PAW double counting   =     60545.44542558   -58948.44966628
  entropy T*S    EENTRO =        -0.01771821
  eigenvalues    EBANDS =      -419.01503553
  atomic energy  EATOM  =     46688.37031544
  Solvation  Ediel_sol  =         0.00000000
  ---------------------------------------------------
  free energy    TOTEN  =      -373.27942053 eV

  energy without entropy =     -373.26170232  energy(sigma->0) =     -373.27351446


--------------------------------------------------------------------------------------------------------




--------------------------------------- Iteration      1(  21)  ---------------------------------------


    POTLOK:  cpu time    0.3781: real time    0.3793
    SETDIJ:  cpu time    0.0331: real time    0.0332
    EDDIAG:  cpu time    7.4822: real time    7.5029
  RMM-DIIS:  cpu time   27.4851: real time   27.5605
    ORTHCH:  cpu time    0.6307: real time    0.6322
       DOS:  cpu time    0.0016: real time    0.0016
    CHARGE:  cpu time    3.1144: real time    3.1229
    MIXING:  cpu time    0.0147: real time    0.0150
    --------------------------------------------
      LOOP:  cpu time   39.1400: real time   39.2477

 eigenvalue-minimisations  :  6750
 total energy-change (2. order) :-0.1077868E+00  (-0.1096609E-01)
 number of electron     642.0000057 magnetization       9.2300403
 augmentation part      197.1771690 magnetization       5.0917921

 Broyden mixing:
  rms(total) = 0.21972E+00    rms(broyden)= 0.21972E+00
  rms(prec ) = 0.24916E+00
  weight for this iteration     100.00

 eigenvalues of (default mixing * dielectric matrix)
  average eigenvalue GAMMA=   1.0647
  6.8235  2.1490  1.5437  1.5437  0.7990  0.7990  0.6757  0.4768  0.4768  0.1265
  0.3295  0.2745  0.2745  0.2918  0.2403  0.2115

 Free energy of the ion-electron system (eV)
  ---------------------------------------------------
  alpha Z        PSCENC =      2023.78361127
  Ewald energy   TEWEN  =    123984.33645401
  -Hartree energ DENC   =   -174456.98972089
  -exchange      EXHF   =         0.00000000
  -V(xc)+E(xc)   XCENC  =       221.53936295
  PAW double counting   =     60566.20036106   -58969.51986435
  entropy T*S    EENTRO =        -0.02134193
  eigenvalues    EBANDS =      -431.08638486
  atomic energy  EATOM  =     46688.37031544
  Solvation  Ediel_sol  =         0.00000000
  ---------------------------------------------------
  free energy    TOTEN  =      -373.38720730 eV

  energy without entropy =     -373.36586537  energy(sigma->0) =     -373.38009333


--------------------------------------------------------------------------------------------------------




--------------------------------------- Iteration      1(  22)  ---------------------------------------


    POTLOK:  cpu time    0.3784: real time    0.3793
[...]
 -0.000   0.000  -0.000  -0.000  -0.000  -0.000  -0.000   0.000   0.000   0.000  -0.000  -0.000   0.000  -0.000   0.000  -0.000


------------------------ aborting loop because EDIFF is reached ----------------------------------------


    CHARGE:  cpu time    3.0824: real time    3.0908
    FORLOC:  cpu time    0.0644: real time    0.0646
    FORNL :  cpu time   12.4121: real time   12.4480
    STRESS:  cpu time   36.7958: real time   36.8974
    FORCOR:  cpu time    0.4061: real time    0.4094
    FORHAR:  cpu time    0.1046: real time    0.1052
    MIXING:  cpu time    0.0393: real time    0.0394
    OFIELD:  cpu time    0.0001: real time    0.0003

 ---------------------------------------------------------------------------------------------

         DFTD3 V3.0 Rev 1        
 IVDW         = 11
 DF pbe       
 parameters
 VDW_S6       =    1.0000
 VDW_S8       =    0.7220
 VDW_SR       =    1.2170
 rs18     =    1.0000
 alpha6   =   14.0000
 alpha8   =   16.0000
 k1-k3    =   16.0000    1.3333   -4.0000
 VDW_RADIUS   =   50.2022 A
 VDW_CNRADIUS =   21.1671 A
 Edisp (eV)  -38.69315

 E6    (eV) :   -14.2991
 E8    (eV) :   -24.3940
 % E8        : 63.04
    FORVDW:  cpu time    0.3240: real time    0.3260

  FORCE on cell =-STRESS in cart. coord.  units (eV):
  Direction    XX          YY          ZZ          XY          YZ          ZX
  --------------------------------------------------------------------------------------
  Alpha Z  2023.78361  2023.78361  2023.78361
  Ewald  161009.79246160994.48120************   -13.38963    -3.34028     6.02453
  Hartree171997.65332171992.81507************    -4.33813    -1.79015     3.09618
  E(xc)   -2861.53398 -2861.59556 -2886.88530    -0.05654     0.00049     0.00139
  Local  ************************354917.23211    14.91573     4.89815    -8.61670
  n-local   564.94269   564.46334   314.81341    -0.43884    -0.48294     0.84918
  augment  3256.99251  3257.79955  3526.50874     0.73745     0.22912    -0.43919
  Kinetic  9173.44507  9175.94729  9746.76526     2.20178     0.51743    -0.98038
  Fock        0.00000     0.00000     0.00000     0.00000     0.00000     0.00000
  vdW       -53.13370   -53.11876   -28.35706     0.01761     0.01175    -0.01845
  -------------------------------------------------------------------------------------
  Total      78.28889    77.86316    -0.18804    -0.35057     0.04355    -0.08344
  in kB      64.94149    64.58834    -0.15598    -0.29081     0.03613    -0.06921
  external pressure =       43.12 kB  Pullay stress =        0.00 kB


 VOLUME and BASIS-vectors are now :
 -----------------------------------------------------------------------------
  energy-cutoff  :      550.00
  volume of cell :     1931.47
      direct lattice vectors                 reciprocal lattice vectors
    10.560000420  0.000000000  0.000000000     0.094696966  0.054673319  0.000000000
    -5.280000210  9.145228627  0.000000000     0.000000000  0.109346638  0.000000000
     0.000000000  0.000000000 20.000000000     0.000000000  0.000000000  0.050000000

  length of vectors
    10.560000420 10.560000420 20.000000000     0.109346638  0.109346638  0.050000000


 FORCES acting on ions
    electron-ion (+dipol)            ewald-force                    non-local-force                 convergence-correction
 -----------------------------------------------------------------------------------------------
   0.118E+00 -.171E+02 0.231E+04   -.420E-01 0.172E+02 -.231E+04   -.576E-01 0.755E-01 -.243E+00   -.828E-05 -.464E-04 -.978E-03
   0.752E+01 -.233E+02 0.765E+03   -.763E+01 0.236E+02 -.765E+03   0.127E+00 -.283E+00 -.503E+00   0.498E-04 -.263E-03 0.642E-03
   -.530E+01 0.171E+01 -.908E+03   0.553E+01 -.171E+01 0.908E+03   -.274E+00 -.297E-01 0.144E+00   -.216E-03 -.656E-04 0.533E-02
   0.420E+01 0.392E+02 -.224E+04   -.408E+01 -.386E+02 0.224E+04   -.152E+00 -.524E+00 -.731E-01   -.332E-03 0.718E-03 0.293E-02
   -.152E+02 -.879E+01 0.230E+04   0.154E+02 0.891E+01 -.230E+04   -.693E-01 -.275E-01 -.208E-01   0.113E-03 0.206E-03 -.123E-02
   -.141E+01 0.819E+00 0.635E+03   0.138E+01 -.802E+00 -.634E+03   0.397E-01 -.241E-01 -.136E+01   0.279E-03 0.500E-03 0.359E-03
   0.430E+00 -.722E+01 -.767E+03   -.398E+00 0.781E+01 0.767E+03   -.422E-01 -.556E+00 0.334E-01   0.400E-03 -.529E-03 0.448E-02
   0.379E+02 0.193E+02 -.229E+04   -.374E+02 -.191E+02 0.229E+04   -.496E+00 -.127E+00 0.264E+00   -.378E-03 0.307E-03 0.322E-02
   -.572E+00 -.247E+02 0.228E+04   0.582E+00 0.249E+02 -.228E+04   0.612E-02 0.593E-02 0.116E+00   -.124E-04 0.285E-03 -.109E-02
   -.237E+02 0.552E+01 0.767E+03   0.240E+02 -.552E+01 -.766E+03   -.312E+00 -.229E-01 -.522E+00   0.325E-04 0.674E-03 0.317E-03
   0.127E+01 -.168E+01 -.743E+03   -.136E+01 0.205E+01 0.742E+03   0.106E+00 -.366E+00 0.237E+00   -.723E-04 -.300E-03 0.448E-02
   0.144E+02 0.644E+02 -.239E+04   -.151E+02 -.655E+02 0.239E+04   0.747E+00 0.107E+01 0.205E+00   -.441E-03 0.233E-03 0.189E-02
   -.220E+00 -.178E+02 0.231E+04   0.135E+00 0.179E+02 -.231E+04   0.548E-01 0.928E-01 -.271E+00   0.204E-03 -.146E-03 -.754E-03
   -.720E+01 -.230E+02 0.769E+03   0.738E+01 0.233E+02 -.768E+03   -.183E+00 -.281E+00 -.509E+00   0.471E-03 -.470E-04 0.381E-03
   0.329E+01 -.188E+01 -.928E+03   -.340E+01 0.195E+01 0.928E+03   0.162E+00 -.932E-01 0.397E+00   0.533E-03 -.251E-03 0.476E-02
   -.300E+01 0.357E+02 -.223E+04   0.279E+01 -.355E+02 0.223E+04   0.233E+00 -.207E+00 0.360E-01   0.229E-03 0.333E-03 0.274E-02
   -.164E+01 -.176E+01 0.231E+04   0.161E+01 0.176E+01 -.231E+04   0.102E-01 0.114E-01 -.281E+00   0.595E-04 -.583E-03 -.805E-03
   -.504E+01 -.307E+01 0.795E+03   0.519E+01 0.317E+01 -.795E+03   -.161E+00 -.108E+00 -.437E+00   -.215E-03 -.301E-05 0.259E-03
   0.209E+01 -.310E+00 -.742E+03   -.246E+01 0.201E+00 0.742E+03   0.370E+00 0.929E-01 0.236E+00   0.142E-03 0.419E-03 0.479E-02
   0.778E-01 0.483E+01 -.227E+04   -.781E-01 -.485E+01 0.227E+04   0.966E-02 0.213E-01 0.542E-01   0.267E-03 0.433E-03 0.278E-02
   0.150E+02 -.866E+01 0.230E+04   -.152E+02 0.879E+01 -.230E+04   0.641E-01 -.372E-01 0.670E-01   -.135E-03 0.136E-03 -.102E-02
   0.762E+00 0.756E+01 0.812E+03   -.760E+00 -.756E+01 -.812E+03   -.426E-02 -.140E-01 -.240E+00   -.345E-03 0.822E-03 0.664E-03
   -.198E+00 0.106E+00 -.744E+03   0.201E+00 -.108E+00 0.744E+03   0.313E-02 -.812E-03 0.435E+00   -.410E-03 -.166E-04 0.508E-02
   -.463E+02 0.267E+02 -.228E+04   0.463E+02 -.267E+02 0.228E+04   -.365E-01 0.193E-01 -.970E+00   0.454E-03 0.264E-04 0.263E-02
   0.728E+00 0.232E+01 0.231E+04   -.738E+00 -.229E+01 -.231E+04   -.492E-02 -.150E-01 -.281E+00   0.378E-04 0.973E-04 -.111E-02
   0.239E+02 0.515E+01 0.765E+03   -.242E+02 -.519E+01 -.765E+03   0.308E+00 0.314E-01 -.503E+00   0.766E-04 0.712E-03 0.597E-03
   -.158E+01 -.933E+00 -.738E+03   0.165E+01 0.112E+01 0.737E+03   -.866E-01 -.189E+00 0.431E+00   0.792E-04 -.175E-03 0.502E-02
   -.432E+01 -.254E+01 -.227E+04   0.433E+01 0.255E+01 0.227E+04   -.770E-02 -.180E-01 0.553E-01   0.312E-03 0.159E-03 0.301E-02
   0.173E+01 -.973E+00 0.231E+04   -.169E+01 0.953E+00 -.231E+04   -.637E-02 0.343E-02 -.284E+00   -.255E-03 -.428E-03 -.109E-02
   0.463E+01 -.268E+01 0.791E+03   -.483E+01 0.280E+01 -.791E+03   0.213E+00 -.122E+00 -.499E+00   -.294E-03 -.212E-03 0.583E-03
   -.123E+01 -.111E+01 -.736E+03   0.141E+01 0.101E+01 0.736E+03   -.193E+00 0.849E-01 0.396E+00   -.538E-03 0.572E-03 0.520E-02
   -.730E+00 0.298E+00 -.227E+04   0.805E+00 -.342E+00 0.227E+04   -.122E+00 0.716E-01 0.380E-01   -.167E-03 0.741E-03 0.305E-02
   -.149E+02 0.857E+01 0.231E+04   0.150E+02 -.849E+01 -.231E+04   0.363E-01 -.936E-01 -.292E+00   0.101E-03 0.883E-04 -.839E-03
   -.166E+02 0.178E+02 0.767E+03   0.168E+02 -.180E+02 -.766E+03   -.137E+00 0.279E+00 -.523E+00   0.164E-03 0.482E-03 0.194E-03
   0.227E+00 0.304E+00 -.692E+03   -.883E-01 -.222E+00 0.692E+03   -.123E+00 -.755E-01 0.503E+00   -.293E-04 -.159E-03 0.395E-02
   0.341E+02 -.163E+02 -.225E+04   -.336E+02 0.161E+02 0.225E+04   -.460E+00 0.129E+00 0.222E-01   0.154E-03 -.786E-03 0.289E-02
   -.402E-01 0.193E-01 0.232E+04   0.451E-01 -.216E-01 -.232E+04   0.122E-01 -.751E-02 -.418E+00   -.575E-05 -.130E-03 -.649E-03
   -.614E+01 -.441E+01 0.812E+03   0.614E+01 0.441E+01 -.812E+03   0.850E-02 0.100E-01 -.239E+00   0.533E-04 -.463E-03 0.599E-03
   -.242E+01 0.142E+01 -.768E+03   0.292E+01 -.170E+01 0.768E+03   -.469E+00 0.271E+00 -.348E-02   -.692E-03 0.447E-03 0.459E-02
   -.793E+00 0.491E+00 -.222E+04   0.781E+00 -.485E+00 0.222E+04   0.391E-02 -.240E-02 0.235E+00   0.199E-03 -.440E-03 0.235E-02
   -.149E+02 0.862E+01 0.231E+04   0.149E+02 -.873E+01 -.231E+04   0.990E-01 0.146E-01 -.291E+00   0.449E-03 0.222E-04 -.603E-03
   0.394E+00 -.130E+02 0.815E+03   -.394E+00 0.133E+02 -.815E+03   -.724E-02 -.248E+00 -.187E+00   0.393E-03 -.356E-03 0.824E-03
   -.412E+01 0.372E+01 -.909E+03   0.423E+01 -.393E+01 0.909E+03   -.110E+00 0.253E+00 0.146E+00   -.433E-05 0.285E-03 0.454E-02
   0.312E+02 -.213E+02 -.225E+04   -.308E+02 0.210E+02 0.225E+04   -.343E+00 0.333E+00 0.210E-01   0.212E-03 -.344E-03 0.270E-02
   -.216E+02 0.124E+02 0.228E+04   0.217E+02 -.125E+02 -.228E+04   0.207E-01 -.120E-01 0.103E+00   0.242E-03 0.348E-03 -.902E-03
   -.113E+02 0.651E+01 0.813E+03   0.115E+02 -.663E+01 -.813E+03   -.212E+00 0.123E+00 -.253E+00   -.364E-04 0.227E-03 0.847E-03
   0.323E+00 0.161E+01 -.736E+03   -.149E+00 -.172E+01 0.736E+03   -.170E+00 0.125E+00 0.397E+00   -.453E-03 0.189E-03 0.401E-02
   0.549E+02 -.316E+02 -.235E+04   -.548E+02 0.316E+02 0.235E+04   -.168E+00 0.963E-01 -.131E+01   -.492E-03 -.450E-03 0.240E-02
   0.212E+02 0.128E+02 0.228E+04   -.213E+02 -.129E+02 -.228E+04   -.219E-02 -.852E-02 0.116E+00   -.197E-03 0.389E-03 -.804E-03
   0.115E+02 0.617E+01 0.815E+03   -.117E+02 -.629E+01 -.815E+03   0.211E+00 0.130E+00 -.188E+00   -.112E-03 -.312E-03 0.829E-03
   0.941E-02 0.184E+01 -.738E+03   -.140E+00 -.199E+01 0.737E+03   0.122E+00 0.170E+00 0.430E+00   0.741E-05 -.140E-03 0.414E-02
   -.487E+02 -.443E+02 -.239E+04   0.493E+02 0.455E+02 0.239E+04   -.552E+00 -.120E+01 0.217E+00   -.142E-03 -.310E-03 0.189E-02
   0.364E-01 0.175E+02 0.230E+04   -.265E-01 -.178E+02 -.230E+04   -.109E-01 0.733E-01 -.202E-01   -.697E-04 -.144E-03 -.595E-03
   0.553E+01 -.316E+01 0.811E+03   -.550E+01 0.314E+01 -.811E+03   -.231E-01 0.129E-01 -.240E+00   -.735E-05 -.885E-03 0.367E-03
   0.643E+01 0.325E+01 -.767E+03   -.693E+01 -.357E+01 0.767E+03   0.461E+00 0.315E+00 0.335E-01   0.765E-03 0.199E-04 0.401E-02
   0.225E+01 -.424E+02 -.229E+04   -.212E+01 0.419E+02 0.229E+04   -.137E+00 0.487E+00 0.264E+00   -.223E-03 0.107E-03 0.292E-02
   0.149E+02 0.848E+01 0.231E+04   -.149E+02 -.856E+01 -.231E+04   -.944E-01 0.118E-01 -.243E+00   -.376E-03 -.286E-03 -.630E-03
   0.120E+00 0.592E+01 0.795E+03   -.138E+00 -.610E+01 -.795E+03   0.137E-01 0.193E+00 -.436E+00   -.440E-03 -.872E-03 0.210E-03
   -.160E+00 -.308E+00 -.692E+03   0.158E+00 0.147E+00 0.692E+03   0.502E-02 0.143E+00 0.503E+00   -.123E-03 0.115E-03 0.419E-02
   -.319E+02 -.233E+02 -.224E+04   0.315E+02 0.229E+02 0.224E+04   0.378E+00 0.397E+00 -.728E-01   -.185E-03 -.255E-04 0.274E-02
   0.153E+02 0.909E+01 0.231E+04   -.154E+02 -.903E+01 -.231E+04   -.530E-01 -.941E-01 -.272E+00   -.147E-03 0.187E-03 -.643E-03
   0.163E+02 0.177E+02 0.769E+03   -.165E+02 -.180E+02 -.768E+03   0.153E+00 0.298E+00 -.511E+00   -.249E-05 -.351E-05 0.209E-03
   -.190E+00 0.105E+00 -.695E+03   0.376E-01 -.170E-01 0.694E+03   0.146E+00 -.845E-01 0.421E+00   0.484E-03 -.556E-03 0.402E-02
   -.326E+02 -.153E+02 -.223E+04   0.323E+02 0.154E+02 0.223E+04   0.300E+00 -.955E-01 0.342E-01   0.412E-03 -.657E-03 0.274E-02
   0.211E+00 -.126E+00 -.291E+03   0.339E+00 -.192E+00 0.293E+03   -.530E+00 0.307E+00 -.180E+01   -.479E-04 -.200E-04 -.149E-03
   -.781E+01 0.446E+01 -.290E+03   0.765E+01 -.436E+01 0.292E+03   0.172E+00 -.107E+00 -.175E+01   -.224E-04 -.127E-05 -.127E-03
 -----------------------------------------------------------------------------------------------
   0.121E+01 -.678E+00 0.934E+01   -.465E-12 -.158E-11 0.239E-11   -.121E+01 0.682E+00 -.946E+01   -.251E-03 -.125E-03 0.109E+00
 
 
 POSITION                                       TOTAL-FORCE (eV/Angst)
 -----------------------------------------------------------------------------------
     10.55998      0.00001      1.11585         0.023578      0.101147     -0.139078
      2.63069      1.54662      3.59747        -0.000076     -0.004444      0.006366
      0.02445      3.04923      6.20615         0.007042      0.001519      0.018120
      0.00051      0.01394      8.30773        -0.012408     -0.017305      0.010070
      9.23998      2.28632      1.11585         0.159135      0.092389      0.137040
      1.31815      3.81155      3.84589         0.007493     -0.005288     -0.005392
      1.32325      0.79713      5.96894        -0.003208      0.016590      0.008200
      9.23456      2.28415      8.43958         0.019150      0.012335     -0.007981
      1.31998      2.28632      1.11585         0.015470      0.179308      0.197506
     -1.29739      3.81026      3.59363        -0.001015     -0.008303     -0.001895
      3.95706      0.77753      5.92952        -0.007186      0.009435      0.011488
      1.29326      2.24916      8.86972         0.017745     -0.013537      0.014920
      2.63998      0.00001      1.11585        -0.033861      0.118167     -0.147405
      0.01148      1.54617      3.59124         0.015798      0.001096     -0.004704
      2.63266      3.05218      6.22056         0.003995     -0.001912      0.012548
      2.62727      0.00787      8.28434         0.004630     -0.009261      0.003933
      5.27998      0.00001      1.11585        -0.022903      0.004034     -0.013341
      7.92580      1.52797      3.53831        -0.001108      0.005735     -0.005536
      5.26477      3.04247      5.92945        -0.012403      0.001988      0.011473
      0.00223      9.14146      8.33505         0.002248      0.002420     -0.006021
      3.95998      2.28632      1.11585        -0.168110      0.096977      0.104869
      6.60010      3.80662      3.50081        -0.000258     -0.006372     -0.002819
      6.60198      0.76047      5.92846         0.002507     -0.001433      0.004551
      3.98484      2.27146      8.49661        -0.021078      0.011647      0.037972
      6.59998      2.28632      1.11585        -0.014737      0.017711     -0.013525
      3.93586      3.80724      3.59734         0.004121      0.002174      0.006922
      9.24723      0.77233      5.92080         0.004162      0.003176      0.002827
      6.60371      2.28533      8.33461         0.000883     -0.003631     -0.004808
      7.91998      0.00001      1.11585         0.034863     -0.019943     -0.032131
      5.27026      1.52966      3.54698        -0.005645      0.003878     -0.002949
      7.93686      3.04024      5.92030         0.000273      0.003879     -0.003221
      2.64562      9.14131      8.33764        -0.038710      0.023426      0.003479
      7.91998      4.57263      1.11585         0.117874     -0.005178     -0.149338
      0.01145      6.07738      3.59394         0.005790      0.003849     -0.002217
     -2.62672      7.62257      5.83307         0.006601      0.000969     -0.001546
      7.91508      4.57161      8.30309        -0.022945     -0.002258     -0.004045
      6.59998      6.85894      1.11585         0.016633     -0.009707     -0.240707
     -1.31663      8.38484      3.50092         0.004219      0.002401     -0.002695
     -1.28110      5.31187      5.98007         0.005620     -0.003269     -0.005117
      6.59215      6.86284      8.19821        -0.007937      0.003998     -0.019126
     -1.32002      6.85894      1.11585         0.063803     -0.099376     -0.148983
     -3.95881      8.39901      3.48877        -0.005974      0.000049     -0.002863
      1.33107      5.31245      6.20638         0.002794     -0.006256      0.018606
     -1.32212      6.86289      8.30378        -0.010678      0.021394     -0.005055
     -0.00002      4.57263      1.11585         0.151962     -0.087426      0.219950
     -2.62664      6.08895      3.49250         0.003685     -0.000896     -0.007566
      0.01510      7.60986      5.92080        -0.003177     -0.001957     -0.002502
     -0.05164      4.60179      8.73021        -0.036901      0.022070      0.009774
      2.63998      4.57263      1.11585        -0.147685     -0.102869      0.197561
      5.26672      6.08770      3.48882        -0.003727      0.005512     -0.002815
      2.63440      7.60902      5.92114        -0.000362     -0.004627      0.001585
      2.65825      4.61336      8.86923         0.019639     -0.008232      0.014135
      1.31998      6.85894      1.11585        -0.000539     -0.183969      0.137778
      3.95601      8.38533      3.50439         0.015079     -0.009607      0.004275
      3.93085      5.31376      5.96905        -0.015419     -0.005138      0.007469
      1.31864      6.86395      8.44007        -0.002422     -0.026124     -0.008386
      3.95998      6.85894      1.11585        -0.076043     -0.070789     -0.138823
      1.31951      8.37604      3.53844        -0.004945     -0.001892     -0.004700
      6.60477      5.32188      5.83298         0.002820     -0.006830     -0.000990
      3.94761      6.85035      8.30810         0.009580      0.020924      0.010373
      5.27998      4.57263      1.11585        -0.119280     -0.029485     -0.147862
      2.62660      6.07577      3.59142         0.007465     -0.013397     -0.005526
      5.27378      7.62417      5.83384         0.001136     -0.000858      0.002898
      5.26622      4.57866      8.28444         0.010116      0.000989      0.003886
      1.06520      3.95836      9.84493         0.015367     -0.008448      0.026522
      2.90357      2.89107      9.71545         0.017465     -0.011169      0.044575
 -----------------------------------------------------------------------------------
    total drift:                               -0.006549      0.003997     -0.011805


--------------------------------------------------------------------------------------------------------



  FREE ENERGIE OF THE ION-ELECTRON SYSTEM (eV)
  ---------------------------------------------------
  free  energy   TOTEN  =      -412.61916710 eV

  energy  without entropy=     -412.57868407  energy(sigma->0) =     -412.60567276
 


--------------------------------------------------------------------------------------------------------


    POTLOK:  cpu time    0.4054: real time    0.4082


--------------------------------------------------------------------------------------------------------




--------------------------------------------------------------------------------------------------------


  
 reached required accuracy - stopping structural energy minimisation
     LOOP+:  cpu time 1890.2027: real time 1895.4218
    4ORBIT:  cpu time    0.0000: real time    0.0000

 total amount of memory used by VASP MPI-rank0   200787. kBytes
=======================================================================

   base      :      30000. kBytes
   nonlr-proj:      31129. kBytes
   fftplans  :      17093. kBytes
   grid      :      44247. kBytes
   one-center:        528. kBytes
   wavefun   :      77790. kBytes
 
  
  
 General timing and accounting informations for this job:
 ========================================================
  
                  Total CPU time used (sec):     1906.044
                            User time (sec):     1899.940
                          System time (sec):        6.104
                         Elapsed time (sec):     1911.945
  
                   Maximum memory used (kb):      569984.
                   Average memory used (kb):           0.
  
                          Minor page faults:       906934
                          Major page faults:            0
                 Voluntary context switches:         2568
