 vasp.5.4.4.18Apr17-6-g9f103f2a35 (build Nov 30 2020 22:55:02) complex          
  
 executed on             LinuxIFC date 2023.08.07  23:03:35
 running on   40 total cores
 distrk:  each k-point on   40 cores,    1 groups
 distr:  one band on NCORES_PER_BAND=   4 cores,   10 groups


--------------------------------------------------------------------------------------------------------


 INCAR:
 POTCAR:    PAW_PBE Pt 04Feb2005                  
 POTCAR:    PAW_PBE H 15Jun2001                   
 POTCAR:    PAW_PBE Pt 04Feb2005                  
   VRHFIN =Pt: s1d9                                                             
   LEXCH  = PE                                                                  
   EATOM  =   729.1176 eV,   53.5886 Ry                                         
                                                                                
   TITEL  = PAW_PBE Pt 04Feb2005                                                
   LULTRA =        F    use ultrasoft PP ?                                      
   IUNSCR =        1    unscreen: 0-lin 1-nonlin 2-no                           
   RPACOR =    2.330    partial core radius                                     
   POMASS =  195.080; ZVAL   =   10.000    mass and valenz                      
   RCORE  =    2.600    outmost cutoff radius                                   
   RWIGS  =    2.750; RWIGS  =    1.455    wigner-seitz radius (au A)           
   ENMAX  =  230.283; ENMIN  =  172.712 eV                                      
   ICORE  =        3    local potential                                         
   LCOR   =        T    correct aug charges                                     
   LPAW   =        T    paw PP                                                  
   EAUG   =  358.966                                                            
   DEXC   =    0.000                                                            
   RMAX   =    2.658    core radius for proj-oper                               
   RAUG   =    1.300    factor for augmentation sphere                          
   RDEP   =    2.761    radius for radial grids                                 
   RDEPT  =    2.203    core radius for aug-charge                              
                                                                                
   Atomic configuration                                                         
   16 entries                                                                   
     n  l   j            E        occ.                                          
     1  0  0.50    -78401.1885   2.0000                                         
     2  0  0.50    -13770.7750   2.0000                                         
     2  1  1.50    -11931.0468   6.0000                                         
     3  0  0.50     -3234.7234   2.0000                                         
     3  1  1.50     -2699.2216   6.0000                                         
     3  2  2.50     -2119.5714  10.0000                                         
     4  0  0.50      -695.1528   2.0000                                         
     4  1  1.50      -519.6034   6.0000                                         
     4  2  2.50      -306.6786  10.0000                                         
     4  3  3.50       -70.1041  14.0000                                         
     5  0  0.50      -101.7747   2.0000                                         
     5  1  1.50       -55.9873   6.0000                                         
     5  2  2.50        -6.1423   9.0000                                         
     6  0  0.50        -5.6573   1.0000                                         
     6  1  1.50        -6.8029   0.0000                                         
     5  3  2.50        -1.3606   0.0000                                         
   Description                                                                  
     l       E           TYP  RCUT    TYP  RCUT                                 
     2     -6.1423404     23  2.500                                             
     2     -7.5029230     23  2.500                                             
     0     -5.6573207     23  2.500                                             
     0      0.7416693     23  2.500                                             
     1     -2.7211652     23  2.600                                             
     1     20.4087390     23  2.600                                             
     3     -1.3605826     23  2.500                                             
  local pseudopotential read in
  partial core-charges read in
  partial kinetic energy density read in
  atomic valenz-charges read in
  non local Contribution for L=           2  read in
    real space projection operators read in
  non local Contribution for L=           2  read in
    real space projection operators read in
  non local Contribution for L=           0  read in
    real space projection operators read in
  non local Contribution for L=           0  read in
    real space projection operators read in
  non local Contribution for L=           1  read in
    real space projection operators read in
  non local Contribution for L=           1  read in
    real space projection operators read in
    PAW grid and wavefunctions read in
 
   number of l-projection  operators is LMAX  =           6
   number of lm-projection operators is LMMAX =          18
 
 POTCAR:    PAW_PBE H 15Jun2001                   
   VRHFIN =H: ultrasoft test                                                    
   LEXCH  = PE                                                                  
   EATOM  =    12.4884 eV,    0.9179 Ry                                         
                                                                                
   TITEL  = PAW_PBE H 15Jun2001                                                 
   LULTRA =        F    use ultrasoft PP ?                                      
   IUNSCR =        0    unscreen: 0-lin 1-nonlin 2-no                           
   RPACOR =    0.000    partial core radius                                     
   POMASS =    1.000; ZVAL   =    1.000    mass and valenz                      
   RCORE  =    1.100    outmost cutoff radius                                   
   RWIGS  =    0.700; RWIGS  =    0.370    wigner-seitz radius (au A)           
   ENMAX  =  250.000; ENMIN  =  200.000 eV                                      
   RCLOC  =    0.701    cutoff for local pot                                    
   LCOR   =        T    correct aug charges                                     
   LPAW   =        T    paw PP                                                  
   EAUG   =  400.000                                                            
   RMAX   =    1.123    core radius for proj-oper                               
   RAUG   =    1.200    factor for augmentation sphere                          
   RDEP   =    1.112    radius for radial grids                                 
   RDEPT  =    0.926    core radius for aug-charge                              
                                                                                
   Atomic configuration                                                         
    2 entries                                                                   
     n  l   j            E        occ.                                          
     1  0  0.50        -6.4927   1.0000                                         
     2  1  0.50        -3.4015   0.0000                                         
   Description                                                                  
     l       E           TYP  RCUT    TYP  RCUT                                 
     0     -6.4927494     23  1.100                                             
     0      6.8029130     23  1.100                                             
     1     -4.0817478     23  1.100                                             
  local pseudopotential read in
  atomic valenz-charges read in
  non local Contribution for L=           0  read in
    real space projection operators read in
  non local Contribution for L=           0  read in
    real space projection operators read in
  non local Contribution for L=           1  read in
    real space projection operators read in
    PAW grid and wavefunctions read in
 
   number of l-projection  operators is LMAX  =           3
   number of lm-projection operators is LMMAX =           5
 
 Optimization of the real space projectors (new method)

 maximal supplied QI-value         = 14.36
 optimisation between [QCUT,QGAM] = [ 11.92, 23.98] = [ 39.79,161.09] Ry 
 Optimized for a Real-space Cutoff    1.49 Angstroem

   l    n(q)    QCUT    max X(q) W(low)/X(q) W(high)/X(q)  e(spline) 
   2     10    11.920    66.195    0.79E-04    0.18E-03    0.24E-06
   2     10    11.920    64.643    0.81E-04    0.19E-03    0.24E-06
   0     11    11.920    95.520    0.28E-04    0.54E-04    0.18E-06
   0     11    11.920    63.403    0.27E-04    0.52E-04    0.17E-06
   1     10    11.920    19.961    0.18E-04    0.11E-03    0.23E-06
   1     10    11.920    13.289    0.25E-04    0.87E-04    0.19E-06
 Optimization of the real space projectors (new method)

 maximal supplied QI-value         = 34.20
 optimisation between [QCUT,QGAM] = [ 11.97, 23.94] = [ 40.13,160.53] Ry 
 Optimized for a Real-space Cutoff    1.18 Angstroem

   l    n(q)    QCUT    max X(q) W(low)/X(q) W(high)/X(q)  e(spline) 
   0      8    11.971    19.460    0.15E-03    0.31E-03    0.25E-06
   0      8    11.971    12.209    0.13E-03    0.29E-03    0.25E-06
   1      8    11.971     4.655    0.22E-03    0.24E-03    0.21E-06
  PAW_PBE Pt 04Feb2005                  :
 energy of atom  1       EATOM= -729.1176
 kinetic energy error for atom=    0.0021 (will be added to EATOM!!)
  PAW_PBE H 15Jun2001                   :
 energy of atom  2       EATOM=  -12.4884
 kinetic energy error for atom=    0.0008 (will be added to EATOM!!)
 
 
 POSCAR: Pt111\(1\1\1)\(2)                       
  positions in direct lattice
  velocities in cartesian coordinates
 exchange correlation table for  LEXCH =        8
   RHO(1)=    0.500       N(1)  =     2000
   RHO(2)=  100.500       N(2)  =     4000
 


--------------------------------------------------------------------------------------------------------


 ion  position               nearest neighbor table
   1  1.000  0.000  0.056-   5 2.64   9 2.64  13 2.64  29 2.64  57 2.64  37 2.64  42 2.82  54 2.83
                            14 2.91
   2  0.333  0.169  0.179-  14 2.62  26 2.62   6 2.63  42 2.64  30 2.64  38 2.67  11 2.79   7 2.82
                             9 2.89  21 2.90  13 2.92  15 3.02
   3  0.168  0.334  0.310-  43 2.62  15 2.62  39 2.62   7 2.62  31 2.66  27 2.66   8 2.71   6 2.79
                            48 2.99  12 2.99  14 3.02  10 3.03
   4  0.001  0.001  0.415-   8 2.64  16 2.64  32 2.64  12 2.64  40 2.65  60 2.65   7 2.80  27 2.83
                            63 2.90
   5  1.000  0.250  0.056-   1 2.64  45 2.64  33 2.64   9 2.64  29 2.64  25 2.64  18 2.85  10 2.90
                            14 2.90
   6  0.333  0.417  0.193-  26 2.63  62 2.63  34 2.63  10 2.63  14 2.63   2 2.63  43 2.79   3 2.79
                            15 2.79  49 3.14   9 3.14  45 3.14
   7  0.169  0.087  0.298-  15 2.62   3 2.62  11 2.64  27 2.64  35 2.67  63 2.67  16 2.80   4 2.80
                             2 2.82  14 2.82  42 2.92  12 3.16
   8  1.000  0.250  0.422-   4 2.64  36 2.64  32 2.64  28 2.64  48 2.66  12 2.66   3 2.71  27 2.94
                            31 2.94
   9  0.250  0.250  0.056-  21 2.64  13 2.64   1 2.64  49 2.64  45 2.64   5 2.64  14 2.89   2 2.89
                             6 3.14
  10  0.086  0.417  0.179-  34 2.62  14 2.62   6 2.63  46 2.64  18 2.65  22 2.67  31 2.79  39 2.82
                            45 2.89   5 2.90  33 2.91   3 3.03
  11  0.417  0.085  0.296-  19 2.62   7 2.64  35 2.64  23 2.64  15 2.66  47 2.66   2 2.79  30 2.82
                            16 2.83  38 2.86  20 2.87  24 2.94
  12  0.248  0.246  0.439-  65 1.86   4 2.64  16 2.64   8 2.66  24 2.66  48 2.70  52 2.70  15 2.99
                             3 2.99   7 3.16
  13  0.250  0.000  0.056-  21 2.64   9 2.64  17 2.64   1 2.64  37 2.64  41 2.64  42 2.82  38 2.83
                             2 2.92
  14  0.086  0.169  0.179-   2 2.62  10 2.62   6 2.63  42 2.64  18 2.64  54 2.67  27 2.79   7 2.82
                             9 2.89   5 2.90   1 2.91   3 3.02
  15  0.416  0.334  0.310-  43 2.62   3 2.62  55 2.62   7 2.62  19 2.66  11 2.66  24 2.71   6 2.79
                            52 2.99  12 2.99   2 3.02  26 3.03
  16  0.250  0.001  0.415-  24 2.64   4 2.64  20 2.64  12 2.64  40 2.65  44 2.65   7 2.80  11 2.83
                            35 2.90
  17  0.500  0.000  0.056-  29 2.64  25 2.64  13 2.64  21 2.64  41 2.64  53 2.64  38 2.83  30 2.86
                            58 2.86
  18  0.834  0.167  0.177-  54 2.64  22 2.64  14 2.64  10 2.65  58 2.66  30 2.66  31 2.82  27 2.82
                            23 2.84   5 2.85  29 2.86  25 2.86
  19  0.665  0.333  0.296-  11 2.62  55 2.64  59 2.64  23 2.64  15 2.66  31 2.66  26 2.79  30 2.82
                            64 2.83  22 2.86  28 2.87  24 2.94
  20  0.500  1.000  0.417-  24 2.64  56 2.64  32 2.64  28 2.64  16 2.64  44 2.64  23 2.86  47 2.87
                            11 2.87
  21  0.500  0.250  0.056-  25 2.64  61 2.64   9 2.64  13 2.64  49 2.64  17 2.64  30 2.85  26 2.90
                             2 2.90
  22  0.833  0.416  0.175-  18 2.64  30 2.64  50 2.64  46 2.64  26 2.67  10 2.67  59 2.79  25 2.83
                            61 2.83  33 2.83  19 2.86  31 2.86
  23  0.667  0.083  0.296-  47 2.64  11 2.64  51 2.64  27 2.64  19 2.64  31 2.64  58 2.84  18 2.84
                            30 2.84  20 2.86  28 2.86  32 2.86
  24  0.500  0.250  0.422-  16 2.64  64 2.64  20 2.64  28 2.64  52 2.66  12 2.66  15 2.71  11 2.94
                            19 2.94
  25  0.750  0.250  0.056-  17 2.64  21 2.64  29 2.64  61 2.64  33 2.64   5 2.64  22 2.83  18 2.86
                            30 2.86
  26  0.581  0.417  0.179-  62 2.62   2 2.62   6 2.63  50 2.64  30 2.65  22 2.67  19 2.79  55 2.82
                            49 2.89  21 2.90  61 2.91  15 3.03
  27  0.918  0.085  0.296-  31 2.62   7 2.64  63 2.64  23 2.64   3 2.66  51 2.66  14 2.79  18 2.82
                             4 2.83  54 2.86  32 2.87   8 2.94
  28  0.750  0.250  0.417-  24 2.64   8 2.64  32 2.64  20 2.64  64 2.64  36 2.64  23 2.86  31 2.87
                            19 2.87
  29  0.750  0.000  0.056-  17 2.64  25 2.64   5 2.64  53 2.64   1 2.64  57 2.64  54 2.83  18 2.86
                            58 2.86
  30  0.583  0.167  0.177-  38 2.64  22 2.64   2 2.64  26 2.65  58 2.66  18 2.66  19 2.82  11 2.82
                            23 2.84  21 2.85  17 2.86  25 2.86
  31  0.918  0.333  0.296-  27 2.62  39 2.64  59 2.64  23 2.64   3 2.66  19 2.66  10 2.79  18 2.82
                            36 2.83  22 2.86  28 2.87   8 2.94
  32  0.750  1.000  0.417-  56 2.64   8 2.64  20 2.64  28 2.64  60 2.64   4 2.64  23 2.86  51 2.87
                            27 2.87
  33  1.000  0.500  0.056-  37 2.64  41 2.64   5 2.64  45 2.64  25 2.64  61 2.64  46 2.82  22 2.83
                            10 2.91
  34  0.333  0.664  0.179-  10 2.62  62 2.62   6 2.63  46 2.64  58 2.64  38 2.67  47 2.79  39 2.82
                            45 2.89  53 2.90  41 2.91  43 3.03
  35  0.168  0.834  0.292-  11 2.64  47 2.64  59 2.66  63 2.66  39 2.67   7 2.67  38 2.79  46 2.81
                            42 2.81  40 2.82  16 2.90  44 2.90
  36  0.001  0.500  0.415-   8 2.64  44 2.64  28 2.64  48 2.64  40 2.65  64 2.65  39 2.80  31 2.83
                            59 2.90
  37  1.000  0.750  0.056-  33 2.64  41 2.64  61 2.64  57 2.64  13 2.64   1 2.64  46 2.83  42 2.83
                            50 2.83
  38  0.334  0.917  0.175-  30 2.64  58 2.64  42 2.64  46 2.64   2 2.67  34 2.67  35 2.79  17 2.83
                            41 2.83  13 2.83  11 2.86  47 2.86
  39  0.169  0.581  0.298-   3 2.62  43 2.62  47 2.64  31 2.64  35 2.67  59 2.67  36 2.80  44 2.80
                            34 2.82  10 2.82  46 2.92  48 3.16
  40  0.000  0.750  0.410-   4 2.65  16 2.65  60 2.65  44 2.65  64 2.65  36 2.65  63 2.82  59 2.82
                            35 2.82
  41  0.250  0.750  0.056-  45 2.64  33 2.64  37 2.64  53 2.64  17 2.64  13 2.64  46 2.82  38 2.83
                            34 2.91
  42  0.084  0.918  0.175-   2 2.64  38 2.64  14 2.64  54 2.64  46 2.66  50 2.66  63 2.81  35 2.81
                            13 2.82   1 2.82  37 2.83   7 2.92
  43  0.416  0.582  0.310-  15 2.62   3 2.62  55 2.62  39 2.62  51 2.66  47 2.66  56 2.71   6 2.79
                            48 2.99  52 2.99  62 3.03  34 3.03
  44  0.250  0.749  0.415-  56 2.64  36 2.64  20 2.64  48 2.64  40 2.65  16 2.65  39 2.80  47 2.83
                            35 2.90
  45  0.250  0.500  0.056-  41 2.64  53 2.64   5 2.64   9 2.64  49 2.64  33 2.64  10 2.89  34 2.89
                             6 3.14
  46  0.084  0.666  0.175-  38 2.64  22 2.64  34 2.64  10 2.64  42 2.66  50 2.66  35 2.81  59 2.81
                            41 2.82  33 2.82  37 2.83  39 2.92
  47  0.417  0.832  0.296-  51 2.62  39 2.64  35 2.64  23 2.64  43 2.66  11 2.66  34 2.79  58 2.82
                            44 2.83  38 2.86  20 2.87  56 2.94
  48  0.248  0.502  0.439-  65 1.86  36 2.64  44 2.64   8 2.66  56 2.66  12 2.70  52 2.70  43 2.99
                             3 2.99  39 3.16
  49  0.500  0.500  0.056-  61 2.64  53 2.64  57 2.64  21 2.64   9 2.64  45 2.64  26 2.89  62 2.89
                             6 3.14
  50  0.832  0.666  0.175-  54 2.64  22 2.64  62 2.64  26 2.64  46 2.66  42 2.66  63 2.81  59 2.81
                            61 2.82  57 2.82  37 2.83  55 2.92
  51  0.665  0.832  0.296-  47 2.62  55 2.64  63 2.64  23 2.64  43 2.66  27 2.66  62 2.79  58 2.82
                            60 2.83  54 2.86  32 2.87  56 2.94
  52  0.504  0.502  0.439-  65 1.86  64 2.64  60 2.64  24 2.66  56 2.66  12 2.70  48 2.70  43 2.99
                            15 2.99  55 3.16
  53  0.500  0.750  0.056-  49 2.64  57 2.64  45 2.64  41 2.64  29 2.64  17 2.64  58 2.85  34 2.90
                            62 2.90
  54  0.833  0.917  0.175-  18 2.64  58 2.64  50 2.64  42 2.64  62 2.67  14 2.67  63 2.79  29 2.83
                            57 2.83   1 2.83  27 2.86  51 2.86
  55  0.663  0.581  0.298-  43 2.62  15 2.62  51 2.64  19 2.64  59 2.67  63 2.67  64 2.80  60 2.80
                            26 2.82  62 2.82  50 2.92  52 3.16
  56  0.500  0.750  0.422-  60 2.64  44 2.64  32 2.64  20 2.64  52 2.66  48 2.66  43 2.71  51 2.94
                            47 2.94
  57  0.750  0.750  0.056-  61 2.64  49 2.64  53 2.64  37 2.64   1 2.64  29 2.64  50 2.82  54 2.83
                            62 2.91
  58  0.583  0.916  0.177-  38 2.64  54 2.64  34 2.64  62 2.64  30 2.66  18 2.66  47 2.82  51 2.82
                            23 2.84  53 2.85  17 2.86  29 2.86
  59  0.916  0.582  0.292-  31 2.64  19 2.64  63 2.66  35 2.66  55 2.67  39 2.67  22 2.79  46 2.81
                            50 2.81  40 2.82  64 2.90  36 2.90
  60  0.749  0.749  0.415-  56 2.64  64 2.64  32 2.64  52 2.64  40 2.65   4 2.65  55 2.80  51 2.83
                            63 2.90
  61  0.750  0.500  0.056-  49 2.64  57 2.64  21 2.64  25 2.64  37 2.64  33 2.64  50 2.82  22 2.83
                            26 2.91
  62  0.581  0.664  0.179-  26 2.62  34 2.62   6 2.63  50 2.64  58 2.64  54 2.67  51 2.79  55 2.82
                            49 2.89  53 2.90  57 2.91  43 3.03
  63  0.916  0.834  0.292-  27 2.64  51 2.64  59 2.66  35 2.66   7 2.67  55 2.67  54 2.79  50 2.81
                            42 2.81  40 2.82   4 2.90  60 2.90
  64  0.749  0.500  0.415-  24 2.64  60 2.64  28 2.64  52 2.64  40 2.65  36 2.65  55 2.80  19 2.83
                            59 2.90
  65  0.333  0.417  0.489-  48 1.86  52 1.86  12 1.86
 
  LATTYP: Found a hexagonal cell.
 ALAT       =    10.5600004196
 C/A-ratio  =     1.8939393187
  
  Lattice vectors:
  
 A1 = (  10.5600004196,   0.0000000000,   0.0000000000)
 A2 = (  -5.2800002098,   9.1452286274,   0.0000000000)
 A3 = (   0.0000000000,   0.0000000000,  20.0000000000)


Analysis of symmetry for initial positions (statically):
=====================================================================
 Subroutine PRICEL returns:
 Original cell was already a primitive cell.
 

 Routine SETGRP: Setting up the symmetry group for a 
 hexagonal supercell.


 Subroutine GETGRP returns: Found  1 space group operations
 (whereof  1 operations were pure point group operations)
 out of a pool of 24 trial point group operations.


The static configuration has the point symmetry C_1 .


Analysis of symmetry for dynamics (positions and initial velocities):
=====================================================================
 Subroutine PRICEL returns:
 Original cell was already a primitive cell.
 

 Routine SETGRP: Setting up the symmetry group for a 
 hexagonal supercell.


 Subroutine GETGRP returns: Found  1 space group operations
 (whereof  1 operations were pure point group operations)
 out of a pool of 24 trial point group operations.


The dynamic configuration has the point symmetry C_1 .


Analysis of constrained symmetry for selective dynamics:
=====================================================================
 Subroutine PRICEL returns:
 Original cell was already a primitive cell.
 

 Routine SETGRP: Setting up the symmetry group for a 
 hexagonal supercell.


 Subroutine GETGRP returns: Found  1 space group operations
 (whereof  1 operations were pure point group operations)
 out of a pool of 24 trial point group operations.


The constrained configuration has the point symmetry C_1 .


Analysis of structural, dynamic, and magnetic symmetry:
=====================================================================
 Subroutine PRICEL returns:
 Original cell was already a primitive cell.
 

 Routine SETGRP: Setting up the symmetry group for a 
 hexagonal supercell.


 Subroutine GETGRP returns: Found  1 space group operations
 (whereof  1 operations were pure point group operations)
 out of a pool of 24 trial point group operations.


The magnetic configuration has the point symmetry C_1 .


 Subroutine INISYM returns: Found  1 space group operations
 (whereof  1 operations are pure point group operations),
 and found     1 'primitive' translations

 
 
 KPOINTS: mesh auto                               

Automatic generation of k-mesh.
Space group operators:
 irot       det(A)        alpha          n_x          n_y          n_z        tau_x        tau_y        tau_z
    1     1.000000     0.000000     1.000000     0.000000     0.000000     0.000000     0.000000     0.000000
 
 Subroutine IBZKPT returns following result:
 ===========================================
 
 Found      4 irreducible k-points:
 
 Following reciprocal coordinates:
            Coordinates               Weight
  0.000000  0.000000  0.000000      1.000000
  0.500000 -0.000000  0.000000      1.000000
  0.000000  0.500000  0.000000      1.000000
  0.500000  0.500000  0.000000      1.000000
 
 Following cartesian coordinates:
            Coordinates               Weight
  0.000000  0.000000  0.000000      1.000000
  0.047348  0.027337  0.000000      1.000000
  0.000000  0.054673  0.000000      1.000000
  0.047348  0.082010  0.000000      1.000000
 


--------------------------------------------------------------------------------------------------------




 Dimension of arrays:
   k-points           NKPTS =      4   k-points in BZ     NKDIM =      4   number of bands    NBANDS=    420
   number of dos      NEDOS =    301   number of ions     NIONS =     65
   non local maximal  LDIM  =      6   non local SUM 2l+1 LMDIM =     18
   total plane-waves  NPLWV = ******
   max r-space proj   IRMAX =   8171   max aug-charges    IRDMAX=  35597
   dimension x,y,z NGX =    84 NGY =   84 NGZ =  160
   dimension x,y,z NGXF=   168 NGYF=  168 NGZF=  320
   support grid    NGXF=   168 NGYF=  168 NGZF=  320
   ions per type =              64   1
   NGX,Y,Z   is equivalent  to a cutoff of  13.22, 13.22, 13.30 a.u.
   NGXF,Y,Z  is equivalent  to a cutoff of  26.45, 26.45, 26.60 a.u.

 SYSTEM =  Pt111                                   
 POSCAR =  Pt111\(1\1\1)\(2)                       

 Startparameter for this run:
   NWRITE =      2    write-flag & timer
   PREC   = accura    normal or accurate (medium, high low for compatibility)
   ISTART =      0    job   : 0-new  1-cont  2-samecut
   ICHARG =      2    charge: 1-file 2-atom 10-const
   ISPIN  =      2    spin polarized calculation?
   LNONCOLLINEAR =      F non collinear calculations
   LSORBIT =      F    spin-orbit coupling
   INIWAV =      1    electr: 0-lowe 1-rand  2-diag
   LASPH  =      F    aspherical Exc in radial PAW
   METAGGA=      F    non-selfconsistent MetaGGA calc.

 Electronic Relaxation 1
   ENCUT  =  550.0 eV  40.42 Ry    6.36 a.u.  20.19 20.19 38.24*2*pi/ulx,y,z
   ENINI  =  550.0     initial cutoff
   ENAUG  =  400.0 eV  augmentation charge cutoff
   NELM   =    200;   NELMIN=  2; NELMDL= -5     # of ELM steps 
   EDIFF  = 0.1E-04   stopping-criterion for ELM
   LREAL  =      T    real-space projection
   NLSPLINE    = F    spline interpolate recip. space projectors
   LCOMPAT=      F    compatible to vasp.4.4
   GGA_COMPAT  = T    GGA compatible to vasp.4.4-vasp.4.6
   LMAXPAW     = -100 max onsite density
   LMAXMIX     =    2 max onsite mixed and CHGCAR
   VOSKOWN=      0    Vosko Wilk Nusair interpolation
   ROPT   =   -0.00025  -0.00025
 Ionic relaxation
   EDIFFG = -.5E-01   stopping-criterion for IOM
   NSW    =    300    number of steps for IOM
   NBLOCK =      1;   KBLOCK =    300    inner block; outer block 
   IBRION =      2    ionic relax: 0-MD 1-quasi-New 2-CG
   NFREE  =      1    steps in history (QN), initial steepest desc. (CG)
   ISIF   =      2    stress and relaxation
   IWAVPR =     11    prediction:  0-non 1-charg 2-wave 3-comb
   ISYM   =      2    0-nonsym 1-usesym 2-fastsym
   LCORR  =      T    Harris-Foulkes like correction to forces

   POTIM  = 0.5000    time-step for ionic-motion
   TEIN   =    0.0    initial temperature
   TEBEG  =    0.0;   TEEND  =   0.0 temperature during run
   SMASS  =  -3.00    Nose mass-parameter (am)
   estimated Nose-frequenzy (Omega)   =  0.10E-29 period in steps =****** mass=  -0.255E-26a.u.
   SCALEE = 1.0000    scale energy and forces
   NPACO  =    256;   APACO  = 16.0  distance and # of slots for P.C.
   PSTRESS=    0.0 pullay stress

  Mass of Ions in am
   POMASS = 195.08  1.00
  Ionic Valenz
   ZVAL   =  10.00  1.00
  Atomic Wigner-Seitz radii
   RWIGS  =  -1.00 -1.00
  virtual crystal weights 
   VCA    =   1.00  1.00
   NELECT =     641.0000    total number of electrons
   NUPDOWN=      -1.0000    fix difference up-down

 DOS related values:
   EMIN   =  10.00;   EMAX   =-10.00  energy-range for DOS
   EFERMI =   0.00
   ISMEAR =     1;   SIGMA  =   0.10  broadening in eV -4-tet -1-fermi 0-gaus

 Electronic relaxation 2 (details)
   IALGO  =     68    algorithm
   LDIAG  =      T    sub-space diagonalisation (order eigenvalues)
   LSUBROT=      F    optimize rotation matrix (better conditioning)
   TURBO    =      0    0=normal 1=particle mesh
   IRESTART =      0    0=no restart 2=restart with 2 vectors
   NREBOOT  =      0    no. of reboots
   NMIN     =      0    reboot dimension
   EREF     =   0.00    reference energy to select bands
   IMIX   =      4    mixing-type and parameters
     AMIX     =   0.40;   BMIX     =  1.00
     AMIX_MAG =   1.60;   BMIX_MAG =  1.00
     AMIN     =   0.10
     WC   =   100.;   INIMIX=   1;  MIXPRE=   1;  MAXMIX= -45

 Intra band minimization:
   WEIMIN = 0.0010     energy-eigenvalue tresh-hold
   EBREAK =  0.60E-08  absolut break condition
   DEPER  =   0.30     relativ break condition  

   TIME   =   0.40     timestep for ELM

  volume/ion in A,a.u.               =      29.71       200.53
  Fermi-wavevector in a.u.,A,eV,Ry     =   1.133439  2.141888 17.479175  1.284683
  Thomas-Fermi vector in A             =   2.270141
 
 Write flags
   LWAVE        =      F    write WAVECAR
   LDOWNSAMPLE  =      F    k-point downsampling of WAVECAR
   LCHARG       =      F    write CHGCAR
   LVTOT        =      F    write LOCPOT, total local potential
   LVHAR        =      F    write LOCPOT, Hartree potential only
   LELF         =      F    write electronic localiz. function (ELF)
   LORBIT       =      0    0 simple, 1 ext, 2 COOP (PROOUT), +10 PAW based schemes


 Dipole corrections
   LMONO  =      F    monopole corrections only (constant potential shift)
   LDIPOL =      F    correct potential (dipole corrections)
   IDIPOL =      0    1-x, 2-y, 3-z, 4-all directions 
   EPSILON=  1.0000000 bulk dielectric constant

 Exchange correlation treatment:
   GGA     =    --    GGA type
   LEXCH   =     8    internal setting for exchange type
   VOSKOWN=      0    Vosko Wilk Nusair interpolation
   LHFCALC =     F    Hartree Fock is set to
   LHFONE  =     F    Hartree Fock one center treatment
   AEXX    =    0.0000 exact exchange contribution

 Linear response parameters
   LEPSILON=     F    determine dielectric tensor
   LRPA    =     F    only Hartree local field effects (RPA)
   LNABLA  =     F    use nabla operator in PAW spheres
   LVEL    =     F    velocity operator in full k-point grid
   LINTERFAST=   F  fast interpolation
   KINTER  =     0    interpolate to denser k-point grid
   CSHIFT  =0.1000    complex shift for real part using Kramers Kronig
   OMEGAMAX=  -1.0    maximum frequency
   DEG_THRESHOLD= 0.2000000E-02 threshold for treating states as degnerate
   RTIME   =   -0.100 relaxation time in fs
  (WPLASMAI=    0.000 imaginary part of plasma frequency in eV, 0.658/RTIME)
   DFIELD  = 0.0000000 0.0000000 0.0000000 field for delta impulse in time
 
 Orbital magnetization related:
   ORBITALMAG=     F  switch on orbital magnetization
   LCHIMAG   =     F  perturbation theory with respect to B field
   DQ        =  0.001000  dq finite difference perturbation B field
   LLRAUG    =     F  two centre corrections for induced B field



--------------------------------------------------------------------------------------------------------


 conjugate gradient relaxation of ions
   using selective dynamics as specified on POSCAR
 charge density and potential will be updated during run
 spin polarized calculation
 RMM-DIIS sequential band-by-band and
  variant of blocked Davidson during initial phase
 perform sub-space diagonalisation
    before iterative eigenvector-optimisation
 modified Broyden-mixing scheme, WC =      100.0
 initial mixing is a Kerker type mixing with AMIX =  0.4000 and BMIX =      1.0000
 Hartree-type preconditioning will be used
 using additional bands           99
 real space projection scheme for non local part
 use partial core corrections
 calculate Harris-corrections to forces 
   (improved forces if not selfconsistent)
 use gradient corrections 
 use of overlap-Matrix (Vanderbilt PP)
 Methfessel and Paxton  Order N= 1 SIGMA  =   0.10


--------------------------------------------------------------------------------------------------------


  energy-cutoff  :      550.00
  volume of cell :     1931.47
      direct lattice vectors                 reciprocal lattice vectors
    10.560000420  0.000000000  0.000000000     0.094696966  0.054673319  0.000000000
    -5.280000210  9.145228627  0.000000000     0.000000000  0.109346638  0.000000000
     0.000000000  0.000000000 20.000000000     0.000000000  0.000000000  0.050000000

  length of vectors
    10.560000420 10.560000420 20.000000000     0.109346638  0.109346638  0.050000000


 
 k-points in units of 2pi/SCALE and weight: mesh auto                               
   0.00000000  0.00000000  0.00000000       0.250
   0.04734848  0.02733666  0.00000000       0.250
   0.00000000  0.05467332  0.00000000       0.250
   0.04734848  0.08200998  0.00000000       0.250
 
 k-points in reciprocal lattice and weights: mesh auto                               
   0.00000000  0.00000000  0.00000000       0.250
   0.50000000 -0.00000000  0.00000000       0.250
   0.00000000  0.50000000  0.00000000       0.250
   0.50000000  0.50000000  0.00000000       0.250
 
 position of ions in fractional coordinates (direct lattice) 
   0.99999844  0.00000156  0.05579229
   0.33331244  0.16891226  0.17939509
   0.16818471  0.33404833  0.31042453
   0.00052844  0.00075920  0.41528149
   0.99999844  0.25000155  0.05579229
   0.33334037  0.41667210  0.19297976
   0.16867291  0.08729980  0.29843304
   0.99979457  0.24982274  0.42163147
   0.24999844  0.25000155  0.05579229
   0.08561685  0.41668424  0.17936340
   0.41703566  0.08455107  0.29579559
   0.24797174  0.24589456  0.43878122
   0.24999844  0.00000156  0.05579229
   0.08560891  0.16891920  0.17938942
   0.41589991  0.33404757  0.31042422
   0.25027609  0.00075824  0.41527003
   0.49999844  0.00000156  0.05579229
   0.83430745  0.16714114  0.17664671
   0.66536592  0.33289042  0.29578005
   0.49996984  0.99992403  0.41713626
   0.49999843  0.25000155  0.05579229
   0.83317232  0.41635029  0.17514411
   0.66663705  0.08324374  0.29639179
   0.50007756  0.24982454  0.42162109
   0.74999841  0.25000155  0.05579229
   0.58106061  0.41667669  0.17936695
   0.91755607  0.08455208  0.29580571
   0.75000167  0.24995965  0.41713978
   0.74999842  0.00000156  0.05579229
   0.58282720  0.16713854  0.17664955
   0.91755681  0.33290225  0.29578202
   0.74998767  0.99992026  0.41715526
   0.99999844  0.50000154  0.05579229
   0.33332126  0.66439519  0.17938060
   0.16764207  0.83377131  0.29228866
   0.00052837  0.49963407  0.41526278
   0.99999843  0.75000151  0.05579229
   0.33365179  0.91682493  0.17515070
   0.16867849  0.58127562  0.29841214
   0.00000016  0.74995915  0.41042748
   0.24999843  0.75000151  0.05579229
   0.08402254  0.91803951  0.17475338
   0.41589665  0.58175272  0.31044577
   0.25028064  0.74938287  0.41528406
   0.24999844  0.50000154  0.05579229
   0.08402028  0.66598126  0.17475175
   0.41702234  0.83235725  0.29580984
   0.24795917  0.50192839  0.43878216
   0.49999844  0.50000154  0.05579229
   0.83196366  0.66598259  0.17475615
   0.66535171  0.83234478  0.29582620
   0.50402428  0.50193310  0.43878967
   0.49999843  0.75000151  0.05579229
   0.83317036  0.91682227  0.17515523
   0.66262717  0.58127171  0.29841782
   0.50009383  0.75012858  0.42166476
   0.74999841  0.75000151  0.05579229
   0.58283072  0.91567656  0.17667098
   0.91616611  0.58231318  0.29229043
   0.74915996  0.74938553  0.41530460
   0.74999839  0.50000154  0.05579229
   0.58106864  0.66439040  0.17938783
   0.91616878  0.83376971  0.29229731
   0.74915135  0.49963322  0.41525918
   0.33334573  0.41664826  0.48935920
 
 position of ions in cartesian coordinates  (Angst):
  10.55997578  0.00001422  1.11584590
   2.62792272  1.54474123  3.58790174
   0.01225536  3.05494834  6.20849066
   0.00157178  0.00694307  8.30562973
   9.23997574  2.28632132  1.11584590
   1.32004563  3.81056160  3.85959511
   1.32024305  0.79837662  5.96866081
   9.23876694  2.28468605  8.43262932
   1.31997542  2.28632132  1.11584590
  -1.29597885  3.81067259  3.58726805
   3.95746711  0.77323886  5.91591179
   1.32025837  2.24876193  8.77562436
   2.63997547  0.00001422  1.11584590
   0.01213670  1.54480472  3.58778837
   2.62813201  3.05494140  6.20848447
   2.63891211  0.00693432  8.30540058
   5.27997557  0.00001422  1.11584590
   7.92778180  1.52854397  3.53293427
   5.26860289  3.04435901  5.91560098
   0.00008263  9.14453382  8.34272519
   3.95997540  2.28632132  1.11584590
   6.59997045  3.80761857  3.50288227
   6.60016059  0.76128305  5.92783585
   3.96174564  2.28470258  8.43242176
   6.59997527  2.28632132  1.11584590
   3.93594730  3.81060360  3.58733902
   9.24295754  0.77324806  5.91611412
   6.60023097  2.28593819  8.34279562
   7.91997543  0.00001422  1.11584590
   5.27216397  1.52852018  3.53299104
   7.93167633  3.04446720  5.91564034
   2.64029099  9.14449936  8.34310517
   7.91997567  4.57262842  1.11584590
   0.01186591  6.07604591  3.58761202
  -2.63201237  7.62502930  5.84577319
  -2.63248834  4.56926775  8.30525568
   6.59997574  6.85893527  1.11584590
  -1.31747280  8.38457363  3.50301409
  -1.28789047  5.31589847  5.96824281
  -3.95978278  6.85854788  8.20854952
  -1.32002457  6.85893527  1.11584590
  -3.95997074  8.39568121  3.49506761
   1.32021434  5.32026162  6.20891532
  -1.31377806  6.85327770  8.30568120
  -0.00002464  4.57262842  1.11584590
  -2.62912695  6.09055087  3.49503500
   0.00890964  7.61209731  5.91619674
  -0.03173306  4.59024987  8.77564324
   2.63997546  4.57262842  1.11584590
   5.26914836  6.09056307  3.49512303
   2.63133374  7.61198329  5.91652399
   2.67228974  4.59029299  8.77579341
   1.31997553  6.85893527  1.11584590
   3.95745756  8.38454927  3.50310460
   3.92822845  5.31586269  5.96835643
   1.32031195  6.86009739  8.43329529
   3.95997540  6.85893527  1.11584590
   1.31992022  8.37407145  3.53341965
   6.60010080  5.32538716  5.84580861
   3.95437371  6.85330203  8.30609203
   5.27997509  4.57262842  1.11584590
   2.62810364  6.07600213  3.58775668
   5.27243848  7.62501460  5.84594621
   5.27297502  4.56926002  8.30518358
   1.32022819  3.81034358  9.78718398
 


--------------------------------------------------------------------------------------------------------


 k-point  1 :   0.0000 0.0000 0.0000  plane waves:   56579
 k-point  2 :   0.5000-0.0000 0.0000  plane waves:   56606
 k-point  3 :   0.0000 0.5000 0.0000  plane waves:   56606
 k-point  4 :   0.5000 0.5000 0.0000  plane waves:   56606

 maximum and minimum number of plane-waves per node :     14185    14108

 maximum number of plane-waves:     56606
 maximum index in each direction: 
   IXMAX=   20   IYMAX=   20   IZMAX=   38
   IXMIN=  -20   IYMIN=  -20   IZMIN=  -38


 real space projection operators:
  total allocation   :      71205.32 KBytes
  max/ min on nodes  :      17809.73      17789.95


 parallel 3D FFT for wavefunctions:
    minimum data exchange during FFTs selected (reduces bandwidth)
 parallel 3D FFT for charge:
    minimum data exchange during FFTs selected (reduces bandwidth)


 total amount of memory used by VASP MPI-rank0   200596. kBytes
=======================================================================

   base      :      30000. kBytes
   nonlr-proj:      30938. kBytes
   fftplans  :      17093. kBytes
   grid      :      44247. kBytes
   one-center:        528. kBytes
   wavefun   :      77790. kBytes
 
     INWAV:  cpu time    0.0000: real time    0.0000
 Broyden mixing: mesh for mixing (old mesh)
   NGX = 41   NGY = 41   NGZ = 77
  (NGX  =168   NGY  =168   NGZ  =320)
  gives a total of 129437 points

 initial charge density was supplied:
 charge density of overlapping atoms calculated
 number of electron     641.0000000 magnetization      65.0000000
 keeping initial charge density in first step


--------------------------------------------------------------------------------------------------------


 Maximum index for non-local projection operator         2015
 Maximum index for augmentation-charges         2177 (set IRDMAX)


--------------------------------------------------------------------------------------------------------


 First call to EWALD:  gamma=   0.142
 Maximum number of real-space cells 4x 4x 2
 Maximum number of reciprocal cells 2x 2x 4

    FEWALD:  cpu time    0.0029: real time    0.0029


--------------------------------------- Iteration      1(   1)  ---------------------------------------


    POTLOK:  cpu time    0.3860: real time    0.4343
    SETDIJ:  cpu time    0.0332: real time    0.0336
     EDDAV:  cpu time   42.4706: real time   42.6033
       DOS:  cpu time    0.0021: real time    0.0022
    --------------------------------------------
      LOOP:  cpu time   42.8920: real time   43.0734

 eigenvalue-minimisations  :  6720
 total energy-change (2. order) : 0.4495728E+04  (-0.3117739E+05)
 number of electron     641.0000000 magnetization      65.0000000
 augmentation part      641.0000000 magnetization      65.0000000

 Free energy of the ion-electron system (eV)
  ---------------------------------------------------
  alpha Z        PSCENC =      2019.82280658
  Ewald energy   TEWEN  =    124354.49493184
  -Hartree energ DENC   =   -175443.39834749
  -exchange      EXHF   =         0.00000000
  -V(xc)+E(xc)   XCENC  =       244.49268535
  PAW double counting   =     44548.75599742   -42738.90423410
  entropy T*S    EENTRO =         0.00287410
  eigenvalues    EBANDS =      4834.57868557
  atomic energy  EATOM  =     46675.88275157
  Solvation  Ediel_sol  =         0.00000000
  ---------------------------------------------------
  free energy    TOTEN  =      4495.72815084 eV

  energy without entropy =     4495.72527674  energy(sigma->0) =     4495.72719281


--------------------------------------------------------------------------------------------------------




--------------------------------------- Iteration      1(   2)  ---------------------------------------


     EDDAV:  cpu time   46.3250: real time   46.4602
       DOS:  cpu time    0.0016: real time    0.0016
    --------------------------------------------
      LOOP:  cpu time   46.3266: real time   46.4618

 eigenvalue-minimisations  :  7520
 total energy-change (2. order) :-0.4631384E+04  (-0.4243591E+04)
 number of electron     641.0000000 magnetization      65.0000000
 augmentation part      641.0000000 magnetization      65.0000000

 Free energy of the ion-electron system (eV)
  ---------------------------------------------------
  alpha Z        PSCENC =      2019.82280658
  Ewald energy   TEWEN  =    124354.49493184
  -Hartree energ DENC   =   -175443.39834749
  -exchange      EXHF   =         0.00000000
  -V(xc)+E(xc)   XCENC  =       244.49268535
  PAW double counting   =     44548.75599742   -42738.90423410
  entropy T*S    EENTRO =         0.00527961
  eigenvalues    EBANDS =       203.19214664
  atomic energy  EATOM  =     46675.88275157
  Solvation  Ediel_sol  =         0.00000000
  ---------------------------------------------------
  free energy    TOTEN  =      -135.65598257 eV

  energy without entropy =     -135.66126218  energy(sigma->0) =     -135.65774244


--------------------------------------------------------------------------------------------------------




--------------------------------------- Iteration      1(   3)  ---------------------------------------


     EDDAV:  cpu time   46.7740: real time   46.9098
       DOS:  cpu time    0.0017: real time    0.0016
    --------------------------------------------
      LOOP:  cpu time   46.7756: real time   46.9114

 eigenvalue-minimisations  :  7650
 total energy-change (2. order) :-0.2466953E+03  (-0.2280336E+03)
 number of electron     641.0000000 magnetization      65.0000000
 augmentation part      641.0000000 magnetization      65.0000000

 Free energy of the ion-electron system (eV)
  ---------------------------------------------------
  alpha Z        PSCENC =      2019.82280658
  Ewald energy   TEWEN  =    124354.49493184
  -Hartree energ DENC   =   -175443.39834749
  -exchange      EXHF   =         0.00000000
  -V(xc)+E(xc)   XCENC  =       244.49268535
  PAW double counting   =     44548.75599742   -42738.90423410
  entropy T*S    EENTRO =        -0.01865886
  eigenvalues    EBANDS =       -43.47922340
  atomic energy  EATOM  =     46675.88275157
  Solvation  Ediel_sol  =         0.00000000
  ---------------------------------------------------
  free energy    TOTEN  =      -382.35129109 eV

  energy without entropy =     -382.33263223  energy(sigma->0) =     -382.34507147


--------------------------------------------------------------------------------------------------------




--------------------------------------- Iteration      1(   4)  ---------------------------------------


     EDDAV:  cpu time   48.6233: real time   48.7648
       DOS:  cpu time    0.0017: real time    0.0017
    --------------------------------------------
      LOOP:  cpu time   48.6250: real time   48.7664

 eigenvalue-minimisations  :  8000
 total energy-change (2. order) :-0.6431073E+01  (-0.6369802E+01)
 number of electron     641.0000000 magnetization      65.0000000
 augmentation part      641.0000000 magnetization      65.0000000

 Free energy of the ion-electron system (eV)
  ---------------------------------------------------
  alpha Z        PSCENC =      2019.82280658
  Ewald energy   TEWEN  =    124354.49493184
  -Hartree energ DENC   =   -175443.39834749
  -exchange      EXHF   =         0.00000000
  -V(xc)+E(xc)   XCENC  =       244.49268535
  PAW double counting   =     44548.75599742   -42738.90423410
  entropy T*S    EENTRO =        -0.02377541
  eigenvalues    EBANDS =       -49.90517941
  atomic energy  EATOM  =     46675.88275157
  Solvation  Ediel_sol  =         0.00000000
  ---------------------------------------------------
  free energy    TOTEN  =      -388.78236364 eV

  energy without entropy =     -388.75858824  energy(sigma->0) =     -388.77443851


--------------------------------------------------------------------------------------------------------




--------------------------------------- Iteration      1(   5)  ---------------------------------------


     EDDAV:  cpu time   47.8764: real time   48.0157
       DOS:  cpu time    0.0017: real time    0.0017
    CHARGE:  cpu time    3.2281: real time    3.2377
    MIXING:  cpu time    0.0099: real time    0.0107
    --------------------------------------------
      LOOP:  cpu time   51.1162: real time   51.2659

 eigenvalue-minimisations  :  7830
 total energy-change (2. order) :-0.2152966E+00  (-0.2147465E+00)
 number of electron     641.0000055 magnetization      58.9114047
 augmentation part      185.5926824 magnetization      46.4633805

 Broyden mixing:
  rms(total) = 0.10472E+02    rms(broyden)= 0.10472E+02
  rms(prec ) = 0.10580E+02
  weight for this iteration     100.00

 Free energy of the ion-electron system (eV)
  ---------------------------------------------------
  alpha Z        PSCENC =      2019.82280658
  Ewald energy   TEWEN  =    124354.49493184
  -Hartree energ DENC   =   -175443.39834749
  -exchange      EXHF   =         0.00000000
  -V(xc)+E(xc)   XCENC  =       244.49268535
  PAW double counting   =     44548.75599742   -42738.90423410
  entropy T*S    EENTRO =        -0.02379620
  eigenvalues    EBANDS =       -50.12045523
  atomic energy  EATOM  =     46675.88275157
  Solvation  Ediel_sol  =         0.00000000
  ---------------------------------------------------
  free energy    TOTEN  =      -388.99766026 eV

  energy without entropy =     -388.97386406  energy(sigma->0) =     -388.98972819


--------------------------------------------------------------------------------------------------------




--------------------------------------- Iteration      1(   6)  ---------------------------------------


    POTLOK:  cpu time    0.3823: real time    0.3842
    SETDIJ:  cpu time    0.0325: real time    0.0326
    EDDIAG:  cpu time    7.5366: real time    7.5590
  RMM-DIIS:  cpu time   27.5896: real time   27.6685
    ORTHCH:  cpu time    0.6616: real time    0.6631
       DOS:  cpu time    0.0016: real time    0.0016
    CHARGE:  cpu time    3.1041: real time    3.1115
    MIXING:  cpu time    0.0100: real time    0.0102
    --------------------------------------------
      LOOP:  cpu time   39.3184: real time   39.4308

 eigenvalue-minimisations  :  6763
 total energy-change (2. order) : 0.2539844E+02  (-0.6383037E+01)
 number of electron     641.0000055 magnetization      51.9228197
 augmentation part      195.2154430 magnetization      38.8495045

 Broyden mixing:
  rms(total) = 0.69144E+01    rms(broyden)= 0.69144E+01
  rms(prec ) = 0.72879E+01
  weight for this iteration     100.00

 eigenvalues of (default mixing * dielectric matrix)
  average eigenvalue GAMMA=   1.1962
  1.1962

 Free energy of the ion-electron system (eV)
  ---------------------------------------------------
  alpha Z        PSCENC =      2019.82280658
  Ewald energy   TEWEN  =    124354.49493184
  -Hartree energ DENC   =   -174754.47877760
  -exchange      EXHF   =         0.00000000
  -V(xc)+E(xc)   XCENC  =       233.69331855
  PAW double counting   =     50831.52199344   -49129.15983348
  entropy T*S    EENTRO =        -0.04153930
  eigenvalues    EBANDS =      -595.33486751
  atomic energy  EATOM  =     46675.88275157
  Solvation  Ediel_sol  =         0.00000000
  ---------------------------------------------------
  free energy    TOTEN  =      -363.59921590 eV

  energy without entropy =     -363.55767661  energy(sigma->0) =     -363.58536947


--------------------------------------------------------------------------------------------------------




--------------------------------------- Iteration      1(   7)  ---------------------------------------


    POTLOK:  cpu time    0.3831: real time    0.3840
    SETDIJ:  cpu time    0.0326: real time    0.0326
    EDDIAG:  cpu time    7.5346: real time    7.5527
  RMM-DIIS:  cpu time   26.9564: real time   27.0319
    ORTHCH:  cpu time    0.6591: real time    0.6611
       DOS:  cpu time    0.0016: real time    0.0016
    CHARGE:  cpu time    3.1775: real time    3.1867
    MIXING:  cpu time    0.0106: real time    0.0106
    --------------------------------------------
      LOOP:  cpu time   38.7556: real time   38.8613

 eigenvalue-minimisations  :  6720
 total energy-change (2. order) :-0.1146205E+03  (-0.1397440E+02)
 number of electron     641.0000065 magnetization      46.0170269
 augmentation part      192.4193234 magnetization      34.1900654

 Broyden mixing:
  rms(total) = 0.10157E+02    rms(broyden)= 0.10157E+02
  rms(prec ) = 0.12592E+02
  weight for this iteration     100.00

 eigenvalues of (default mixing * dielectric matrix)
  average eigenvalue GAMMA=   1.0049
  1.7012  0.3085

 Free energy of the ion-electron system (eV)
  ---------------------------------------------------
  alpha Z        PSCENC =      2019.82280658
  Ewald energy   TEWEN  =    124354.49493184
  -Hartree energ DENC   =   -175301.07948428
  -exchange      EXHF   =         0.00000000
  -V(xc)+E(xc)   XCENC  =       228.92129602
  PAW double counting   =     55949.37174180   -54303.35571945
  entropy T*S    EENTRO =        -0.00115259
  eigenvalues    EBANDS =      -102.27685207
  atomic energy  EATOM  =     46675.88275157
  Solvation  Ediel_sol  =         0.00000000
  ---------------------------------------------------
  free energy    TOTEN  =      -478.21968058 eV

  energy without entropy =     -478.21852799  energy(sigma->0) =     -478.21929638


--------------------------------------------------------------------------------------------------------




--------------------------------------- Iteration      1(   8)  ---------------------------------------


    POTLOK:  cpu time    0.3808: real time    0.3817
    SETDIJ:  cpu time    0.0327: real time    0.0327
    EDDIAG:  cpu time    7.5694: real time    7.5919
  RMM-DIIS:  cpu time   27.1799: real time   27.2594
    ORTHCH:  cpu time    0.6577: real time    0.6598
       DOS:  cpu time    0.0015: real time    0.0015
    CHARGE:  cpu time    3.1220: real time    3.1310
    MIXING:  cpu time    0.0109: real time    0.0109
    --------------------------------------------
      LOOP:  cpu time   38.9549: real time   39.0691

 eigenvalue-minimisations  :  6740
 total energy-change (2. order) : 0.1037804E+03  (-0.5287072E+01)
 number of electron     641.0000063 magnetization      43.6641293
 augmentation part      197.8944027 magnetization      32.7822458

 Broyden mixing:
  rms(total) = 0.48227E+01    rms(broyden)= 0.48227E+01
  rms(prec ) = 0.58510E+01
  weight for this iteration     100.00

 eigenvalues of (default mixing * dielectric matrix)
  average eigenvalue GAMMA=   0.9373
  2.0166  0.4779  0.3174

 Free energy of the ion-electron system (eV)
  ---------------------------------------------------
  alpha Z        PSCENC =      2019.82280658
  Ewald energy   TEWEN  =    124354.49493184
  -Hartree energ DENC   =   -174838.70923794
  -exchange      EXHF   =         0.00000000
  -V(xc)+E(xc)   XCENC  =       231.04036231
  PAW double counting   =     59668.51802660   -58067.35160588
  entropy T*S    EENTRO =        -0.01555271
  eigenvalues    EBANDS =      -418.12179385
  atomic energy  EATOM  =     46675.88275157
  Solvation  Ediel_sol  =         0.00000000
  ---------------------------------------------------
  free energy    TOTEN  =      -374.43931148 eV

  energy without entropy =     -374.42375877  energy(sigma->0) =     -374.43412724


--------------------------------------------------------------------------------------------------------




--------------------------------------- Iteration      1(   9)  ---------------------------------------


    POTLOK:  cpu time    0.3797: real time    0.3806
    SETDIJ:  cpu time    0.0326: real time    0.0327
    EDDIAG:  cpu time    7.5357: real time    7.5581
  RMM-DIIS:  cpu time   27.1690: real time   27.2479
    ORTHCH:  cpu time    0.6601: real time    0.6623
       DOS:  cpu time    0.0016: real time    0.0016
    CHARGE:  cpu time    3.1109: real time    3.1199
    MIXING:  cpu time    0.0111: real time    0.0111
    --------------------------------------------
      LOOP:  cpu time   38.9008: real time   39.0143

 eigenvalue-minimisations  :  6737
 total energy-change (2. order) :-0.1157537E+02  (-0.3012333E+01)
 number of electron     641.0000055 magnetization      41.4306805
 augmentation part      197.8042826 magnetization      33.3929309

 Broyden mixing:
  rms(total) = 0.53950E+01    rms(broyden)= 0.53950E+01
  rms(prec ) = 0.83948E+01
  weight for this iteration     100.00

 eigenvalues of (default mixing * dielectric matrix)
  average eigenvalue GAMMA=   0.8389
  2.2019  0.6537  0.3324  0.1677

 Free energy of the ion-electron system (eV)
  ---------------------------------------------------
  alpha Z        PSCENC =      2019.82280658
  Ewald energy   TEWEN  =    124354.49493184
  -Hartree energ DENC   =   -174764.88073352
  -exchange      EXHF   =         0.00000000
  -V(xc)+E(xc)   XCENC  =       230.42260909
  PAW double counting   =     60321.92307693   -58725.96975360
  entropy T*S    EENTRO =         0.00533227
  eigenvalues    EBANDS =      -497.71569817
  atomic energy  EATOM  =     46675.88275157
  Solvation  Ediel_sol  =         0.00000000
  ---------------------------------------------------
  free energy    TOTEN  =      -386.01467700 eV

  energy without entropy =     -386.02000927  energy(sigma->0) =     -386.01645442


--------------------------------------------------------------------------------------------------------




--------------------------------------- Iteration      1(  10)  ---------------------------------------


    POTLOK:  cpu time    0.3801: real time    0.3810
    SETDIJ:  cpu time    0.0324: real time    0.0327
    EDDIAG:  cpu time    7.5474: real time    7.5696
  RMM-DIIS:  cpu time   27.2485: real time   27.3278
    ORTHCH:  cpu time    0.6594: real time    0.6615
       DOS:  cpu time    0.0020: real time    0.0020
    CHARGE:  cpu time    3.1281: real time    3.1370
    MIXING:  cpu time    0.0109: real time    0.0110
    --------------------------------------------
      LOOP:  cpu time   39.0088: real time   39.1225

 eigenvalue-minimisations  :  6755
 total energy-change (2. order) : 0.2274262E+02  (-0.1455306E+01)
 number of electron     641.0000060 magnetization      39.1408061
 augmentation part      197.5252715 magnetization      29.1679713

 Broyden mixing:
  rms(total) = 0.36253E+01    rms(broyden)= 0.36253E+01
  rms(prec ) = 0.44079E+01
  weight for this iteration     100.00

 eigenvalues of (default mixing * dielectric matrix)
  average eigenvalue GAMMA=   0.7362
  2.2398  0.6490  0.4064  0.2563  0.1293

 Free energy of the ion-electron system (eV)
  ---------------------------------------------------
  alpha Z        PSCENC =      2019.82280658
  Ewald energy   TEWEN  =    124354.49493184
  -Hartree energ DENC   =   -174853.46079346
  -exchange      EXHF   =         0.00000000
  -V(xc)+E(xc)   XCENC  =       229.75733707
  PAW double counting   =     60690.35917204   -59096.12606345
  entropy T*S    EENTRO =         0.02621480
  eigenvalues    EBANDS =      -384.02841365
  atomic energy  EATOM  =     46675.88275157
  Solvation  Ediel_sol  =         0.00000000
  ---------------------------------------------------
  free energy    TOTEN  =      -363.27205666 eV

  energy without entropy =     -363.29827145  energy(sigma->0) =     -363.28079492


--------------------------------------------------------------------------------------------------------




--------------------------------------- Iteration      1(  11)  ---------------------------------------


    POTLOK:  cpu time    0.3848: real time    0.3859
    SETDIJ:  cpu time    0.0331: real time    0.0332
    EDDIAG:  cpu time    7.5444: real time    7.5665
  RMM-DIIS:  cpu time   27.3893: real time   27.4711
    ORTHCH:  cpu time    0.6583: real time    0.6599
       DOS:  cpu time    0.0015: real time    0.0015
    CHARGE:  cpu time    3.0898: real time    3.0972
    MIXING:  cpu time    0.0096: real time    0.0096
    --------------------------------------------
      LOOP:  cpu time   39.1108: real time   39.2248

 eigenvalue-minimisations  :  6753
 total energy-change (2. order) : 0.9466598E+01  (-0.6673459E+00)
 number of electron     641.0000058 magnetization      37.8522218
 augmentation part      197.6417750 magnetization      27.2149149

 Broyden mixing:
  rms(total) = 0.16281E+01    rms(broyden)= 0.16281E+01
  rms(prec ) = 0.18338E+01
  weight for this iteration     100.00

 eigenvalues of (default mixing * dielectric matrix)
  average eigenvalue GAMMA=   0.6863
  2.1712  0.5978  0.5978  0.3108  0.3108  0.1294

 Free energy of the ion-electron system (eV)
  ---------------------------------------------------
  alpha Z        PSCENC =      2019.82280658
  Ewald energy   TEWEN  =    124354.49493184
  -Hartree energ DENC   =   -174834.13502072
  -exchange      EXHF   =         0.00000000
  -V(xc)+E(xc)   XCENC  =       229.24329840
  PAW double counting   =     60842.80397042   -59249.31605453
  entropy T*S    EENTRO =         0.00287403
  eigenvalues    EBANDS =      -392.60501593
  atomic energy  EATOM  =     46675.88275157
  Solvation  Ediel_sol  =         0.00000000
  ---------------------------------------------------
  free energy    TOTEN  =      -353.80545833 eV

  energy without entropy =     -353.80833237  energy(sigma->0) =     -353.80641634


--------------------------------------------------------------------------------------------------------




--------------------------------------- Iteration      1(  12)  ---------------------------------------


    POTLOK:  cpu time    0.3871: real time    0.3891
    SETDIJ:  cpu time    0.0364: real time    0.0365
    EDDIAG:  cpu time    7.5398: real time    7.5578
  RMM-DIIS:  cpu time   27.4206: real time   27.5044
    ORTHCH:  cpu time    0.6594: real time    0.6609
       DOS:  cpu time    0.0017: real time    0.0017
    CHARGE:  cpu time    3.0981: real time    3.1055
    MIXING:  cpu time    0.0131: real time    0.0131
    --------------------------------------------
      LOOP:  cpu time   39.1562: real time   39.2691

 eigenvalue-minimisations  :  6761
 total energy-change (2. order) :-0.2002998E+01  (-0.2055839E+00)
 number of electron     641.0000056 magnetization      36.2658250
 augmentation part      197.4741994 magnetization      26.7290768

 Broyden mixing:
  rms(total) = 0.15361E+01    rms(broyden)= 0.15361E+01
  rms(prec ) = 0.17107E+01
  weight for this iteration     100.00

 eigenvalues of (default mixing * dielectric matrix)
  average eigenvalue GAMMA=   0.6643
  2.1678  0.6474  0.6474  0.5353  0.2621  0.2621  0.1281

 Free energy of the ion-electron system (eV)
  ---------------------------------------------------
  alpha Z        PSCENC =      2019.82280658
  Ewald energy   TEWEN  =    124354.49493184
  -Hartree energ DENC   =   -174806.42324903
  -exchange      EXHF   =         0.00000000
  -V(xc)+E(xc)   XCENC  =       228.59976856
  PAW double counting   =     60639.27145912   -59043.32476537
  entropy T*S    EENTRO =         0.03374034
  eigenvalues    EBANDS =      -424.16590015
  atomic energy  EATOM  =     46675.88275157
  Solvation  Ediel_sol  =         0.00000000
  ---------------------------------------------------
  free energy    TOTEN  =      -355.80845655 eV

  energy without entropy =     -355.84219689  energy(sigma->0) =     -355.81970333


--------------------------------------------------------------------------------------------------------




--------------------------------------- Iteration      1(  13)  ---------------------------------------


    POTLOK:  cpu time    0.3707: real time    0.3716
    SETDIJ:  cpu time    0.0332: real time    0.0332
    EDDIAG:  cpu time    7.5382: real time    7.5560
  RMM-DIIS:  cpu time   27.3871: real time   27.4525
    ORTHCH:  cpu time    0.6553: real time    0.6569
       DOS:  cpu time    0.0017: real time    0.0017
    CHARGE:  cpu time    3.0872: real time    3.0950
    MIXING:  cpu time    0.0106: real time    0.0107
    --------------------------------------------
      LOOP:  cpu time   39.0840: real time   39.1777

 eigenvalue-minimisations  :  6762
 total energy-change (2. order) :-0.3281820E+00  (-0.8193245E-01)
 number of electron     641.0000056 magnetization      32.7784274
 augmentation part      197.4689584 magnetization      23.4516562

 Broyden mixing:
  rms(total) = 0.11103E+01    rms(broyden)= 0.11103E+01
  rms(prec ) = 0.11685E+01
  weight for this iteration     100.00

 eigenvalues of (default mixing * dielectric matrix)
  average eigenvalue GAMMA=   0.7058
  2.2032  0.8474  0.8474  0.7693  0.1282  0.3022  0.3022  0.2462

 Free energy of the ion-electron system (eV)
  ---------------------------------------------------
  alpha Z        PSCENC =      2019.82280658
  Ewald energy   TEWEN  =    124354.49493184
  -Hartree energ DENC   =   -174813.62760341
  -exchange      EXHF   =         0.00000000
  -V(xc)+E(xc)   XCENC  =       227.98284456
  PAW double counting   =     60625.44042308   -59029.48500734
  entropy T*S    EENTRO =         0.03198881
  eigenvalues    EBANDS =      -416.67977421
  atomic energy  EATOM  =     46675.88275157
  Solvation  Ediel_sol  =         0.00000000
  ---------------------------------------------------
  free energy    TOTEN  =      -356.13663852 eV

  energy without entropy =     -356.16862733  energy(sigma->0) =     -356.14730145


--------------------------------------------------------------------------------------------------------




--------------------------------------- Iteration      1(  14)  ---------------------------------------


    POTLOK:  cpu time    0.3809: real time    0.3819
    SETDIJ:  cpu time    0.0327: real time    0.0328
    EDDIAG:  cpu time    7.5329: real time    7.5521
  RMM-DIIS:  cpu time   27.4478: real time   27.5275
    ORTHCH:  cpu time    0.6550: real time    0.6571
       DOS:  cpu time    0.0017: real time    0.0017
    CHARGE:  cpu time    3.0794: real time    3.0883
    MIXING:  cpu time    0.0119: real time    0.0119
    --------------------------------------------
      LOOP:  cpu time   39.1424: real time   39.2533

 eigenvalue-minimisations  :  6756
 total energy-change (2. order) :-0.2342840E+01  (-0.1109168E+00)
 number of electron     641.0000057 magnetization      27.9736993
 augmentation part      197.3971569 magnetization      18.2075715

 Broyden mixing:
  rms(total) = 0.98376E+00    rms(broyden)= 0.98376E+00
  rms(prec ) = 0.10859E+01
  weight for this iteration     100.00

 eigenvalues of (default mixing * dielectric matrix)
  average eigenvalue GAMMA=   0.7327
  2.2636  1.0961  1.0961  0.7911  0.4133  0.1282  0.2603  0.2603  0.2851

 Free energy of the ion-electron system (eV)
  ---------------------------------------------------
  alpha Z        PSCENC =      2019.82280658
  Ewald energy   TEWEN  =    124354.49493184
  -Hartree energ DENC   =   -174818.04627241
  -exchange      EXHF   =         0.00000000
  -V(xc)+E(xc)   XCENC  =       226.72462423
  PAW double counting   =     60664.63020734   -59069.36170443
  entropy T*S    EENTRO =         0.00457473
  eigenvalues    EBANDS =      -412.63139823
  atomic energy  EATOM  =     46675.88275157
  Solvation  Ediel_sol  =         0.00000000
  ---------------------------------------------------
  free energy    TOTEN  =      -358.47947878 eV

  energy without entropy =     -358.48405352  energy(sigma->0) =     -358.48100369


--------------------------------------------------------------------------------------------------------




--------------------------------------- Iteration      1(  15)  ---------------------------------------


    POTLOK:  cpu time    0.3806: real time    0.3817
    SETDIJ:  cpu time    0.0327: real time    0.0328
    EDDIAG:  cpu time    7.5449: real time    7.5670
  RMM-DIIS:  cpu time   27.4160: real time   27.4956
    ORTHCH:  cpu time    0.6783: real time    0.6803
       DOS:  cpu time    0.0017: real time    0.0017
    CHARGE:  cpu time    3.0724: real time    3.0813
    MIXING:  cpu time    0.0127: real time    0.0128
    --------------------------------------------
      LOOP:  cpu time   39.1392: real time   39.2531

 eigenvalue-minimisations  :  6755
 total energy-change (2. order) :-0.3894098E+01  (-0.1626033E+00)
 number of electron     641.0000058 magnetization      24.9730001
 augmentation part      197.2640620 magnetization      16.1023907

 Broyden mixing:
  rms(total) = 0.67369E+00    rms(broyden)= 0.67368E+00
  rms(prec ) = 0.73591E+00
  weight for this iteration     100.00

 eigenvalues of (default mixing * dielectric matrix)
  average eigenvalue GAMMA=   0.7529
  2.1792  1.7244  0.8461  0.8461  0.5054  0.5054  0.1282  0.2759  0.2759  0.2428

 Free energy of the ion-electron system (eV)
  ---------------------------------------------------
  alpha Z        PSCENC =      2019.82280658
  Ewald energy   TEWEN  =    124354.49493184
  -Hartree energ DENC   =   -174838.10512374
  -exchange      EXHF   =         0.00000000
  -V(xc)+E(xc)   XCENC  =       224.22528887
  PAW double counting   =     60695.31363155   -59100.44418407
  entropy T*S    EENTRO =        -0.02931673
  eigenvalues    EBANDS =      -393.53436215
  atomic energy  EATOM  =     46675.88275157
  Solvation  Ediel_sol  =         0.00000000
  ---------------------------------------------------
  free energy    TOTEN  =      -362.37357629 eV

  energy without entropy =     -362.34425955  energy(sigma->0) =     -362.36380404


--------------------------------------------------------------------------------------------------------




--------------------------------------- Iteration      1(  16)  ---------------------------------------


    POTLOK:  cpu time    0.3804: real time    0.3819
    SETDIJ:  cpu time    0.0332: real time    0.0333
    EDDIAG:  cpu time    7.5361: real time    7.5577
  RMM-DIIS:  cpu time   27.3548: real time   27.4342
    ORTHCH:  cpu time    0.6600: real time    0.6615
       DOS:  cpu time    0.0017: real time    0.0017
    CHARGE:  cpu time    3.0728: real time    3.0817
    MIXING:  cpu time    0.0117: real time    0.0118
    --------------------------------------------
      LOOP:  cpu time   39.0506: real time   39.1637

 eigenvalue-minimisations  :  6748
 total energy-change (2. order) :-0.2458939E+01  (-0.1126807E+00)
 number of electron     641.0000057 magnetization      21.7539329
 augmentation part      197.1279236 magnetization      13.2577949

 Broyden mixing:
  rms(total) = 0.48213E+00    rms(broyden)= 0.48213E+00
  rms(prec ) = 0.51581E+00
  weight for this iteration     100.00

 eigenvalues of (default mixing * dielectric matrix)
  average eigenvalue GAMMA=   0.8263
  2.4436  2.4436  0.7712  0.7712  0.6913  0.6913  0.1282  0.3637  0.2728  0.2728
  0.2401

 Free energy of the ion-electron system (eV)
  ---------------------------------------------------
  alpha Z        PSCENC =      2019.82280658
  Ewald energy   TEWEN  =    124354.49493184
  -Hartree energ DENC   =   -174842.42373297
  -exchange      EXHF   =         0.00000000
  -V(xc)+E(xc)   XCENC  =       222.63449506
  PAW double counting   =     60621.98650969   -59026.23543175
  entropy T*S    EENTRO =        -0.01102498
  eigenvalues    EBANDS =      -390.98381993
  atomic energy  EATOM  =     46675.88275157
  Solvation  Ediel_sol  =         0.00000000
  ---------------------------------------------------
  free energy    TOTEN  =      -364.83251489 eV

  energy without entropy =     -364.82148991  energy(sigma->0) =     -364.82883990


--------------------------------------------------------------------------------------------------------




--------------------------------------- Iteration      1(  17)  ---------------------------------------


    POTLOK:  cpu time    0.3780: real time    0.3792
    SETDIJ:  cpu time    0.0340: real time    0.0341
    EDDIAG:  cpu time    7.5408: real time    7.5629
  RMM-DIIS:  cpu time   27.3072: real time   27.3869
    ORTHCH:  cpu time    0.6585: real time    0.6603
       DOS:  cpu time    0.0018: real time    0.0018
    CHARGE:  cpu time    3.0736: real time    3.0826
    MIXING:  cpu time    0.0125: real time    0.0126
    --------------------------------------------
      LOOP:  cpu time   39.0065: real time   39.1204

 eigenvalue-minimisations  :  6740
 total energy-change (2. order) :-0.2411539E+01  (-0.1077339E+00)
 number of electron     641.0000057 magnetization      20.0254826
 augmentation part      197.0618523 magnetization      12.3284227

 Broyden mixing:
  rms(total) = 0.45105E+00    rms(broyden)= 0.45105E+00
  rms(prec ) = 0.50672E+00
  weight for this iteration     100.00

 eigenvalues of (default mixing * dielectric matrix)
  average eigenvalue GAMMA=   0.8463
  2.8668  2.4929  0.8820  0.8820  0.6782  0.6782  0.4408  0.1282  0.3206  0.2714
  0.2714  0.2429

 Free energy of the ion-electron system (eV)
  ---------------------------------------------------
  alpha Z        PSCENC =      2019.82280658
  Ewald energy   TEWEN  =    124354.49493184
  -Hartree energ DENC   =   -174838.33922070
  -exchange      EXHF   =         0.00000000
  -V(xc)+E(xc)   XCENC  =       221.04580254
  PAW double counting   =     60533.42435634   -58936.71820024
  entropy T*S    EENTRO =        -0.00700768
  eigenvalues    EBANDS =      -396.85027453
  atomic energy  EATOM  =     46675.88275157
  Solvation  Ediel_sol  =         0.00000000
  ---------------------------------------------------
  free energy    TOTEN  =      -367.24405429 eV

  energy without entropy =     -367.23704660  energy(sigma->0) =     -367.24171839


--------------------------------------------------------------------------------------------------------




--------------------------------------- Iteration      1(  18)  ---------------------------------------


    POTLOK:  cpu time    0.3808: real time    0.3820
    SETDIJ:  cpu time    0.0340: real time    0.0341
    EDDIAG:  cpu time    7.5522: real time    7.5738
  RMM-DIIS:  cpu time   27.3909: real time   27.4709
    ORTHCH:  cpu time    0.7346: real time    0.7368
       DOS:  cpu time    0.0016: real time    0.0016
    CHARGE:  cpu time    3.0943: real time    3.1064
    MIXING:  cpu time    0.0128: real time    0.0128
    --------------------------------------------
      LOOP:  cpu time   39.2013: real time   39.3186

 eigenvalue-minimisations  :  6747
 total energy-change (2. order) :-0.1036073E+01  (-0.4548148E-01)
 number of electron     641.0000057 magnetization      17.1566757
 augmentation part      197.0462347 magnetization      10.1993611

 Broyden mixing:
  rms(total) = 0.42519E+00    rms(broyden)= 0.42519E+00
  rms(prec ) = 0.46580E+00
  weight for this iteration     100.00

 eigenvalues of (default mixing * dielectric matrix)
  average eigenvalue GAMMA=   0.8718
  3.3832  2.4540  1.0506  1.0506  0.6503  0.6503  0.5690  0.3740  0.1282  0.2675
  0.2675  0.2355  0.2524

 Free energy of the ion-electron system (eV)
  ---------------------------------------------------
  alpha Z        PSCENC =      2019.82280658
  Ewald energy   TEWEN  =    124354.49493184
  -Hartree energ DENC   =   -174831.78635318
  -exchange      EXHF   =         0.00000000
  -V(xc)+E(xc)   XCENC  =       220.27051863
  PAW double counting   =     60495.97734990   -58898.89149177
  entropy T*S    EENTRO =        -0.00903609
  eigenvalues    EBANDS =      -404.04160471
  atomic energy  EATOM  =     46675.88275157
  Solvation  Ediel_sol  =         0.00000000
  ---------------------------------------------------
  free energy    TOTEN  =      -368.28012724 eV

  energy without entropy =     -368.27109115  energy(sigma->0) =     -368.27711521


--------------------------------------------------------------------------------------------------------




--------------------------------------- Iteration      1(  19)  ---------------------------------------


    POTLOK:  cpu time    0.3825: real time    0.3834
    SETDIJ:  cpu time    0.0342: real time    0.0343
    EDDIAG:  cpu time    7.5536: real time    7.5760
  RMM-DIIS:  cpu time   27.2994: real time   27.3785
    ORTHCH:  cpu time    0.6597: real time    0.6619
       DOS:  cpu time    0.0017: real time    0.0017
    CHARGE:  cpu time    3.0776: real time    3.0864
    MIXING:  cpu time    0.0129: real time    0.0130
    --------------------------------------------
      LOOP:  cpu time   39.0216: real time   39.1351

 eigenvalue-minimisations  :  6738
 total energy-change (2. order) :-0.1084246E+01  (-0.5150854E-01)
 number of electron     641.0000057 magnetization      14.0333447
 augmentation part      197.0822704 magnetization       7.7409505

 Broyden mixing:
  rms(total) = 0.37884E+00    rms(broyden)= 0.37884E+00
  rms(prec ) = 0.42517E+00
  weight for this iteration     100.00

 eigenvalues of (default mixing * dielectric matrix)
  average eigenvalue GAMMA=   0.9536
  4.5787  2.2878  1.2745  1.2745  0.6962  0.6962  0.5969  0.4747  0.1282  0.3328
  0.2739  0.2739  0.2418  0.2204

 Free energy of the ion-electron system (eV)
  ---------------------------------------------------
  alpha Z        PSCENC =      2019.82280658
  Ewald energy   TEWEN  =    124354.49493184
  -Hartree energ DENC   =   -174816.57973978
  -exchange      EXHF   =         0.00000000
  -V(xc)+E(xc)   XCENC  =       219.30491302
  PAW double counting   =     60461.68878446   -58864.27162841
  entropy T*S    EENTRO =        -0.00596623
  eigenvalues    EBANDS =      -419.70122596
  atomic energy  EATOM  =     46675.88275157
  Solvation  Ediel_sol  =         0.00000000
  ---------------------------------------------------
  free energy    TOTEN  =      -369.36437292 eV

  energy without entropy =     -369.35840669  energy(sigma->0) =     -369.36238417


--------------------------------------------------------------------------------------------------------




--------------------------------------- Iteration      1(  20)  ---------------------------------------


    POTLOK:  cpu time    0.3846: real time    0.3857
    SETDIJ:  cpu time    0.0339: real time    0.0339
    EDDIAG:  cpu time    7.5462: real time    7.5682
  RMM-DIIS:  cpu time   27.4302: real time   27.5101
    ORTHCH:  cpu time    0.6593: real time    0.6612
       DOS:  cpu time    0.0017: real time    0.0017
    CHARGE:  cpu time    3.0998: real time    3.1086
    MIXING:  cpu time    0.0137: real time    0.0137
    --------------------------------------------
      LOOP:  cpu time   39.1693: real time   39.2831

 eigenvalue-minimisations  :  6747
 total energy-change (2. order) :-0.4070923E+00  (-0.3079964E-01)
 number of electron     641.0000057 magnetization      12.1940847
 augmentation part      197.1293239 magnetization       6.8327973

 Broyden mixing:
  rms(total) = 0.33456E+00    rms(broyden)= 0.33456E+00
  rms(prec ) = 0.40603E+00
  weight for this iteration     100.00

 eigenvalues of (default mixing * dielectric matrix)
  average eigenvalue GAMMA=   0.9788
  5.3383  2.1946  1.4004  1.4004  0.7255  0.7255  0.5951  0.4867  0.1282  0.3709
  0.3136  0.2726  0.2726  0.2428  0.2143

 Free energy of the ion-electron system (eV)
  ---------------------------------------------------
  alpha Z        PSCENC =      2019.82280658
  Ewald energy   TEWEN  =    124354.49493184
  -Hartree energ DENC   =   -174801.42006780
  -exchange      EXHF   =         0.00000000
  -V(xc)+E(xc)   XCENC  =       218.76547603
  PAW double counting   =     60479.52854256   -58882.33714899
  entropy T*S    EENTRO =        -0.02119571
  eigenvalues    EBANDS =      -434.48756132
  atomic energy  EATOM  =     46675.88275157
  Solvation  Ediel_sol  =         0.00000000
  ---------------------------------------------------
  free energy    TOTEN  =      -369.77146523 eV

  energy without entropy =     -369.75026952  energy(sigma->0) =     -369.76439999


--------------------------------------------------------------------------------------------------------




--------------------------------------- Iteration      1(  21)  ---------------------------------------


    POTLOK:  cpu time    0.3792: real time    0.3806
    SETDIJ:  cpu time    0.0341: real time    0.0342
    EDDIAG:  cpu time    7.5437: real time    7.5653
  RMM-DIIS:  cpu time   27.4189: real time   27.4992
    ORTHCH:  cpu time    0.6535: real time    0.6552
       DOS:  cpu time    0.0017: real time    0.0017
    CHARGE:  cpu time    3.0816: real time    3.0906
    MIXING:  cpu time    0.0175: real time    0.0176
    --------------------------------------------
      LOOP:  cpu time   39.1301: real time   39.2443

 eigenvalue-minimisations  :  6758
 total energy-change (2. order) :-0.7185270E-01  (-0.7915258E-02)
 number of electron     641.0000057 magnetization      10.2295574
 augmentation part      197.1320449 magnetization       5.3322434

 Broyden mixing:
  rms(total) = 0.22293E+00    rms(broyden)= 0.22293E+00
  rms(prec ) = 0.26907E+00
  weight for this iteration     100.00

 eigenvalues of (default mixing * dielectric matrix)
  average eigenvalue GAMMA=   1.0862
  6.9035  2.0957  1.5985  1.5985  0.8313  0.8313  0.6317  0.5625  0.5625  0.1282
  0.3488  0.2717  0.2717  0.2895  0.2421  0.2119

 Free energy of the ion-electron system (eV)
  ---------------------------------------------------
  alpha Z        PSCENC =      2019.82280658
  Ewald energy   TEWEN  =    124354.49493184
  -Hartree energ DENC   =   -174794.25798252
  -exchange      EXHF   =         0.00000000
  -V(xc)+E(xc)   XCENC  =       218.52023105
  PAW double counting   =     60507.32462132   -58910.41747009
  entropy T*S    EENTRO =        -0.02596808
  eigenvalues    EBANDS =      -441.18723961
  atomic energy  EATOM  =     46675.88275157
  Solvation  Ediel_sol  =         0.00000000
  ---------------------------------------------------
  free energy    TOTEN  =      -369.84331793 eV

  energy without entropy =     -369.81734986  energy(sigma->0) =     -369.83466191


--------------------------------------------------------------------------------------------------------




--------------------------------------- Iteration      1(  22)  ---------------------------------------


    POTLOK:  cpu time    0.4363: real time    0.4376
    SETDIJ:  cpu time    0.0405: real time    0.0406
    EDDIAG:  cpu time    7.5625: real time    7.5845
  RMM-DIIS:  cpu time   27.2939: real time   27.3736
[...]
  0.000   0.000  -0.000  -0.000  -0.000  -0.000   0.000  -0.000   0.000   0.000   0.000   0.000   0.000  -0.000  -0.000  -0.000
 -0.000   0.000   0.000   0.000  -0.000   0.000  -0.000   0.000  -0.000   0.000   0.000  -0.000  -0.000  -0.000  -0.000   0.000


------------------------ aborting loop because EDIFF is reached ----------------------------------------


    CHARGE:  cpu time    3.0735: real time    3.0809
    FORLOC:  cpu time    0.0713: real time    0.0715
    FORNL :  cpu time   12.3382: real time   12.3745
    STRESS:  cpu time   37.0138: real time   37.1211
    FORCOR:  cpu time    0.4180: real time    0.4190
    FORHAR:  cpu time    0.1034: real time    0.1043
    MIXING:  cpu time    0.0396: real time    0.0397
    OFIELD:  cpu time    0.0001: real time    0.0003

 ---------------------------------------------------------------------------------------------

         DFTD3 V3.0 Rev 1        
 IVDW         = 11
 DF pbe       
 parameters
 VDW_S6       =    1.0000
 VDW_S8       =    0.7220
 VDW_SR       =    1.2170
 rs18     =    1.0000
 alpha6   =   14.0000
 alpha8   =   16.0000
 k1-k3    =   16.0000    1.3333   -4.0000
 VDW_RADIUS   =   50.2022 A
 VDW_CNRADIUS =   21.1671 A
 Edisp (eV)  -38.62205

 E6    (eV) :   -14.2552
 E8    (eV) :   -24.3669
 % E8        : 63.09
    FORVDW:  cpu time    0.3228: real time    0.3255

  FORCE on cell =-STRESS in cart. coord.  units (eV):
  Direction    XX          YY          ZZ          XY          YZ          ZX
  --------------------------------------------------------------------------------------
  Alpha Z  2019.82281  2019.82281  2019.82281
  Ewald  161387.76802161388.43599************     0.16151     0.16055    -0.08621
  Hartree172355.31083172355.58304************     0.07031     0.04239    -0.02600
  E(xc)   -2858.33571 -2858.33001 -2883.70503     0.00110     0.00202    -0.00079
  Local  ************************355706.10560    -0.19998    -0.14139     0.08536
  n-local   567.89166   567.95860   312.52752     0.01090    -0.00530    -0.00071
  augment  3256.40971  3256.33126  3528.23398    -0.01565    -0.02061     0.00918
  Kinetic  9163.74781  9163.58841  9740.42415    -0.03236    -0.05070     0.02173
  Fock        0.00000     0.00000     0.00000     0.00000     0.00000     0.00000
  vdW       -53.08340   -53.09015   -28.32119    -0.00129     0.00115    -0.00032
  -------------------------------------------------------------------------------------
  Total      77.14743    77.12719    -0.69135    -0.00546    -0.01189     0.00224
  in kB      63.99463    63.97784    -0.57348    -0.00453    -0.00986     0.00186
  external pressure =       42.47 kB  Pullay stress =        0.00 kB


 VOLUME and BASIS-vectors are now :
 -----------------------------------------------------------------------------
  energy-cutoff  :      550.00
  volume of cell :     1931.47
      direct lattice vectors                 reciprocal lattice vectors
    10.560000420  0.000000000  0.000000000     0.094696966  0.054673319  0.000000000
    -5.280000210  9.145228627  0.000000000     0.000000000  0.109346638  0.000000000
     0.000000000  0.000000000 20.000000000     0.000000000  0.000000000  0.050000000

  length of vectors
    10.560000420 10.560000420 20.000000000     0.109346638  0.109346638  0.050000000


 FORCES acting on ions
    electron-ion (+dipol)            ewald-force                    non-local-force                 convergence-correction
 -----------------------------------------------------------------------------------------------
   -.521E+00 -.164E+02 0.231E+04   0.601E+00 0.164E+02 -.231E+04   -.540E-01 0.875E-01 -.264E+00   0.177E-03 0.175E-03 0.154E-03
   0.701E+01 -.234E+02 0.767E+03   -.718E+01 0.236E+02 -.766E+03   0.196E+00 -.257E+00 -.469E+00   -.146E-03 -.148E-03 0.374E-03
   -.108E+01 -.639E+00 -.914E+03   0.111E+01 0.659E+00 0.914E+03   -.700E-01 -.420E-01 0.138E+00   0.152E-04 0.854E-04 0.437E-03
   0.407E+01 0.344E+02 -.225E+04   -.396E+01 -.340E+02 0.225E+04   -.117E+00 -.429E+00 -.225E-01   0.126E-03 -.100E-04 -.141E-03
   -.156E+02 -.896E+01 0.230E+04   0.158E+02 0.909E+01 -.230E+04   -.530E-01 -.310E-01 -.145E-01   0.236E-03 0.170E-03 0.555E-04
   0.326E-01 0.380E-01 0.626E+03   -.325E-01 -.381E-01 -.624E+03   -.102E-02 -.155E-02 -.149E+01   -.947E-04 -.135E-03 0.394E-03
   0.795E-01 -.396E+01 -.771E+03   -.796E-01 0.444E+01 0.771E+03   -.677E-03 -.455E+00 0.856E-01   -.363E-05 -.199E-03 0.224E-03
   0.353E+02 0.203E+02 -.229E+04   -.349E+02 -.200E+02 0.229E+04   -.429E+00 -.247E+00 0.302E+00   0.190E-03 0.321E-03 0.137E-04
   0.818E-04 -.255E+02 0.228E+04   -.106E-03 0.257E+02 -.228E+04   0.170E-03 0.174E-01 0.111E+00   -.109E-03 -.411E-04 -.120E-04
   -.237E+02 0.571E+01 0.767E+03   0.240E+02 -.569E+01 -.767E+03   -.324E+00 -.412E-01 -.466E+00   -.110E-03 0.171E-04 0.337E-03
   0.981E-01 -.957E+00 -.742E+03   -.127E+00 0.112E+01 0.741E+03   0.535E-01 -.166E+00 0.420E+00   -.113E-03 -.698E-04 0.300E-03
   -.846E-02 0.575E+02 -.239E+04   0.825E-02 -.579E+02 0.239E+04   0.331E-03 0.452E+00 -.904E-01   0.175E-04 0.347E-03 -.238E-04
   0.550E+00 -.164E+02 0.231E+04   -.631E+00 0.164E+02 -.231E+04   0.540E-01 0.876E-01 -.264E+00   -.168E-03 0.532E-04 0.101E-03
   -.692E+01 -.233E+02 0.767E+03   0.709E+01 0.236E+02 -.766E+03   -.196E+00 -.258E+00 -.468E+00   0.494E-04 -.122E-03 0.321E-03
   0.116E+01 -.674E+00 -.914E+03   -.119E+01 0.694E+00 0.914E+03   0.693E-01 -.422E-01 0.137E+00   0.215E-04 0.650E-04 0.475E-03
   -.407E+01 0.345E+02 -.225E+04   0.396E+01 -.340E+02 0.225E+04   0.117E+00 -.429E+00 -.221E-01   -.394E-04 -.235E-04 -.108E-03
   -.110E+01 -.599E+00 0.231E+04   0.107E+01 0.584E+00 -.231E+04   0.178E-02 0.346E-03 -.313E+00   -.214E-03 -.574E-04 0.111E-03
   -.469E+01 -.271E+01 0.793E+03   0.487E+01 0.281E+01 -.793E+03   -.201E+00 -.114E+00 -.411E+00   0.127E-03 0.825E-04 0.446E-03
   0.769E+00 0.322E+00 -.741E+03   -.927E+00 -.380E+00 0.741E+03   0.173E+00 0.376E-01 0.421E+00   0.695E-04 0.267E-03 0.357E-03
   0.144E+01 0.771E+00 -.228E+04   -.143E+01 -.769E+00 0.228E+04   -.422E-02 0.531E-03 0.735E-01   -.707E-04 -.153E-03 -.364E-04
   0.156E+02 -.898E+01 0.230E+04   -.158E+02 0.911E+01 -.230E+04   0.532E-01 -.311E-01 -.140E-01   -.225E-03 0.153E-04 0.173E-04
   -.129E-01 0.614E+01 0.807E+03   0.125E-01 -.613E+01 -.807E+03   0.369E-03 -.161E-01 -.255E+00   0.865E-04 0.193E-03 0.550E-03
   -.104E+00 -.144E+00 -.752E+03   0.105E+00 0.143E+00 0.752E+03   0.104E-02 0.365E-02 0.423E+00   -.206E-04 -.107E-04 0.272E-03
   -.353E+02 0.203E+02 -.229E+04   0.348E+02 -.200E+02 0.229E+04   0.429E+00 -.247E+00 0.302E+00   -.185E-03 0.237E-03 -.309E-04
   -.423E-02 0.125E+01 0.231E+04   0.393E-02 -.122E+01 -.231E+04   -.519E-04 -.182E-02 -.313E+00   0.972E-04 0.232E-03 0.138E-03
   0.236E+02 0.563E+01 0.767E+03   -.240E+02 -.561E+01 -.767E+03   0.324E+00 -.401E-01 -.466E+00   0.134E-03 -.509E-05 0.503E-03
   -.552E-01 -.943E+00 -.742E+03   0.845E-01 0.111E+01 0.741E+03   -.546E-01 -.166E+00 0.420E+00   0.139E-03 -.149E-03 0.193E-03
   -.207E-01 -.169E+01 -.228E+04   0.214E-01 0.168E+01 0.228E+04   -.171E-03 0.309E-02 0.736E-01   -.277E-04 0.222E-03 -.581E-04
   0.107E+01 -.583E+00 0.231E+04   -.104E+01 0.567E+00 -.231E+04   -.162E-02 0.229E-03 -.312E+00   0.205E-03 0.600E-04 0.155E-03
   0.460E+01 -.276E+01 0.793E+03   -.478E+01 0.286E+01 -.793E+03   0.202E+00 -.114E+00 -.412E+00   -.290E-04 0.597E-04 0.505E-03
   -.846E+00 0.388E+00 -.741E+03   0.101E+01 -.446E+00 0.741E+03   -.173E+00 0.358E-01 0.421E+00   -.959E-04 0.290E-03 0.310E-03
   -.145E+01 0.720E+00 -.228E+04   0.144E+01 -.719E+00 0.228E+04   0.410E-02 0.178E-02 0.733E-01   -.164E-04 -.136E-03 -.589E-04
   -.145E+02 0.774E+01 0.231E+04   0.145E+02 -.767E+01 -.231E+04   0.488E-01 -.905E-01 -.265E+00   0.158E-03 0.283E-04 0.944E-04
   -.167E+02 0.177E+02 0.767E+03   0.169E+02 -.180E+02 -.767E+03   -.127E+00 0.298E+00 -.469E+00   -.185E-03 -.187E-04 0.442E-03
   -.514E+00 -.264E+00 -.706E+03   0.642E+00 0.337E+00 0.706E+03   -.109E+00 -.630E-01 0.424E+00   -.202E-03 -.191E-03 0.308E-03
   0.319E+02 -.138E+02 -.225E+04   -.314E+02 0.136E+02 0.225E+04   -.431E+00 0.116E+00 -.237E-01   0.124E-03 0.160E-03 -.116E-03
   0.227E-01 -.137E-01 0.232E+04   -.230E-01 0.140E-01 -.232E+04   0.544E-04 -.229E-03 -.410E+00   0.119E-03 0.249E-04 0.183E-03
   -.528E+01 -.302E+01 0.807E+03   0.527E+01 0.301E+01 -.807E+03   0.123E-01 0.568E-02 -.255E+00   -.214E-03 -.621E-04 0.492E-03
   -.333E+01 0.205E+01 -.771E+03   0.375E+01 -.230E+01 0.771E+03   -.396E+00 0.226E+00 0.867E-01   -.217E-03 0.102E-03 0.468E-03
   -.475E-01 0.173E+00 -.223E+04   0.470E-01 -.172E+00 0.223E+04   0.106E-02 -.500E-02 0.278E+00   0.564E-04 -.183E-03 -.299E-03
   -.140E+02 0.865E+01 0.231E+04   0.139E+02 -.873E+01 -.231E+04   0.103E+00 0.262E-02 -.264E+00   -.107E-03 -.165E-03 0.482E-04
   0.671E-01 -.130E+02 0.808E+03   -.673E-01 0.132E+02 -.808E+03   -.425E-03 -.197E+00 -.194E+00   -.566E-04 -.227E-04 0.558E-03
   0.287E-01 0.136E+01 -.914E+03   -.284E-01 -.140E+01 0.914E+03   -.104E-02 0.802E-01 0.139E+00   0.144E-05 0.398E-04 0.593E-03
   0.279E+02 -.207E+02 -.225E+04   -.275E+02 0.203E+02 0.225E+04   -.316E+00 0.316E+00 -.233E-01   0.512E-04 -.272E-03 -.830E-04
   -.221E+02 0.128E+02 0.228E+04   0.223E+02 -.128E+02 -.228E+04   0.154E-01 -.883E-02 0.109E+00   -.117E-03 -.137E-03 -.677E-04
   -.112E+02 0.651E+01 0.808E+03   0.114E+02 -.662E+01 -.808E+03   -.169E+00 0.971E-01 -.195E+00   -.137E-03 -.211E-04 0.569E-03
   -.744E+00 0.568E+00 -.742E+03   0.874E+00 -.679E+00 0.741E+03   -.118E+00 0.132E+00 0.420E+00   -.108E-03 -.122E-03 0.418E-03
   0.499E+02 -.287E+02 -.239E+04   -.502E+02 0.290E+02 0.239E+04   0.390E+00 -.224E+00 -.937E-01   0.136E-03 0.417E-04 -.437E-04
   0.221E+02 0.127E+02 0.228E+04   -.223E+02 -.128E+02 -.228E+04   -.153E-01 -.874E-02 0.109E+00   -.123E-03 -.149E-03 -.903E-04
   0.113E+02 0.648E+01 0.808E+03   -.115E+02 -.659E+01 -.808E+03   0.169E+00 0.968E-01 -.195E+00   0.217E-03 0.916E-04 0.698E-03
   0.642E+00 0.469E+00 -.742E+03   -.771E+00 -.579E+00 0.742E+03   0.120E+00 0.135E+00 0.419E+00   0.158E-03 -.119E-03 0.356E-03
   -.498E+02 -.287E+02 -.239E+04   0.502E+02 0.289E+02 0.239E+04   -.390E+00 -.224E+00 -.932E-01   -.198E-03 -.143E-04 -.699E-04
   -.282E-01 0.180E+02 0.230E+04   0.284E-01 -.182E+02 -.230E+04   0.261E-04 0.614E-01 -.139E-01   -.127E-03 -.207E-03 -.767E-05
   0.531E+01 -.304E+01 0.807E+03   -.530E+01 0.304E+01 -.807E+03   -.120E-01 0.634E-02 -.255E+00   0.241E-03 0.197E-04 0.583E-03
   0.333E+01 0.197E+01 -.771E+03   -.375E+01 -.221E+01 0.771E+03   0.396E+00 0.227E+00 0.868E-01   0.237E-03 0.120E-03 0.473E-03
   0.516E-01 -.406E+02 -.229E+04   -.508E-01 0.401E+02 0.229E+04   -.138E-02 0.492E+00 0.304E+00   -.695E-04 -.375E-03 -.229E-04
   0.140E+02 0.865E+01 0.231E+04   -.139E+02 -.872E+01 -.231E+04   -.103E+00 0.250E-02 -.264E+00   0.115E-03 -.189E-04 0.911E-04
   -.100E+00 0.540E+01 0.793E+03   0.100E+00 -.560E+01 -.793E+03   0.158E-02 0.231E+00 -.413E+00   0.301E-04 0.603E-06 0.562E-03
   -.239E-01 0.706E+00 -.706E+03   0.237E-01 -.853E+00 0.706E+03   0.122E-02 0.124E+00 0.424E+00   -.217E-04 0.152E-03 0.347E-03
   -.279E+02 -.207E+02 -.225E+04   0.275E+02 0.204E+02 0.225E+04   0.314E+00 0.316E+00 -.235E-01   -.443E-04 -.280E-03 -.169E-03
   0.145E+02 0.772E+01 0.231E+04   -.145E+02 -.765E+01 -.231E+04   -.489E-01 -.904E-01 -.265E+00   0.829E-04 0.166E-04 0.839E-04
   0.167E+02 0.176E+02 0.767E+03   -.168E+02 -.179E+02 -.766E+03   0.127E+00 0.299E+00 -.469E+00   0.109E-03 0.875E-04 0.557E-03
   0.617E+00 -.326E+00 -.706E+03   -.744E+00 0.399E+00 0.706E+03   0.107E+00 -.622E-01 0.424E+00   0.150E-03 -.187E-03 0.240E-03
   -.319E+02 -.137E+02 -.225E+04   0.315E+02 0.136E+02 0.225E+04   0.431E+00 0.115E+00 -.235E-01   -.710E-04 0.103E-03 -.168E-03
   0.212E-02 0.120E-01 -.291E+03   -.213E-02 -.139E-01 0.293E+03   0.497E-04 0.133E-02 -.168E+01   -.510E-05 0.166E-04 -.599E-04
 -----------------------------------------------------------------------------------------------
   -.280E-04 -.588E-02 0.535E+01   -.577E-13 0.906E-12 0.341E-12   0.153E-04 0.877E-02 -.533E+01   0.587E-05 0.933E-04 0.132E-01
 
 
 POSITION                                       TOTAL-FORCE (eV/Angst)
 -----------------------------------------------------------------------------------
     10.55998      0.00001      1.11585         0.030622      0.088282     -0.135987
      2.62792      1.54474      3.58790         0.009285      0.001234      0.008323
      0.01226      3.05495      6.20849         0.009079      0.004073     -0.000001
      0.00157      0.00694      8.30563        -0.000038      0.017079      0.005235
      9.23998      2.28632      1.11585         0.181629      0.104505      0.119661
      1.32005      3.81056      3.85960        -0.000900     -0.001882     -0.025581
      1.32024      0.79838      5.96866        -0.000783      0.006979      0.007913
      9.23877      2.28469      8.43263         0.017946      0.010114      0.021348
      1.31998      2.28632      1.11585         0.000035      0.191844      0.205269
     -1.29598      3.81067      3.58727        -0.006175     -0.009768      0.010783
      3.95747      0.77324      5.91591         0.004531      0.003529      0.001637
      1.32026      2.24876      8.77562         0.000146      0.004599      0.009827
      2.63998      0.00001      1.11585        -0.030949      0.088493     -0.136191
      0.01214      1.54480      3.58779        -0.010492      0.000242      0.009614
      2.62813      3.05494      6.20848        -0.009760      0.003682     -0.000219
      2.63891      0.00693      8.30540        -0.000121      0.017538      0.006033
      5.27998      0.00001      1.11585        -0.032672     -0.018605     -0.045957
      7.92778      1.52854      3.53293        -0.009537     -0.003689      0.018818
      5.26860      3.04436      5.91560         0.002283     -0.004917      0.001367
      0.00008      9.14453      8.34273        -0.004958     -0.001068      0.004193
      3.95998      2.28632      1.11585        -0.181888      0.104497      0.119770
      6.59997      3.80762      3.50288        -0.000005      0.006531     -0.004828
      6.60016      0.76128      5.92784         0.002047      0.002536      0.002187
      3.96175      2.28470      8.43242        -0.018651      0.010946      0.022920
      6.59998      2.28632      1.11585        -0.000258      0.037564     -0.046661
      3.93595      3.81060      3.58734         0.006893     -0.008624      0.010307
      9.24296      0.77325      5.91611        -0.005485      0.003361      0.000940
      6.60023      2.28594      8.34280         0.000558      0.004499      0.003576
      7.91998      0.00001      1.11585         0.032470     -0.018995     -0.045408
      5.27216      1.52852      3.53299         0.010781     -0.002919      0.017363
      7.93168      3.04447      5.91564        -0.001142     -0.006803      0.001187
      2.64029      9.14450      8.34311         0.005355     -0.000083      0.003170
      7.91998      4.57263      1.11585         0.091306     -0.017215     -0.136660
      0.01187      6.07605      3.58761         0.004917      0.008847      0.009023
     -2.63201      7.62503      5.84577         0.011603      0.005389     -0.004660
     -2.63249      4.56927      8.30526         0.015738     -0.006993      0.003836
      6.59998      6.85894      1.11585        -0.000154      0.000074     -0.227645
     -1.31747      8.38457      3.50301        -0.007372     -0.005519     -0.005373
     -1.28789      5.31590      5.96824         0.003990     -0.004960      0.009168
     -3.95978      6.85855      8.20855         0.000582     -0.004139     -0.006477
     -1.32002      6.85894      1.11585         0.061016     -0.070173     -0.136553
     -3.95997      8.39568      3.49507        -0.000634      0.021194      0.004196
      1.32021      5.32026      6.20892        -0.000652     -0.011483      0.001202
     -1.31378      6.85328      8.30568         0.013145     -0.009812      0.004609
     -0.00002      4.57263      1.11585         0.166781     -0.096032      0.204054
     -2.62913      6.09055      3.49503         0.018766     -0.010739      0.004113
      0.00891      7.61210      5.91620         0.004110      0.003180      0.001721
     -0.03173      4.59025      8.77564         0.003126     -0.000662      0.008867
      2.63998      4.57263      1.11585        -0.166746     -0.095944      0.204093
      5.26915      6.09056      3.49512        -0.019707     -0.010615      0.003869
      2.63133      7.61198      5.91652        -0.001768      0.006153      0.000700
      2.67229      4.59029      8.77579        -0.003113     -0.001416      0.009145
      1.31998      6.85894      1.11585         0.000084     -0.208920      0.120701
      3.95746      8.38455      3.50310         0.007039     -0.005042     -0.004003
      3.92823      5.31586      5.96836        -0.003675     -0.003832      0.009161
      1.32031      6.86010      8.43330        -0.000642     -0.023505      0.022086
      3.95998      6.85894      1.11585        -0.061232     -0.070187     -0.135844
      1.31992      8.37407      3.53342         0.001643      0.009944      0.017028
      6.60010      5.32539      5.84581         0.000877     -0.014262     -0.004206
      3.95437      6.85330      8.30609        -0.014652     -0.010055      0.004492
      5.27998      4.57263      1.11585        -0.091705     -0.017076     -0.136353
      2.62810      6.07600      3.58776        -0.003981      0.010017      0.009448
      5.27244      7.62501      5.84595        -0.013219      0.006507     -0.005229
      5.27298      4.56926      8.30518        -0.015359     -0.006923      0.004361
      1.32023      3.81034      9.78718         0.000039     -0.000575     -0.023478
 -----------------------------------------------------------------------------------
    total drift:                               -0.000007      0.002986      0.030583


--------------------------------------------------------------------------------------------------------



  FREE ENERGIE OF THE ION-ELECTRON SYSTEM (eV)
  ---------------------------------------------------
  free  energy   TOTEN  =      -408.94739249 eV

  energy  without entropy=     -408.89188861  energy(sigma->0) =     -408.92889120
 


--------------------------------------------------------------------------------------------------------


    POTLOK:  cpu time    0.4089: real time    0.4099


--------------------------------------------------------------------------------------------------------




--------------------------------------------------------------------------------------------------------


  
 reached required accuracy - stopping structural energy minimisation
     LOOP+:  cpu time 2163.7799: real time 2170.0906
    4ORBIT:  cpu time    0.0000: real time    0.0000

 total amount of memory used by VASP MPI-rank0   200596. kBytes
=======================================================================

   base      :      30000. kBytes
   nonlr-proj:      30938. kBytes
   fftplans  :      17093. kBytes
   grid      :      44247. kBytes
   one-center:        528. kBytes
   wavefun   :      77790. kBytes
 
  
  
 General timing and accounting informations for this job:
 ========================================================
  
                  Total CPU time used (sec):     2179.541
                            User time (sec):     2174.700
                          System time (sec):        4.841
                         Elapsed time (sec):     2186.412
  
                   Maximum memory used (kb):      578616.
                   Average memory used (kb):           0.
  
                          Minor page faults:      1009165
                          Major page faults:            0
                 Voluntary context switches:         2778
