 vasp.5.4.4.18Apr17-6-g9f103f2a35 (build Nov 30 2020 22:55:02) complex          
  
 executed on             LinuxIFC date 2023.09.08  21:31:05
 running on   40 total cores
 distrk:  each k-point on   40 cores,    1 groups
 distr:  one band on NCORES_PER_BAND=   4 cores,   10 groups


--------------------------------------------------------------------------------------------------------


 INCAR:
 POTCAR:    PAW_PBE Pt 04Feb2005                  
 POTCAR:    PAW_PBE H 15Jun2001                   
 POTCAR:    PAW_PBE Pt 04Feb2005                  
   VRHFIN =Pt: s1d9                                                             
   LEXCH  = PE                                                                  
   EATOM  =   729.1176 eV,   53.5886 Ry                                         
                                                                                
   TITEL  = PAW_PBE Pt 04Feb2005                                                
   LULTRA =        F    use ultrasoft PP ?                                      
   IUNSCR =        1    unscreen: 0-lin 1-nonlin 2-no                           
   RPACOR =    2.330    partial core radius                                     
   POMASS =  195.080; ZVAL   =   10.000    mass and valenz                      
   RCORE  =    2.600    outmost cutoff radius                                   
   RWIGS  =    2.750; RWIGS  =    1.455    wigner-seitz radius (au A)           
   ENMAX  =  230.283; ENMIN  =  172.712 eV                                      
   ICORE  =        3    local potential                                         
   LCOR   =        T    correct aug charges                                     
   LPAW   =        T    paw PP                                                  
   EAUG   =  358.966                                                            
   DEXC   =    0.000                                                            
   RMAX   =    2.658    core radius for proj-oper                               
   RAUG   =    1.300    factor for augmentation sphere                          
   RDEP   =    2.761    radius for radial grids                                 
   RDEPT  =    2.203    core radius for aug-charge                              
                                                                                
   Atomic configuration                                                         
   16 entries                                                                   
     n  l   j            E        occ.                                          
     1  0  0.50    -78401.1885   2.0000                                         
     2  0  0.50    -13770.7750   2.0000                                         
     2  1  1.50    -11931.0468   6.0000                                         
     3  0  0.50     -3234.7234   2.0000                                         
     3  1  1.50     -2699.2216   6.0000                                         
     3  2  2.50     -2119.5714  10.0000                                         
     4  0  0.50      -695.1528   2.0000                                         
     4  1  1.50      -519.6034   6.0000                                         
     4  2  2.50      -306.6786  10.0000                                         
     4  3  3.50       -70.1041  14.0000                                         
     5  0  0.50      -101.7747   2.0000                                         
     5  1  1.50       -55.9873   6.0000                                         
     5  2  2.50        -6.1423   9.0000                                         
     6  0  0.50        -5.6573   1.0000                                         
     6  1  1.50        -6.8029   0.0000                                         
     5  3  2.50        -1.3606   0.0000                                         
   Description                                                                  
     l       E           TYP  RCUT    TYP  RCUT                                 
     2     -6.1423404     23  2.500                                             
     2     -7.5029230     23  2.500                                             
     0     -5.6573207     23  2.500                                             
     0      0.7416693     23  2.500                                             
     1     -2.7211652     23  2.600                                             
     1     20.4087390     23  2.600                                             
     3     -1.3605826     23  2.500                                             
  local pseudopotential read in
  partial core-charges read in
  partial kinetic energy density read in
  atomic valenz-charges read in
  non local Contribution for L=           2  read in
    real space projection operators read in
  non local Contribution for L=           2  read in
    real space projection operators read in
  non local Contribution for L=           0  read in
    real space projection operators read in
  non local Contribution for L=           0  read in
    real space projection operators read in
  non local Contribution for L=           1  read in
    real space projection operators read in
  non local Contribution for L=           1  read in
    real space projection operators read in
    PAW grid and wavefunctions read in
 
   number of l-projection  operators is LMAX  =           6
   number of lm-projection operators is LMMAX =          18
 
 POTCAR:    PAW_PBE H 15Jun2001                   
   VRHFIN =H: ultrasoft test                                                    
   LEXCH  = PE                                                                  
   EATOM  =    12.4884 eV,    0.9179 Ry                                         
                                                                                
   TITEL  = PAW_PBE H 15Jun2001                                                 
   LULTRA =        F    use ultrasoft PP ?                                      
   IUNSCR =        0    unscreen: 0-lin 1-nonlin 2-no                           
   RPACOR =    0.000    partial core radius                                     
   POMASS =    1.000; ZVAL   =    1.000    mass and valenz                      
   RCORE  =    1.100    outmost cutoff radius                                   
   RWIGS  =    0.700; RWIGS  =    0.370    wigner-seitz radius (au A)           
   ENMAX  =  250.000; ENMIN  =  200.000 eV                                      
   RCLOC  =    0.701    cutoff for local pot                                    
   LCOR   =        T    correct aug charges                                     
   LPAW   =        T    paw PP                                                  
   EAUG   =  400.000                                                            
   RMAX   =    1.123    core radius for proj-oper                               
   RAUG   =    1.200    factor for augmentation sphere                          
   RDEP   =    1.112    radius for radial grids                                 
   RDEPT  =    0.926    core radius for aug-charge                              
                                                                                
   Atomic configuration                                                         
    2 entries                                                                   
     n  l   j            E        occ.                                          
     1  0  0.50        -6.4927   1.0000                                         
     2  1  0.50        -3.4015   0.0000                                         
   Description                                                                  
     l       E           TYP  RCUT    TYP  RCUT                                 
     0     -6.4927494     23  1.100                                             
     0      6.8029130     23  1.100                                             
     1     -4.0817478     23  1.100                                             
  local pseudopotential read in
  atomic valenz-charges read in
  non local Contribution for L=           0  read in
    real space projection operators read in
  non local Contribution for L=           0  read in
    real space projection operators read in
  non local Contribution for L=           1  read in
    real space projection operators read in
    PAW grid and wavefunctions read in
 
   number of l-projection  operators is LMAX  =           3
   number of lm-projection operators is LMMAX =           5
 
 Optimization of the real space projectors (new method)

 maximal supplied QI-value         = 14.36
 optimisation between [QCUT,QGAM] = [ 11.92, 23.98] = [ 39.79,161.09] Ry 
 Optimized for a Real-space Cutoff    1.49 Angstroem

   l    n(q)    QCUT    max X(q) W(low)/X(q) W(high)/X(q)  e(spline) 
   2     10    11.920    66.195    0.79E-04    0.18E-03    0.24E-06
   2     10    11.920    64.643    0.81E-04    0.19E-03    0.24E-06
   0     11    11.920    95.520    0.28E-04    0.54E-04    0.18E-06
   0     11    11.920    63.403    0.27E-04    0.52E-04    0.17E-06
   1     10    11.920    19.961    0.18E-04    0.11E-03    0.23E-06
   1     10    11.920    13.289    0.25E-04    0.87E-04    0.19E-06
 Optimization of the real space projectors (new method)

 maximal supplied QI-value         = 34.20
 optimisation between [QCUT,QGAM] = [ 11.97, 23.94] = [ 40.13,160.53] Ry 
 Optimized for a Real-space Cutoff    1.18 Angstroem

   l    n(q)    QCUT    max X(q) W(low)/X(q) W(high)/X(q)  e(spline) 
   0      8    11.971    19.460    0.15E-03    0.31E-03    0.25E-06
   0      8    11.971    12.209    0.13E-03    0.29E-03    0.25E-06
   1      8    11.971     4.655    0.22E-03    0.24E-03    0.21E-06
  PAW_PBE Pt 04Feb2005                  :
 energy of atom  1       EATOM= -729.1176
 kinetic energy error for atom=    0.0021 (will be added to EATOM!!)
  PAW_PBE H 15Jun2001                   :
 energy of atom  2       EATOM=  -12.4884
 kinetic energy error for atom=    0.0008 (will be added to EATOM!!)
 
 
 POSCAR: Pt111                                   
  positions in direct lattice
  velocities in cartesian coordinates
 exchange correlation table for  LEXCH =        8
   RHO(1)=    0.500       N(1)  =     2000
   RHO(2)=  100.500       N(2)  =     4000
 


--------------------------------------------------------------------------------------------------------


 ion  position               nearest neighbor table
   1  0.785  0.869  0.327-  71 2.74  20 2.74  55 2.74  35 2.79  27 2.79  34 2.79  43 2.81  73 2.81
                            56 2.81   3 2.81   2 2.81  72 2.81
   2  0.035  0.870  0.327-  65 2.74  68 2.74  55 2.74  39 2.78  29 2.79  27 2.79  23 2.81   3 2.81
                            47 2.81   1 2.81  72 2.81  57 2.81
   3  0.035  0.619  0.327-  55 2.74  76 2.74  12 2.74  39 2.78  28 2.78  35 2.79  15 2.80   9 2.81
                             2 2.81   1 2.81  57 2.81  56 2.81
   4  0.788  0.867  0.023-  21 2.78  78 2.78  19 2.79   6 2.80  58 2.81   5 2.81  75 2.81  44 2.81
                            74 2.81
   5  0.037  0.868  0.023-  49 2.78  70 2.78  78 2.79  74 2.80  24 2.81   4 2.81  59 2.81  48 2.81
                             6 2.81
   6  0.037  0.617  0.024-  46 2.78  70 2.78  21 2.79   4 2.80  18 2.80  59 2.80  10 2.80  58 2.81
                             5 2.81
   7  0.620  0.202  0.126-  71 2.73  79 2.74  80 2.75  42 2.78  44 2.78  74 2.79  53 2.80  78 2.81
                            22 2.81  19 2.81  61 2.81  11 2.81
   8  0.370  0.952  0.126-  69 2.74  66 2.74  26 2.75  16 2.78  24 2.78  75 2.80  25 2.80  19 2.80
                            49 2.80  54 2.81  60 2.81  53 2.81
   9  0.035  0.370  0.327-  12 2.73  77 2.74  62 2.74  33 2.78  28 2.78  30 2.78   3 2.81  56 2.81
                            47 2.81  13 2.81  63 2.81  15 2.81
  10  0.037  0.368  0.024-  54 2.78  46 2.78  45 2.79  48 2.80   6 2.80  18 2.81  58 2.81  64 2.81
                            16 2.81
  11  0.870  0.202  0.126-  65 2.74  77 2.74  79 2.75  64 2.78  74 2.79  48 2.79  45 2.80  49 2.81
                            54 2.81   7 2.81  22 2.81  78 2.81
  12  0.952  0.536  0.227-   9 2.73  21 2.74   3 2.74  45 2.74  56 2.74  46 2.74  77 2.80  20 2.81
                            55 2.81  62 2.81  67 2.81  76 2.81
  13  0.285  0.120  0.327-  62 2.73  26 2.74  69 2.74  31 2.78  36 2.78  33 2.79   9 2.81  73 2.81
                            43 2.81  47 2.81  23 2.81  15 2.81
  14  0.534  0.620  0.328-  51 2.75  66 2.75  67 2.76  52 2.79  57 2.80  41 2.80  63 2.80  23 2.80
                            73 2.81  56 2.81  38 2.81  37 2.82
  15  0.285  0.370  0.328-  76 2.74  80 2.74  62 2.75  36 2.78  50 2.79  28 2.79  41 2.80  57 2.80
                             3 2.80  43 2.81  13 2.81   9 2.81
  16  0.288  0.118  0.023-   8 2.78  53 2.78  54 2.79  44 2.80  18 2.80  75 2.80  48 2.81  24 2.81
                            10 2.81
  17  0.537  0.617  0.023-  22 2.78  25 2.78  60 2.79  59 2.80  24 2.80  42 2.80  64 2.81  58 2.81
                            75 2.81
  18  0.287  0.368  0.024-  53 2.78  61 2.78  46 2.79  59 2.80   6 2.80  16 2.80  10 2.81  42 2.81
                            44 2.81
  19  0.620  0.952  0.126-  20 2.74  71 2.74  69 2.75  44 2.78  75 2.78   4 2.79  21 2.80   8 2.80
                            53 2.81  78 2.81  25 2.81   7 2.81
  20  0.702  0.785  0.227-  19 2.74  56 2.74   1 2.74  25 2.74  21 2.74  73 2.74  67 2.81  12 2.81
                            69 2.81  66 2.81  55 2.81  71 2.81
  21  0.869  0.702  0.126-  12 2.74  55 2.74  20 2.74   4 2.78  58 2.78   6 2.79  45 2.80  19 2.80
                            46 2.81  70 2.81  78 2.81  25 2.81
  22  0.619  0.452  0.126-  79 2.74  67 2.74  51 2.75  17 2.78  42 2.78  64 2.79  25 2.80  61 2.80
                            60 2.81   7 2.81  45 2.81  11 2.81
  23  0.285  0.869  0.327-  68 2.74  66 2.74  26 2.75  37 2.78  31 2.79  29 2.79  57 2.80  14 2.80
                            73 2.81   2 2.81  13 2.81  47 2.81
  24  0.287  0.868  0.023-  60 2.78   8 2.78  49 2.79  48 2.80  17 2.80   5 2.81  75 2.81  16 2.81
                            59 2.81
  25  0.619  0.702  0.126-  20 2.74  67 2.74  66 2.75  17 2.78  75 2.78  58 2.79  22 2.80   8 2.80
                            60 2.80  45 2.81  19 2.81  21 2.81
  26  0.202  0.036  0.227-  54 2.73  49 2.74  13 2.74  47 2.74   8 2.75  23 2.75  62 2.80  77 2.80
                            69 2.80  65 2.81  66 2.81  68 2.81
  27  0.868  0.953  0.430-  39 2.78  40 2.78  72 2.79   1 2.79   2 2.79  29 2.80  32 2.80  34 2.80
                            35 2.81
  28  0.117  0.453  0.430-  50 2.77   9 2.78   3 2.78  15 2.79  30 2.79  35 2.80  33 2.80  39 2.81
                            36 2.81
  29  0.116  0.955  0.430-  37 2.77  47 2.78  32 2.79   2 2.79  23 2.79  27 2.80  33 2.80  39 2.81
                            31 2.82
  30  0.868  0.453  0.430-  38 2.77  56 2.78   9 2.78  63 2.79  28 2.79  35 2.80  33 2.80  52 2.81
                            32 2.81
  31  0.368  0.954  0.430-  37 2.77  13 2.78  36 2.79  23 2.79  73 2.79  34 2.80  33 2.80  52 2.81
                            29 2.82
  32  0.868  0.203  0.430-  38 2.77  63 2.78  29 2.79  47 2.79  72 2.79  27 2.80  33 2.80  40 2.81
                            30 2.81
  33  0.118  0.203  0.430-   9 2.78  47 2.78  13 2.79  29 2.80  31 2.80  30 2.80  28 2.80  32 2.80
                            36 2.81
  34  0.618  0.953  0.430-  52 2.78  40 2.78  43 2.78  73 2.79   1 2.79  31 2.80  36 2.80  27 2.80
                            35 2.81
  35  0.868  0.703  0.430-  39 2.78  52 2.78   1 2.79  56 2.79   3 2.79  28 2.80  30 2.80  27 2.81
                            34 2.81
  36  0.368  0.203  0.430-  50 2.77  15 2.78  13 2.78  31 2.79  43 2.79  34 2.80  40 2.81  33 2.81
                            28 2.81
  37  0.364  0.710  0.432-  81 1.85  29 2.77  31 2.77  23 2.78  57 2.82  14 2.82  39 2.83  52 2.83
                            50 2.89  38 2.90
  38  0.622  0.451  0.432-  81 1.87  30 2.77  32 2.77  63 2.79  14 2.81  41 2.82  52 2.83  40 2.83
                            50 2.89  37 2.90
  39  0.114  0.705  0.430-   2 2.78  27 2.78  35 2.78   3 2.78  57 2.79  29 2.81  28 2.81  50 2.83
                            37 2.83
  40  0.619  0.201  0.430-  43 2.78  34 2.78  27 2.78  41 2.78  72 2.78  36 2.81  32 2.81  38 2.83
                            50 2.83
  41  0.535  0.370  0.328-  51 2.74  80 2.75  79 2.76  40 2.78  63 2.80  15 2.80  14 2.80  57 2.80
                            72 2.81  43 2.81  38 2.82  50 2.82
  42  0.537  0.367  0.023-   7 2.78  22 2.78  61 2.80  44 2.80  17 2.80  18 2.81  64 2.81  74 2.81
                            59 2.81
  43  0.535  0.119  0.327-  80 2.73  69 2.74  71 2.74  40 2.78  34 2.78  36 2.79  72 2.80   1 2.81
                            15 2.81  13 2.81  73 2.81  41 2.81
  44  0.538  0.117  0.023-  19 2.78   7 2.78  53 2.80  16 2.80  42 2.80  75 2.80  74 2.81   4 2.81
                            18 2.81
  45  0.869  0.452  0.126-  77 2.74  12 2.74  67 2.75  58 2.78  64 2.79  10 2.79  11 2.80  21 2.80
                            25 2.81  22 2.81  46 2.81  54 2.81
  46  0.119  0.452  0.127-  62 2.73  76 2.74  12 2.74   6 2.78  10 2.78  18 2.79  54 2.80  70 2.80
                            61 2.80  21 2.81  45 2.81  53 2.81
  47  0.035  0.120  0.327-  77 2.73  65 2.74  26 2.74  29 2.78  33 2.78  32 2.79   9 2.81  72 2.81
                             2 2.81  13 2.81  23 2.81  63 2.81
  48  0.038  0.118  0.023-  49 2.78  54 2.78  11 2.79  10 2.80  24 2.80  16 2.81  74 2.81   5 2.81
                            64 2.81
  49  0.120  0.952  0.126-  26 2.74  68 2.74  65 2.74  48 2.78   5 2.78  24 2.79  60 2.80   8 2.80
                            11 2.81  54 2.81  78 2.81  70 2.81
  50  0.365  0.451  0.432-  81 1.88  28 2.77  36 2.77  15 2.79  57 2.81  41 2.82  39 2.83  40 2.83
                            38 2.89  37 2.89
  51  0.452  0.536  0.227-  41 2.74  14 2.75  61 2.75  60 2.75  57 2.75  22 2.75  67 2.80  66 2.80
                            76 2.80  80 2.80  68 2.80  79 2.80
  52  0.619  0.705  0.430-  73 2.78  34 2.78  35 2.78  56 2.78  14 2.79  31 2.81  30 2.81  38 2.83
                            37 2.83
  53  0.370  0.202  0.127-  69 2.73  80 2.74  62 2.74  18 2.78  16 2.78  44 2.80   7 2.80  61 2.80
                            54 2.80  19 2.81  46 2.81   8 2.81
  54  0.120  0.202  0.126-  26 2.73  62 2.74  77 2.74  10 2.78  48 2.78  16 2.79  46 2.80  53 2.80
                             8 2.81  11 2.81  49 2.81  45 2.81
  55  0.952  0.786  0.227-  78 2.74   3 2.74   2 2.74  21 2.74  70 2.74   1 2.74  71 2.81  12 2.81
                            76 2.81  68 2.81  65 2.81  20 2.81
  56  0.785  0.619  0.327-  67 2.74  20 2.74  12 2.74  52 2.78  30 2.78  35 2.79  63 2.80  73 2.80
                             9 2.81   1 2.81  14 2.81   3 2.81
  57  0.285  0.620  0.328-  51 2.75  68 2.75  76 2.75  39 2.79  14 2.80  23 2.80  41 2.80  15 2.80
                             2 2.81   3 2.81  50 2.81  37 2.82
  58  0.787  0.617  0.023-  45 2.78  21 2.78  25 2.79  75 2.80  64 2.80   4 2.81  10 2.81   6 2.81
                            17 2.81
  59  0.287  0.617  0.023-  60 2.78  61 2.78  70 2.79  18 2.80  17 2.80   6 2.80   5 2.81  42 2.81
                            24 2.81
  60  0.369  0.702  0.126-  66 2.74  68 2.74  51 2.75  59 2.78  24 2.78  17 2.79  49 2.80  25 2.80
                            61 2.80  70 2.80  22 2.81   8 2.81
  61  0.369  0.452  0.127-  80 2.73  76 2.74  51 2.75  59 2.78  18 2.78  42 2.80  53 2.80  22 2.80
                            60 2.80  46 2.80  70 2.81   7 2.81
  62  0.202  0.286  0.227-  13 2.73  46 2.73  54 2.74   9 2.74  53 2.74  15 2.75  26 2.80  69 2.80
                            77 2.81  12 2.81  76 2.81  80 2.81
  63  0.784  0.370  0.327-  67 2.74  79 2.74  77 2.75  32 2.78  30 2.79  38 2.79  41 2.80  14 2.80
                            56 2.80  72 2.81  47 2.81   9 2.81
  64  0.787  0.367  0.023-  11 2.78  45 2.79  22 2.79  74 2.80  58 2.80  42 2.81  10 2.81  48 2.81
                            17 2.81
  65  0.952  0.036  0.227-  11 2.74   2 2.74  47 2.74  78 2.74  72 2.74  49 2.74  77 2.81  26 2.81
                            71 2.81  55 2.81  79 2.81  68 2.81
  66  0.452  0.785  0.227-  73 2.74  60 2.74   8 2.74  23 2.74  25 2.75  14 2.75  68 2.80  51 2.80
                            67 2.80  20 2.81  26 2.81  69 2.81
  67  0.702  0.536  0.227-  56 2.74  63 2.74  22 2.74  25 2.74  45 2.75  14 2.76  79 2.80  51 2.80
                            66 2.80  20 2.81  77 2.81  12 2.81
  68  0.202  0.786  0.227-   2 2.74  23 2.74  49 2.74  70 2.74  60 2.74  57 2.75  66 2.80  51 2.80
                            76 2.80  55 2.81  65 2.81  26 2.81
  69  0.452  0.036  0.227-  53 2.73  73 2.73   8 2.74  43 2.74  13 2.74  19 2.75  26 2.80  62 2.80
                            20 2.81  71 2.81  66 2.81  80 2.81
  70  0.119  0.702  0.126-  55 2.74  76 2.74  68 2.74   6 2.78   5 2.78  59 2.79  78 2.80  46 2.80
                            60 2.80  61 2.81  21 2.81  49 2.81
  71  0.702  0.036  0.227-   7 2.73   1 2.74  72 2.74  19 2.74  43 2.74  78 2.74  55 2.81  69 2.81
                            65 2.81  80 2.81  79 2.81  20 2.81
  72  0.785  0.120  0.327-  79 2.73  71 2.74  65 2.74  40 2.78  27 2.79  32 2.79  43 2.80  63 2.81
                            47 2.81   2 2.81   1 2.81  41 2.81
  73  0.535  0.869  0.327-  69 2.73  66 2.74  20 2.74  52 2.78  34 2.79  31 2.79  56 2.80  23 2.81
                             1 2.81  13 2.81  14 2.81  43 2.81
  74  0.788  0.117  0.023-  78 2.78  11 2.79   7 2.79   5 2.80  64 2.80  48 2.81  42 2.81  44 2.81
                             4 2.81
  75  0.538  0.868  0.023-  25 2.78  19 2.78   8 2.80  58 2.80  16 2.80  44 2.80  24 2.81   4 2.81
                            17 2.81
  76  0.202  0.536  0.227-  15 2.74   3 2.74  70 2.74  46 2.74  61 2.74  57 2.75  51 2.80  80 2.80
                            68 2.80  62 2.81  55 2.81  12 2.81
  77  0.952  0.286  0.227-  47 2.73  45 2.74  11 2.74   9 2.74  54 2.74  63 2.75  12 2.80  26 2.80
                            65 2.81  62 2.81  79 2.81  67 2.81
  78  0.870  0.952  0.126-  55 2.74  65 2.74  71 2.74  74 2.78   4 2.78   5 2.79  70 2.80   7 2.81
                            19 2.81  21 2.81  49 2.81  11 2.81
  79  0.702  0.286  0.227-  72 2.73  22 2.74  63 2.74   7 2.74  11 2.75  41 2.76  67 2.80  80 2.80
                            51 2.80  77 2.81  65 2.81  71 2.81
  80  0.452  0.286  0.227-  43 2.73  61 2.73  53 2.74  15 2.74   7 2.75  41 2.75  79 2.80  51 2.80
                            76 2.80  71 2.81  62 2.81  69 2.81
  81  0.451  0.540  0.470-  37 1.85  38 1.87  50 1.88
 
  LATTYP: Found a hexagonal cell.
 ALAT       =    11.2227001190
 C/A-ratio  =     1.9603125600
  
  Lattice vectors:
  
 A1 = (   5.6113500595,  -9.7191434021,   0.0000000000)
 A2 = ( -11.2227001190,   0.0000000000,   0.0000000000)
 A3 = (   0.0000000000,   0.0000000000, -22.0000000000)


Analysis of symmetry for initial positions (statically):
=====================================================================
 Subroutine PRICEL returns:
 Original cell was already a primitive cell.
 

 Routine SETGRP: Setting up the symmetry group for a 
 hexagonal supercell.


 Subroutine GETGRP returns: Found  1 space group operations
 (whereof  1 operations were pure point group operations)
 out of a pool of 24 trial point group operations.


The static configuration has the point symmetry C_1 .


Analysis of symmetry for dynamics (positions and initial velocities):
=====================================================================
 Subroutine PRICEL returns:
 Original cell was already a primitive cell.
 

 Routine SETGRP: Setting up the symmetry group for a 
 hexagonal supercell.


 Subroutine GETGRP returns: Found  1 space group operations
 (whereof  1 operations were pure point group operations)
 out of a pool of 24 trial point group operations.


The dynamic configuration has the point symmetry C_1 .


Analysis of constrained symmetry for selective dynamics:
=====================================================================
 Subroutine PRICEL returns:
 Original cell was already a primitive cell.
 

 Routine SETGRP: Setting up the symmetry group for a 
 hexagonal supercell.


 Subroutine GETGRP returns: Found  1 space group operations
 (whereof  1 operations were pure point group operations)
 out of a pool of 24 trial point group operations.


The constrained configuration has the point symmetry C_1 .


 Subroutine INISYM returns: Found  1 space group operations
 (whereof  1 operations are pure point group operations),
 and found     1 'primitive' translations

 
 
 KPOINTS: mesh auto                               

Automatic generation of k-mesh.
Space group operators:
 irot       det(A)        alpha          n_x          n_y          n_z        tau_x        tau_y        tau_z
    1     1.000000     0.000000     1.000000     0.000000     0.000000     0.000000     0.000000     0.000000
 
 Subroutine IBZKPT returns following result:
 ===========================================
 
 Found      4 irreducible k-points:
 
 Following reciprocal coordinates:
            Coordinates               Weight
  0.000000  0.000000  0.000000      1.000000
  0.500000  0.000000  0.000000      1.000000
  0.000000  0.500000  0.000000      1.000000
  0.500000  0.500000  0.000000      1.000000
 
 Following cartesian coordinates:
            Coordinates               Weight
  0.000000  0.000000  0.000000      1.000000
  0.044553 -0.025722  0.000000      1.000000
  0.000000  0.051445  0.000000      1.000000
  0.044553  0.025722  0.000000      1.000000
 


--------------------------------------------------------------------------------------------------------




 Dimension of arrays:
   k-points           NKPTS =      4   k-points in BZ     NKDIM =      4   number of bands    NBANDS=    480
   number of dos      NEDOS =    301   number of ions     NIONS =     81
   non local maximal  LDIM  =      6   non local SUM 2l+1 LMDIM =     18
   total plane-waves  NPLWV = ******
   max r-space proj   IRMAX =   7929   max aug-charges    IRDMAX=  34542
   dimension x,y,z NGX =    90 NGY =   90 NGZ =  168
   dimension x,y,z NGXF=   180 NGYF=  180 NGZF=  336
   support grid    NGXF=   180 NGYF=  180 NGZF=  336
   ions per type =              80   1
   NGX,Y,Z   is equivalent  to a cutoff of  13.33, 13.33, 12.70 a.u.
   NGXF,Y,Z  is equivalent  to a cutoff of  26.66, 26.66, 25.39 a.u.

 SYSTEM =  Pt111                                   
 POSCAR =  Pt111                                   

 Startparameter for this run:
   NWRITE =      2    write-flag & timer
   PREC   = accura    normal or accurate (medium, high low for compatibility)
   ISTART =      0    job   : 0-new  1-cont  2-samecut
   ICHARG =      2    charge: 1-file 2-atom 10-const
   ISPIN  =      1    spin polarized calculation?
   LNONCOLLINEAR =      F non collinear calculations
   LSORBIT =      F    spin-orbit coupling
   INIWAV =      1    electr: 0-lowe 1-rand  2-diag
   LASPH  =      F    aspherical Exc in radial PAW
   METAGGA=      F    non-selfconsistent MetaGGA calc.

 Electronic Relaxation 1
   ENCUT  =  550.0 eV  40.42 Ry    6.36 a.u.  21.46 21.46 42.07*2*pi/ulx,y,z
   ENINI  =  550.0     initial cutoff
   ENAUG  =  400.0 eV  augmentation charge cutoff
   NELM   =    200;   NELMIN=  2; NELMDL= -5     # of ELM steps 
   EDIFF  = 0.1E-04   stopping-criterion for ELM
   LREAL  =      T    real-space projection
   NLSPLINE    = F    spline interpolate recip. space projectors
   LCOMPAT=      F    compatible to vasp.4.4
   GGA_COMPAT  = T    GGA compatible to vasp.4.4-vasp.4.6
   LMAXPAW     = -100 max onsite density
   LMAXMIX     =    2 max onsite mixed and CHGCAR
   VOSKOWN=      0    Vosko Wilk Nusair interpolation
   ROPT   =   -0.00025  -0.00025
 Ionic relaxation
   EDIFFG = -.5E-01   stopping-criterion for IOM
   NSW    =    300    number of steps for IOM
   NBLOCK =      1;   KBLOCK =    300    inner block; outer block 
   IBRION =      2    ionic relax: 0-MD 1-quasi-New 2-CG
   NFREE  =      1    steps in history (QN), initial steepest desc. (CG)
   ISIF   =      2    stress and relaxation
   IWAVPR =     11    prediction:  0-non 1-charg 2-wave 3-comb
   ISYM   =      2    0-nonsym 1-usesym 2-fastsym
   LCORR  =      T    Harris-Foulkes like correction to forces

   POTIM  = 0.5000    time-step for ionic-motion
   TEIN   =    0.0    initial temperature
   TEBEG  =    0.0;   TEEND  =   0.0 temperature during run
   SMASS  =  -3.00    Nose mass-parameter (am)
   estimated Nose-frequenzy (Omega)   =  0.10E-29 period in steps =****** mass=  -0.288E-26a.u.
   SCALEE = 1.0000    scale energy and forces
   NPACO  =    256;   APACO  = 16.0  distance and # of slots for P.C.
   PSTRESS=    0.0 pullay stress

  Mass of Ions in am
   POMASS = 195.08  1.00
  Ionic Valenz
   ZVAL   =  10.00  1.00
  Atomic Wigner-Seitz radii
   RWIGS  =  -1.00 -1.00
  virtual crystal weights 
   VCA    =   1.00  1.00
   NELECT =     801.0000    total number of electrons
   NUPDOWN=      -1.0000    fix difference up-down

 DOS related values:
   EMIN   =  10.00;   EMAX   =-10.00  energy-range for DOS
   EFERMI =   0.00
   ISMEAR =     1;   SIGMA  =   0.10  broadening in eV -4-tet -1-fermi 0-gaus

 Electronic relaxation 2 (details)
   IALGO  =     68    algorithm
   LDIAG  =      T    sub-space diagonalisation (order eigenvalues)
   LSUBROT=      F    optimize rotation matrix (better conditioning)
   TURBO    =      0    0=normal 1=particle mesh
   IRESTART =      0    0=no restart 2=restart with 2 vectors
   NREBOOT  =      0    no. of reboots
   NMIN     =      0    reboot dimension
   EREF     =   0.00    reference energy to select bands
   IMIX   =      4    mixing-type and parameters
     AMIX     =   0.40;   BMIX     =  1.00
     AMIX_MAG =   1.60;   BMIX_MAG =  1.00
     AMIN     =   0.10
     WC   =   100.;   INIMIX=   1;  MIXPRE=   1;  MAXMIX= -45

 Intra band minimization:
   WEIMIN = 0.0010     energy-eigenvalue tresh-hold
   EBREAK =  0.52E-08  absolut break condition
   DEPER  =   0.30     relativ break condition  

   TIME   =   0.40     timestep for ELM

  volume/ion in A,a.u.               =      29.63       199.92
  Fermi-wavevector in a.u.,A,eV,Ry     =   1.135629  2.146027 17.546785  1.289652
  Thomas-Fermi vector in A             =   2.272333
 
 Write flags
   LWAVE        =      F    write WAVECAR
   LDOWNSAMPLE  =      F    k-point downsampling of WAVECAR
   LCHARG       =      F    write CHGCAR
   LVTOT        =      F    write LOCPOT, total local potential
   LVHAR        =      F    write LOCPOT, Hartree potential only
   LELF         =      F    write electronic localiz. function (ELF)
   LORBIT       =      0    0 simple, 1 ext, 2 COOP (PROOUT), +10 PAW based schemes


 Dipole corrections
   LMONO  =      F    monopole corrections only (constant potential shift)
   LDIPOL =      F    correct potential (dipole corrections)
   IDIPOL =      0    1-x, 2-y, 3-z, 4-all directions 
   EPSILON=  1.0000000 bulk dielectric constant

 Exchange correlation treatment:
   GGA     =    --    GGA type
   LEXCH   =     8    internal setting for exchange type
   VOSKOWN=      0    Vosko Wilk Nusair interpolation
   LHFCALC =     F    Hartree Fock is set to
   LHFONE  =     F    Hartree Fock one center treatment
   AEXX    =    0.0000 exact exchange contribution

 Linear response parameters
   LEPSILON=     F    determine dielectric tensor
   LRPA    =     F    only Hartree local field effects (RPA)
   LNABLA  =     F    use nabla operator in PAW spheres
   LVEL    =     F    velocity operator in full k-point grid
   LINTERFAST=   F  fast interpolation
   KINTER  =     0    interpolate to denser k-point grid
   CSHIFT  =0.1000    complex shift for real part using Kramers Kronig
   OMEGAMAX=  -1.0    maximum frequency
   DEG_THRESHOLD= 0.2000000E-02 threshold for treating states as degnerate
   RTIME   =   -0.100 relaxation time in fs
  (WPLASMAI=    0.000 imaginary part of plasma frequency in eV, 0.658/RTIME)
   DFIELD  = 0.0000000 0.0000000 0.0000000 field for delta impulse in time
 
 Orbital magnetization related:
   ORBITALMAG=     F  switch on orbital magnetization
   LCHIMAG   =     F  perturbation theory with respect to B field
   DQ        =  0.001000  dq finite difference perturbation B field
   LLRAUG    =     F  two centre corrections for induced B field



--------------------------------------------------------------------------------------------------------


 conjugate gradient relaxation of ions
   using selective dynamics as specified on POSCAR
 charge density and potential will be updated during run
 non-spin polarized calculation
 RMM-DIIS sequential band-by-band and
  variant of blocked Davidson during initial phase
 perform sub-space diagonalisation
    before iterative eigenvector-optimisation
 modified Broyden-mixing scheme, WC =      100.0
 initial mixing is a Kerker type mixing with AMIX =  0.4000 and BMIX =      1.0000
 Hartree-type preconditioning will be used
 using additional bands           79
 real space projection scheme for non local part
 use partial core corrections
 calculate Harris-corrections to forces 
   (improved forces if not selfconsistent)
 use gradient corrections 
 use of overlap-Matrix (Vanderbilt PP)
 Methfessel and Paxton  Order N= 1 SIGMA  =   0.10


--------------------------------------------------------------------------------------------------------


  energy-cutoff  :      550.00
  volume of cell :     2399.65
      direct lattice vectors                 reciprocal lattice vectors
    11.222700119  0.000000000  0.000000000     0.089105116 -0.051444863  0.000000000
     5.611350060  9.719143402  0.000000000     0.000000000  0.102889726  0.000000000
     0.000000000  0.000000000 22.000000000     0.000000000  0.000000000  0.045454545

  length of vectors
    11.222700119 11.222700119 22.000000000     0.102889726  0.102889726  0.045454545


 
 k-points in units of 2pi/SCALE and weight: mesh auto                               
   0.00000000  0.00000000  0.00000000       0.250
   0.04455256 -0.02572243  0.00000000       0.250
   0.00000000  0.05144486  0.00000000       0.250
   0.04455256  0.02572243  0.00000000       0.250
 
 k-points in reciprocal lattice and weights: mesh auto                               
   0.00000000  0.00000000  0.00000000       0.250
   0.50000000  0.00000000  0.00000000       0.250
   0.00000000  0.50000000  0.00000000       0.250
   0.50000000  0.50000000  0.00000000       0.250
 
 position of ions in fractional coordinates (direct lattice) 
   0.78476987  0.86934040  0.32689841
   0.03474100  0.86952693  0.32701432
   0.03494643  0.61940361  0.32707513
   0.78778234  0.86708081  0.02322838
   0.03741891  0.86782571  0.02343044
   0.03733223  0.61744215  0.02358518
   0.61967002  0.20167069  0.12620282
   0.36966679  0.95165476  0.12629235
   0.03469573  0.36958778  0.32713089
   0.03726394  0.36764546  0.02367965
   0.86975264  0.20201185  0.12632517
   0.95187945  0.53563024  0.22681922
   0.28481320  0.11961047  0.32712131
   0.53438997  0.61955526  0.32828007
   0.28526169  0.36992206  0.32753966
   0.28790237  0.11758341  0.02349269
   0.53686476  0.61741667  0.02320581
   0.28715680  0.36776859  0.02360717
   0.61950132  0.95151513  0.12618906
   0.70175996  0.78546777  0.22657854
   0.86911134  0.70165331  0.12633239
   0.61906014  0.45203508  0.12627515
   0.28490710  0.86921433  0.32746636
   0.28745236  0.86772760  0.02328729
   0.61884343  0.70163225  0.12615123
   0.20194991  0.03593381  0.22668971
   0.86751865  0.95331418  0.43009141
   0.11693407  0.45333335  0.43019217
   0.11628991  0.95452406  0.43016202
   0.86832245  0.45329741  0.43019283
   0.36766447  0.95449375  0.43018925
   0.86800618  0.20270979  0.43016437
   0.11753709  0.20340821  0.42996976
   0.61774086  0.95334407  0.43008973
   0.86777003  0.70303570  0.43011756
   0.36783828  0.20276546  0.43018881
   0.36433923  0.70958061  0.43213501
   0.62249873  0.45109952  0.43221701
   0.11441293  0.70504256  0.43023729
   0.61891814  0.20052538  0.43022865
   0.53459528  0.36996452  0.32826512
   0.53742047  0.36722028  0.02336212
   0.53498790  0.11949644  0.32701568
   0.53766488  0.11740608  0.02331284
   0.86924553  0.45187393  0.12639505
   0.11943584  0.45183688  0.12660821
   0.03457857  0.11964703  0.32706855
   0.03779183  0.11775766  0.02349972
   0.11970360  0.95181534  0.12632195
   0.36494564  0.45136555  0.43224769
   0.45189603  0.53578398  0.22737214
   0.61903008  0.70518761  0.43023383
   0.36984651  0.20182574  0.12650961
   0.11990143  0.20189339  0.12646702
   0.95196028  0.78562388  0.22666349
   0.78453815  0.61941457  0.32705217
   0.28506699  0.61960636  0.32827041
   0.78711333  0.61745470  0.02326990
   0.28710245  0.61747126  0.02341798
   0.36896035  0.70187635  0.12632636
   0.36933633  0.45184057  0.12653267
   0.20214306  0.28565465  0.22686280
   0.78388989  0.36993137  0.32743269
   0.78728009  0.36748931  0.02331929
   0.95199055  0.03581886  0.22666308
   0.45174462  0.78541091  0.22687055
   0.70151211  0.53564260  0.22685593
   0.20220826  0.78550547  0.22693471
   0.45196030  0.03567063  0.22673453
   0.11913336  0.70182942  0.12644307
   0.70201537  0.03563615  0.22656951
   0.78455982  0.11961306  0.32698052
   0.53474355  0.86944540  0.32700295
   0.78789222  0.11733673  0.02331081
   0.53753409  0.86754281  0.02310566
   0.20235322  0.53567144  0.22703667
   0.95208393  0.28575334  0.22674075
   0.86956192  0.95163725  0.12625087
   0.70173144  0.28604422  0.22680412
   0.45212671  0.28604924  0.22695762
   0.45059247  0.53968463  0.47006409
 
 position of ions in cartesian coordinates  (Angst):
  13.68541025  8.44924398  7.19176513
   5.26910787  8.45105693  7.19431497
   3.86788373  6.02007247  7.19565291
  13.70653898  8.42728275  0.51102426
   5.28961512  8.43452255  0.51546971
   3.88365249  6.00100876  0.51887389
   8.08601566  1.96006637  2.77646198
   9.48872753  9.24926910  2.77843175
   2.46326617  3.59207664  7.19687953
   2.48118936  3.57319895  0.52095234
  10.89453224  1.96338215  2.77915380
  13.68826636  5.20586713  4.99002283
   3.86754928  1.16251128  7.19666892
   9.47383987  6.02154643  7.22216143
   5.27716854  3.59532550  7.20587256
   3.89084360  1.14280999  0.51683913
   9.48961321  6.00076111  0.51052791
   5.28635297  3.57439564  0.51935764
  12.29176199  9.24791202  2.77615936
  12.28317619  7.63407388  4.98472793
  13.69099830  6.81946911  2.77931268
   9.48405336  4.39339375  2.77805329
   8.07489290  8.44801877  7.20425985
   8.09511497  8.43356894  0.51232039
  10.88219843  6.81926446  2.77532713
   2.46806049  0.34924584  4.98717367
  15.08528122  9.26539720  9.46201111
   3.85612809  4.40601185  9.46422766
   6.66125536  9.27715617  9.46356433
  12.28853294  4.40566257  9.46424217
   9.48218663  9.27686161  9.46416360
  10.87884863  1.97016550  9.46361617
   2.46047818  1.97695359  9.45933468
  12.28226779  9.26568774  9.46197417
  13.68370220  6.83290477  9.46258624
   5.26592666  1.97070661  9.46415393
   8.07057516  6.89651574  9.50697017
   9.51739392  4.38430091  9.50877426
   5.24026263  6.85240970  9.46522040
   8.07115085  1.94893495  9.46503023
   8.07560288  3.59573820  7.22183269
   8.09191031  3.56906652  0.51396658
   6.67454517  1.16140308  7.19434493
   6.69285830  1.14108654  0.51288257
  12.29090474  4.39182748  2.78069118
   3.87580752  4.39146745  2.78538061
   1.05944631  1.16286663  7.19550800
   1.08490582  1.14450361  0.51699391
   6.68436665  9.25082981  2.77908294
   6.62844561  4.38688655  9.50944921
   8.07796509  5.20736137  5.00218713
  10.90424348  6.85381949  9.46514430
   5.28319127  1.96157326  2.78321139
   2.47851226  1.96223083  2.78227450
  15.09197538  7.63559119  4.98659684
  12.28038838  6.02017901  7.19514784
   6.67604955  6.02204302  7.22194907
  12.29829137  6.00113077  0.51193787
   6.68691212  6.00129172  0.51519546
   8.07920524  6.82163686  2.77917997
   6.68038646  4.39150330  2.78371868
   3.87149913  2.77631850  4.99098170
  10.87317558  3.59541608  7.20351907
  10.89751950  3.57168134  0.51302436
  10.88489667  0.34812863  4.98658785
   9.47700995  7.63352128  4.99115205
  10.87853821  5.20598728  4.99083048
   6.67706880  7.63444029  4.99256360
   5.27237531  0.34668800  4.98815970
   5.27520854  6.82118073  2.78174761
   8.07847497  0.34635290  4.98452918
   9.47607029  1.16253645  7.19357150
  10.88002902  8.45026451  7.19406481
   9.50069554  1.14041251  0.51283775
  10.90067030  8.43177300  0.50832443
   5.27678943  5.20626753  4.99480669
  12.28841449  2.77727768  4.98829660
  15.09880243  9.24909887  2.77751917
   9.48041580  2.78010476  4.98969066
   6.67920487  2.78015356  4.99306764
   8.08522354  5.24527235 10.34141007
 


--------------------------------------------------------------------------------------------------------


 k-point  1 :   0.0000 0.0000 0.0000  plane waves:   70321
 k-point  2 :   0.5000 0.0000 0.0000  plane waves:   70264
 k-point  3 :   0.0000 0.5000 0.0000  plane waves:   70264
 k-point  4 :   0.5000 0.5000 0.0000  plane waves:   70264

 maximum and minimum number of plane-waves per node :     17611    17530

 maximum number of plane-waves:     70321
 maximum index in each direction: 
   IXMAX=   21   IYMAX=   21   IZMAX=   42
   IXMIN=  -21   IYMIN=  -21   IZMIN=  -42


 real space projection operators:
  total allocation   :      86171.46 KBytes
  max/ min on nodes  :      22028.29      21062.15


 parallel 3D FFT for wavefunctions:
    minimum data exchange during FFTs selected (reduces bandwidth)
 parallel 3D FFT for charge:
    minimum data exchange during FFTs selected (reduces bandwidth)


 total amount of memory used by VASP MPI-rank0   174660. kBytes
=======================================================================

   base      :      30000. kBytes
   nonlr-proj:      37987. kBytes
   fftplans  :      20287. kBytes
   grid      :      30949. kBytes
   one-center:        326. kBytes
   wavefun   :      55111. kBytes
 
     INWAV:  cpu time    0.0000: real time    0.0000
 Broyden mixing: mesh for mixing (old mesh)
   NGX = 43   NGY = 43   NGZ = 85
  (NGX  =180   NGY  =180   NGZ  =336)
  gives a total of 157165 points

 initial charge density was supplied:
 charge density of overlapping atoms calculated
 number of electron     801.0000000 magnetization 
 keeping initial charge density in first step


--------------------------------------------------------------------------------------------------------


 Maximum index for non-local projection operator         2100
 Maximum index for augmentation-charges         1777 (set IRDMAX)


--------------------------------------------------------------------------------------------------------


 First call to EWALD:  gamma=   0.132
 Maximum number of real-space cells 4x 4x 2
 Maximum number of reciprocal cells 2x 2x 4

    FEWALD:  cpu time    0.0036: real time    0.0036


--------------------------------------- Iteration      1(   1)  ---------------------------------------


    POTLOK:  cpu time    0.2161: real time    0.2181
    SETDIJ:  cpu time    0.0205: real time    0.0211
     EDDAV:  cpu time   30.6045: real time   30.7023
       DOS:  cpu time    0.0011: real time    0.0044
    --------------------------------------------
      LOOP:  cpu time   30.8423: real time   30.9459

 eigenvalue-minimisations  :  3840
 total energy-change (2. order) : 0.5609581E+04  (-0.3903669E+05)
 number of electron     801.0000000 magnetization 
 augmentation part      801.0000000 magnetization 

 Free energy of the ion-electron system (eV)
  ---------------------------------------------------
  alpha Z        PSCENC =      2539.23836485
  Ewald energy   TEWEN  =    178651.94837608
  -Hartree energ DENC   =   -242724.83669705
  -exchange      EXHF   =         0.00000000
  -V(xc)+E(xc)   XCENC  =       282.55549893
  PAW double counting   =     55692.01686169   -53429.36650374
  entropy T*S    EENTRO =         0.00528237
  eigenvalues    EBANDS =      6256.28851140
  atomic energy  EATOM  =     58341.73154849
  Solvation  Ediel_sol  =         0.00000000
  ---------------------------------------------------
  free energy    TOTEN  =      5609.58124303 eV

  energy without entropy =     5609.57596066  energy(sigma->0) =     5609.57948224


--------------------------------------------------------------------------------------------------------




--------------------------------------- Iteration      1(   2)  ---------------------------------------


     EDDAV:  cpu time   33.2405: real time   33.3388
       DOS:  cpu time    0.0012: real time    0.0046
    --------------------------------------------
      LOOP:  cpu time   33.2417: real time   33.3433

 eigenvalue-minimisations  :  4280
 total energy-change (2. order) :-0.5745666E+04  (-0.5338447E+04)
 number of electron     801.0000000 magnetization 
 augmentation part      801.0000000 magnetization 

 Free energy of the ion-electron system (eV)
  ---------------------------------------------------
  alpha Z        PSCENC =      2539.23836485
  Ewald energy   TEWEN  =    178651.94837608
  -Hartree energ DENC   =   -242724.83669705
  -exchange      EXHF   =         0.00000000
  -V(xc)+E(xc)   XCENC  =       282.55549893
  PAW double counting   =     55692.01686169   -53429.36650374
  entropy T*S    EENTRO =        -0.00783941
  eigenvalues    EBANDS =       510.63576366
  atomic energy  EATOM  =     58341.73154849
  Solvation  Ediel_sol  =         0.00000000
  ---------------------------------------------------
  free energy    TOTEN  =      -136.08462648 eV

  energy without entropy =     -136.07678707  energy(sigma->0) =     -136.08201334


--------------------------------------------------------------------------------------------------------




--------------------------------------- Iteration      1(   3)  ---------------------------------------


     EDDAV:  cpu time   35.1239: real time   35.2230
       DOS:  cpu time    0.0013: real time    0.0013
    --------------------------------------------
      LOOP:  cpu time   35.1251: real time   35.2243

 eigenvalue-minimisations  :  4580
 total energy-change (2. order) :-0.3471191E+03  (-0.3101134E+03)
 number of electron     801.0000000 magnetization 
 augmentation part      801.0000000 magnetization 

 Free energy of the ion-electron system (eV)
  ---------------------------------------------------
  alpha Z        PSCENC =      2539.23836485
  Ewald energy   TEWEN  =    178651.94837608
  -Hartree energ DENC   =   -242724.83669705
  -exchange      EXHF   =         0.00000000
  -V(xc)+E(xc)   XCENC  =       282.55549893
  PAW double counting   =     55692.01686169   -53429.36650374
  entropy T*S    EENTRO =        -0.07249589
  eigenvalues    EBANDS =       163.58136891
  atomic energy  EATOM  =     58341.73154849
  Solvation  Ediel_sol  =         0.00000000
  ---------------------------------------------------
  free energy    TOTEN  =      -483.20367772 eV

  energy without entropy =     -483.13118183  energy(sigma->0) =     -483.17951243


--------------------------------------------------------------------------------------------------------




--------------------------------------- Iteration      1(   4)  ---------------------------------------


     EDDAV:  cpu time   36.8359: real time   36.9445
       DOS:  cpu time    0.0012: real time    0.0012
    --------------------------------------------
      LOOP:  cpu time   36.8370: real time   36.9456

 eigenvalue-minimisations  :  4920
 total energy-change (2. order) :-0.1731902E+02  (-0.1642331E+02)
 number of electron     801.0000000 magnetization 
 augmentation part      801.0000000 magnetization 

 Free energy of the ion-electron system (eV)
  ---------------------------------------------------
  alpha Z        PSCENC =      2539.23836485
  Ewald energy   TEWEN  =    178651.94837608
  -Hartree energ DENC   =   -242724.83669705
  -exchange      EXHF   =         0.00000000
  -V(xc)+E(xc)   XCENC  =       282.55549893
  PAW double counting   =     55692.01686169   -53429.36650374
  entropy T*S    EENTRO =        -0.08470025
  eigenvalues    EBANDS =       146.27455401
  atomic energy  EATOM  =     58341.73154849
  Solvation  Ediel_sol  =         0.00000000
  ---------------------------------------------------
  free energy    TOTEN  =      -500.52269698 eV

  energy without entropy =     -500.43799672  energy(sigma->0) =     -500.49446356


--------------------------------------------------------------------------------------------------------




--------------------------------------- Iteration      1(   5)  ---------------------------------------


     EDDAV:  cpu time   36.2628: real time   36.3687
       DOS:  cpu time    0.0011: real time    0.0011
    CHARGE:  cpu time    2.5126: real time    2.5198
    MIXING:  cpu time    0.0067: real time    0.0074
    --------------------------------------------
      LOOP:  cpu time   38.7833: real time   38.8971

 eigenvalue-minimisations  :  4810
 total energy-change (2. order) :-0.4506483E+00  (-0.4483895E+00)
 number of electron     800.9999996 magnetization 
 augmentation part      232.3542240 magnetization 

 Broyden mixing:
  rms(total) = 0.99204E+01    rms(broyden)= 0.99204E+01
  rms(prec ) = 0.10097E+02
  weight for this iteration     100.00

 Free energy of the ion-electron system (eV)
  ---------------------------------------------------
  alpha Z        PSCENC =      2539.23836485
  Ewald energy   TEWEN  =    178651.94837608
  -Hartree energ DENC   =   -242724.83669705
  -exchange      EXHF   =         0.00000000
  -V(xc)+E(xc)   XCENC  =       282.55549893
  PAW double counting   =     55692.01686169   -53429.36650374
  entropy T*S    EENTRO =        -0.08557546
  eigenvalues    EBANDS =       145.82478089
  atomic energy  EATOM  =     58341.73154849
  Solvation  Ediel_sol  =         0.00000000
  ---------------------------------------------------
  free energy    TOTEN  =      -500.97334530 eV

  energy without entropy =     -500.88776984  energy(sigma->0) =     -500.94482015


--------------------------------------------------------------------------------------------------------




--------------------------------------- Iteration      1(   6)  ---------------------------------------


    POTLOK:  cpu time    0.2000: real time    0.2005
    SETDIJ:  cpu time    0.0160: real time    0.0163
    EDDIAG:  cpu time    5.3578: real time    5.3737
  RMM-DIIS:  cpu time   19.2081: real time   19.2642
    ORTHCH:  cpu time    0.4915: real time    0.4932
       DOS:  cpu time    0.0011: real time    0.0011
    CHARGE:  cpu time    2.5426: real time    2.5497
    MIXING:  cpu time    0.0071: real time    0.0074
    --------------------------------------------
      LOOP:  cpu time   27.8243: real time   27.9061

 eigenvalue-minimisations  :  3870
 total energy-change (2. order) :-0.1423780E+02  (-0.1024620E+02)
 number of electron     800.9999991 magnetization 
 augmentation part      245.5214996 magnetization 

 Broyden mixing:
  rms(total) = 0.89937E+01    rms(broyden)= 0.89937E+01
  rms(prec ) = 0.10204E+02
  weight for this iteration     100.00

 eigenvalues of (default mixing * dielectric matrix)
  average eigenvalue GAMMA=   0.7377
  0.7377

 Free energy of the ion-electron system (eV)
  ---------------------------------------------------
  alpha Z        PSCENC =      2539.23836485
  Ewald energy   TEWEN  =    178651.94837608
  -Hartree energ DENC   =   -241603.95942471
  -exchange      EXHF   =         0.00000000
  -V(xc)+E(xc)   XCENC  =       261.80300319
  PAW double counting   =     61949.52188007   -59809.35159061
  entropy T*S    EENTRO =         0.01282297
  eigenvalues    EBANDS =      -846.15612486
  atomic energy  EATOM  =     58341.73154849
  Solvation  Ediel_sol  =         0.00000000
  ---------------------------------------------------
  free energy    TOTEN  =      -515.21114451 eV

  energy without entropy =     -515.22396748  energy(sigma->0) =     -515.21541883


--------------------------------------------------------------------------------------------------------




--------------------------------------- Iteration      1(   7)  ---------------------------------------


    POTLOK:  cpu time    0.1934: real time    0.1938
    SETDIJ:  cpu time    0.0165: real time    0.0166
    EDDIAG:  cpu time    5.3553: real time    5.3712
  RMM-DIIS:  cpu time   18.8579: real time   18.9128
    ORTHCH:  cpu time    0.4863: real time    0.4875
       DOS:  cpu time    0.0011: real time    0.0011
    CHARGE:  cpu time    2.5055: real time    2.5130
    MIXING:  cpu time    0.0067: real time    0.0067
    --------------------------------------------
      LOOP:  cpu time   27.4227: real time   27.5027

 eigenvalue-minimisations  :  3851
 total energy-change (2. order) :-0.1755590E+02  (-0.1212818E+02)
 number of electron     801.0000000 magnetization 
 augmentation part      242.0979171 magnetization 

 Broyden mixing:
  rms(total) = 0.72783E+01    rms(broyden)= 0.72783E+01
  rms(prec ) = 0.91195E+01
  weight for this iteration     100.00

 eigenvalues of (default mixing * dielectric matrix)
  average eigenvalue GAMMA=   1.1922
  2.1611  0.2233

 Free energy of the ion-electron system (eV)
  ---------------------------------------------------
  alpha Z        PSCENC =      2539.23836485
  Ewald energy   TEWEN  =    178651.94837608
  -Hartree energ DENC   =   -242436.55241177
  -exchange      EXHF   =         0.00000000
  -V(xc)+E(xc)   XCENC  =       258.34572545
  PAW double counting   =     64216.43551464   -62101.66264850
  entropy T*S    EENTRO =        -0.22477193
  eigenvalues    EBANDS =        -2.02673974
  atomic energy  EATOM  =     58341.73154849
  Solvation  Ediel_sol  =         0.00000000
  ---------------------------------------------------
  free energy    TOTEN  =      -532.76704242 eV

  energy without entropy =     -532.54227049  energy(sigma->0) =     -532.69211844


--------------------------------------------------------------------------------------------------------




--------------------------------------- Iteration      1(   8)  ---------------------------------------


    POTLOK:  cpu time    0.1942: real time    0.1947
    SETDIJ:  cpu time    0.0161: real time    0.0161
    EDDIAG:  cpu time    5.3541: real time    5.3695
  RMM-DIIS:  cpu time   18.9322: real time   18.9874
    ORTHCH:  cpu time    0.4891: real time    0.4908
       DOS:  cpu time    0.0011: real time    0.0011
    CHARGE:  cpu time    2.5002: real time    2.5071
    MIXING:  cpu time    0.0071: real time    0.0071
    --------------------------------------------
      LOOP:  cpu time   27.4942: real time   27.5738

 eigenvalue-minimisations  :  3859
 total energy-change (2. order) : 0.3705547E+02  (-0.4225987E+01)
 number of electron     800.9999996 magnetization 
 augmentation part      249.9067003 magnetization 

 Broyden mixing:
  rms(total) = 0.43565E+01    rms(broyden)= 0.43565E+01
  rms(prec ) = 0.59292E+01
  weight for this iteration     100.00

 eigenvalues of (default mixing * dielectric matrix)
  average eigenvalue GAMMA=   0.9347
  2.1624  0.4099  0.2319

 Free energy of the ion-electron system (eV)
  ---------------------------------------------------
  alpha Z        PSCENC =      2539.23836485
  Ewald energy   TEWEN  =    178651.94837608
  -Hartree energ DENC   =   -241802.15741149
  -exchange      EXHF   =         0.00000000
  -V(xc)+E(xc)   XCENC  =       249.65945450
  PAW double counting   =     71334.65342451   -69312.01113830
  entropy T*S    EENTRO =        -0.04301344
  eigenvalues    EBANDS =      -498.73118237
  atomic energy  EATOM  =     58341.73154849
  Solvation  Ediel_sol  =         0.00000000
  ---------------------------------------------------
  free energy    TOTEN  =      -495.71157718 eV

  energy without entropy =     -495.66856373  energy(sigma->0) =     -495.69723936


--------------------------------------------------------------------------------------------------------




--------------------------------------- Iteration      1(   9)  ---------------------------------------


    POTLOK:  cpu time    0.1974: real time    0.1979
    SETDIJ:  cpu time    0.0162: real time    0.0162
    EDDIAG:  cpu time    5.3536: real time    5.3695
  RMM-DIIS:  cpu time   18.8327: real time   18.8877
    ORTHCH:  cpu time    0.4824: real time    0.4835
       DOS:  cpu time    0.0010: real time    0.0010
    CHARGE:  cpu time    2.4944: real time    2.5018
    MIXING:  cpu time    0.0071: real time    0.0071
    --------------------------------------------
      LOOP:  cpu time   27.3848: real time   27.4647

 eigenvalue-minimisations  :  3853
 total energy-change (2. order) :-0.1858717E+02  (-0.3127068E+01)
 number of electron     800.9999993 magnetization 
 augmentation part      249.3442220 magnetization 

 Broyden mixing:
  rms(total) = 0.54008E+01    rms(broyden)= 0.54008E+01
  rms(prec ) = 0.89345E+01
  weight for this iteration     100.00

 eigenvalues of (default mixing * dielectric matrix)
  average eigenvalue GAMMA=   0.8073
  2.1760  0.7038  0.2216  0.1279

 Free energy of the ion-electron system (eV)
  ---------------------------------------------------
  alpha Z        PSCENC =      2539.23836485
  Ewald energy   TEWEN  =    178651.94837608
  -Hartree energ DENC   =   -241750.45374844
  -exchange      EXHF   =         0.00000000
  -V(xc)+E(xc)   XCENC  =       250.54656018
  PAW double counting   =     71589.52467415   -69566.75854546
  entropy T*S    EENTRO =        -0.07929217
  eigenvalues    EBANDS =      -569.99668196
  atomic energy  EATOM  =     58341.73154849
  Solvation  Ediel_sol  =         0.00000000
  ---------------------------------------------------
  free energy    TOTEN  =      -514.29874427 eV

  energy without entropy =     -514.21945210  energy(sigma->0) =     -514.27231355


--------------------------------------------------------------------------------------------------------




--------------------------------------- Iteration      1(  10)  ---------------------------------------


    POTLOK:  cpu time    0.1996: real time    0.2001
    SETDIJ:  cpu time    0.0160: real time    0.0161
    EDDIAG:  cpu time    5.3552: real time    5.3706
  RMM-DIIS:  cpu time   18.9614: real time   19.0170
    ORTHCH:  cpu time    0.4867: real time    0.4884
       DOS:  cpu time    0.0011: real time    0.0011
    CHARGE:  cpu time    2.5111: real time    2.5181
    MIXING:  cpu time    0.0077: real time    0.0077
    --------------------------------------------
      LOOP:  cpu time   27.5388: real time   27.6191

 eigenvalue-minimisations  :  3860
 total energy-change (2. order) : 0.3007322E+02  (-0.2465181E+01)
 number of electron     800.9999996 magnetization 
 augmentation part      249.6415102 magnetization 

 Broyden mixing:
  rms(total) = 0.38214E+01    rms(broyden)= 0.38214E+01
  rms(prec ) = 0.53769E+01
  weight for this iteration     100.00

 eigenvalues of (default mixing * dielectric matrix)
  average eigenvalue GAMMA=   0.7740
  2.2090  1.0937  0.2357  0.2357  0.0962

 Free energy of the ion-electron system (eV)
  ---------------------------------------------------
  alpha Z        PSCENC =      2539.23836485
  Ewald energy   TEWEN  =    178651.94837608
  -Hartree energ DENC   =   -241746.67880448
  -exchange      EXHF   =         0.00000000
  -V(xc)+E(xc)   XCENC  =       251.54946084
  PAW double counting   =     71840.33420573   -69817.00915384
  entropy T*S    EENTRO =         0.00968998
  eigenvalues    EBANDS =      -545.34921077
  atomic energy  EATOM  =     58341.73154849
  Solvation  Ediel_sol  =         0.00000000
  ---------------------------------------------------
  free energy    TOTEN  =      -484.22552311 eV

  energy without entropy =     -484.23521308  energy(sigma->0) =     -484.22875310


--------------------------------------------------------------------------------------------------------




--------------------------------------- Iteration      1(  11)  ---------------------------------------


    POTLOK:  cpu time    0.1995: real time    0.2002
    SETDIJ:  cpu time    0.0162: real time    0.0164
    EDDIAG:  cpu time    5.3550: real time    5.3703
  RMM-DIIS:  cpu time   19.0128: real time   19.0684
    ORTHCH:  cpu time    0.5483: real time    0.5500
       DOS:  cpu time    0.0011: real time    0.0011
    CHARGE:  cpu time    2.5164: real time    2.5234
    MIXING:  cpu time    0.0083: real time    0.0083
    --------------------------------------------
      LOOP:  cpu time   27.6575: real time   27.7382

 eigenvalue-minimisations  :  3857
 total energy-change (2. order) : 0.6445982E+01  (-0.6848689E+00)
 number of electron     800.9999992 magnetization 
 augmentation part      248.6929032 magnetization 

 Broyden mixing:
  rms(total) = 0.29806E+01    rms(broyden)= 0.29806E+01
  rms(prec ) = 0.43278E+01
  weight for this iteration     100.00

 eigenvalues of (default mixing * dielectric matrix)
  average eigenvalue GAMMA=   0.6858
  2.2002  1.0813  0.2583  0.2583  0.2276  0.0893

 Free energy of the ion-electron system (eV)
  ---------------------------------------------------
  alpha Z        PSCENC =      2539.23836485
  Ewald energy   TEWEN  =    178651.94837608
  -Hartree energ DENC   =   -241802.27405814
  -exchange      EXHF   =         0.00000000
  -V(xc)+E(xc)   XCENC  =       252.94825936
  PAW double counting   =     72194.03091076   -70168.64006112
  entropy T*S    EENTRO =         0.06155582
  eigenvalues    EBANDS =      -486.82443687
  atomic energy  EATOM  =     58341.73154849
  Solvation  Ediel_sol  =         0.00000000
  ---------------------------------------------------
  free energy    TOTEN  =      -477.77954076 eV

  energy without entropy =     -477.84109657  energy(sigma->0) =     -477.80005936


--------------------------------------------------------------------------------------------------------




--------------------------------------- Iteration      1(  12)  ---------------------------------------


    POTLOK:  cpu time    0.1993: real time    0.1998
    SETDIJ:  cpu time    0.0161: real time    0.0161
    EDDIAG:  cpu time    5.3509: real time    5.3666
  RMM-DIIS:  cpu time   19.0143: real time   19.0696
    ORTHCH:  cpu time    0.4889: real time    0.4900
       DOS:  cpu time    0.0012: real time    0.0012
    CHARGE:  cpu time    2.5149: real time    2.5224
    MIXING:  cpu time    0.0081: real time    0.0081
    --------------------------------------------
      LOOP:  cpu time   27.5935: real time   27.6738

 eigenvalue-minimisations  :  3860
 total energy-change (2. order) : 0.6780227E+01  (-0.2958611E+00)
 number of electron     800.9999995 magnetization 
 augmentation part      248.5215464 magnetization 

 Broyden mixing:
  rms(total) = 0.16517E+01    rms(broyden)= 0.16517E+01
  rms(prec ) = 0.20491E+01
  weight for this iteration     100.00

 eigenvalues of (default mixing * dielectric matrix)
  average eigenvalue GAMMA=   0.6675
  2.0907  0.8462  0.8462  0.3551  0.2221  0.2221  0.0899

 Free energy of the ion-electron system (eV)
  ---------------------------------------------------
  alpha Z        PSCENC =      2539.23836485
  Ewald energy   TEWEN  =    178651.94837608
  -Hartree energ DENC   =   -241819.13695526
  -exchange      EXHF   =         0.00000000
  -V(xc)+E(xc)   XCENC  =       253.09223839
  PAW double counting   =     72188.44699962   -70162.11827276
  entropy T*S    EENTRO =        -0.18572570
  eigenvalues    EBANDS =      -464.01588753
  atomic energy  EATOM  =     58341.73154849
  Solvation  Ediel_sol  =         0.00000000
  ---------------------------------------------------
  free energy    TOTEN  =      -470.99931381 eV

  energy without entropy =     -470.81358812  energy(sigma->0) =     -470.93740525


--------------------------------------------------------------------------------------------------------




--------------------------------------- Iteration      1(  13)  ---------------------------------------


    POTLOK:  cpu time    0.2018: real time    0.2022
    SETDIJ:  cpu time    0.0163: real time    0.0164
    EDDIAG:  cpu time    5.3512: real time    5.3667
  RMM-DIIS:  cpu time   18.9228: real time   18.9778
    ORTHCH:  cpu time    0.4912: real time    0.4929
       DOS:  cpu time    0.0011: real time    0.0011
    CHARGE:  cpu time    2.5087: real time    2.5157
    MIXING:  cpu time    0.0086: real time    0.0086
    --------------------------------------------
      LOOP:  cpu time   27.5016: real time   27.5813

 eigenvalue-minimisations  :  3860
 total energy-change (2. order) : 0.6808221E+00  (-0.1918930E+00)
 number of electron     800.9999995 magnetization 
 augmentation part      248.4723072 magnetization 

 Broyden mixing:
  rms(total) = 0.12103E+01    rms(broyden)= 0.12103E+01
  rms(prec ) = 0.15041E+01
  weight for this iteration     100.00

 eigenvalues of (default mixing * dielectric matrix)
  average eigenvalue GAMMA=   0.6617
  1.9895  1.1178  1.1178  0.3083  0.2271  0.2271  0.2158  0.0900

 Free energy of the ion-electron system (eV)
  ---------------------------------------------------
  alpha Z        PSCENC =      2539.23836485
  Ewald energy   TEWEN  =    178651.94837608
  -Hartree energ DENC   =   -241827.11417101
  -exchange      EXHF   =         0.00000000
  -V(xc)+E(xc)   XCENC  =       253.29632079
  PAW double counting   =     71986.99394557   -69957.88776022
  entropy T*S    EENTRO =        -0.19090800
  eigenvalues    EBANDS =      -458.33420823
  atomic energy  EATOM  =     58341.73154849
  Solvation  Ediel_sol  =         0.00000000
  ---------------------------------------------------
  free energy    TOTEN  =      -470.31849167 eV

  energy without entropy =     -470.12758367  energy(sigma->0) =     -470.25485567


--------------------------------------------------------------------------------------------------------




--------------------------------------- Iteration      1(  14)  ---------------------------------------


    POTLOK:  cpu time    0.1987: real time    0.1996
    SETDIJ:  cpu time    0.0159: real time    0.0161
    EDDIAG:  cpu time    5.5298: real time    5.5456
  RMM-DIIS:  cpu time   19.0332: real time   19.0888
    ORTHCH:  cpu time    0.4878: real time    0.4894
       DOS:  cpu time    0.0011: real time    0.0011
    CHARGE:  cpu time    2.4909: real time    2.4978
    MIXING:  cpu time    0.0090: real time    0.0090
    --------------------------------------------
      LOOP:  cpu time   27.7665: real time   27.8474

 eigenvalue-minimisations  :  3865
 total energy-change (2. order) : 0.3317080E+00  (-0.1037990E+00)
 number of electron     800.9999995 magnetization 
 augmentation part      248.3539001 magnetization 

 Broyden mixing:
  rms(total) = 0.10994E+01    rms(broyden)= 0.10994E+01
  rms(prec ) = 0.15727E+01
  weight for this iteration     100.00

 eigenvalues of (default mixing * dielectric matrix)
  average eigenvalue GAMMA=   0.6463
  1.9424  1.2125  1.2125  0.3669  0.3669  0.2375  0.2240  0.0899  0.1642

 Free energy of the ion-electron system (eV)
  ---------------------------------------------------
  alpha Z        PSCENC =      2539.23836485
  Ewald energy   TEWEN  =    178651.94837608
  -Hartree energ DENC   =   -241842.87714955
  -exchange      EXHF   =         0.00000000
  -V(xc)+E(xc)   XCENC  =       253.48154256
  PAW double counting   =     71862.97165470   -69831.97638742
  entropy T*S    EENTRO =        -0.20624570
  eigenvalues    EBANDS =      -444.29848772
  atomic energy  EATOM  =     58341.73154849
  Solvation  Ediel_sol  =         0.00000000
  ---------------------------------------------------
  free energy    TOTEN  =      -469.98678370 eV

  energy without entropy =     -469.78053800  energy(sigma->0) =     -469.91803513


--------------------------------------------------------------------------------------------------------




--------------------------------------- Iteration      1(  15)  ---------------------------------------


    POTLOK:  cpu time    0.1979: real time    0.1984
    SETDIJ:  cpu time    0.0164: real time    0.0164
    EDDIAG:  cpu time    5.3646: real time    5.3808
  RMM-DIIS:  cpu time   19.0822: real time   19.1376
    ORTHCH:  cpu time    0.4853: real time    0.4864
       DOS:  cpu time    0.0011: real time    0.0011
    CHARGE:  cpu time    2.4842: real time    2.4916
    MIXING:  cpu time    0.0089: real time    0.0090
    --------------------------------------------
      LOOP:  cpu time   27.6407: real time   27.7213

 eigenvalue-minimisations  :  3863
 total energy-change (2. order) : 0.3773518E+00  (-0.4736745E-01)
 number of electron     800.9999995 magnetization 
 augmentation part      248.2151730 magnetization 

 Broyden mixing:
  rms(total) = 0.78118E+00    rms(broyden)= 0.78117E+00
  rms(prec ) = 0.10384E+01
  weight for this iteration     100.00

 eigenvalues of (default mixing * dielectric matrix)
  average eigenvalue GAMMA=   0.6219
  1.9326  1.2218  1.2218  0.5693  0.3591  0.2286  0.2247  0.2247  0.0899  0.1465

 Free energy of the ion-electron system (eV)
  ---------------------------------------------------
  alpha Z        PSCENC =      2539.23836485
  Ewald energy   TEWEN  =    178651.94837608
  -Hartree energ DENC   =   -241859.65907465
  -exchange      EXHF   =         0.00000000
  -V(xc)+E(xc)   XCENC  =       253.59291547
  PAW double counting   =     71857.97652857   -69826.53705895
  entropy T*S    EENTRO =        -0.25948304
  eigenvalues    EBANDS =      -427.64154871
  atomic energy  EATOM  =     58341.73154849
  Solvation  Ediel_sol  =         0.00000000
  ---------------------------------------------------
  free energy    TOTEN  =      -469.60943187 eV

  energy without entropy =     -469.34994883  energy(sigma->0) =     -469.52293752


--------------------------------------------------------------------------------------------------------




--------------------------------------- Iteration      1(  16)  ---------------------------------------


    POTLOK:  cpu time    0.1977: real time    0.1982
    SETDIJ:  cpu time    0.0163: real time    0.0163
    EDDIAG:  cpu time    5.3646: real time    5.3804
  RMM-DIIS:  cpu time   19.0813: real time   19.1372
    ORTHCH:  cpu time    0.4889: real time    0.4901
       DOS:  cpu time    0.0011: real time    0.0011
    CHARGE:  cpu time    2.4841: real time    2.4915
    MIXING:  cpu time    0.0086: real time    0.0086
    --------------------------------------------
      LOOP:  cpu time   27.6426: real time   27.7234

 eigenvalue-minimisations  :  3863
 total energy-change (2. order) : 0.2638969E+00  (-0.1914704E-01)
 number of electron     800.9999994 magnetization 
 augmentation part      248.1540262 magnetization 

 Broyden mixing:
  rms(total) = 0.46281E+00    rms(broyden)= 0.46281E+00
  rms(prec ) = 0.54628E+00
  weight for this iteration     100.00

 eigenvalues of (default mixing * dielectric matrix)
  average eigenvalue GAMMA=   0.6084
  1.9067  1.3032  1.3032  0.4448  0.4448  0.3035  0.3035  0.0899  0.2437  0.2046
  0.1446

 Free energy of the ion-electron system (eV)
  ---------------------------------------------------
  alpha Z        PSCENC =      2539.23836485
  Ewald energy   TEWEN  =    178651.94837608
  -Hartree energ DENC   =   -241866.49621528
  -exchange      EXHF   =         0.00000000
  -V(xc)+E(xc)   XCENC  =       253.67275380
  PAW double counting   =     71876.22304014   -69844.69910270
  entropy T*S    EENTRO =        -0.28650261
  eigenvalues    EBANDS =      -420.67779771
  atomic energy  EATOM  =     58341.73154849
  Solvation  Ediel_sol  =         0.00000000
  ---------------------------------------------------
  free energy    TOTEN  =      -469.34553495 eV

  energy without entropy =     -469.05903233  energy(sigma->0) =     -469.25003408


--------------------------------------------------------------------------------------------------------




--------------------------------------- Iteration      1(  17)  ---------------------------------------


    POTLOK:  cpu time    0.1982: real time    0.1986
    SETDIJ:  cpu time    0.0164: real time    0.0164
    EDDIAG:  cpu time    5.3579: real time    5.3733
  RMM-DIIS:  cpu time   19.0988: real time   19.1543
    ORTHCH:  cpu time    0.4895: real time    0.4911
       DOS:  cpu time    0.0011: real time    0.0011
    CHARGE:  cpu time    2.4892: real time    2.4962
    MIXING:  cpu time    0.0100: real time    0.0101
    --------------------------------------------
      LOOP:  cpu time   27.6612: real time   27.7412

 eigenvalue-minimisations  :  3864
 total energy-change (2. order) : 0.4065755E-01  (-0.6317118E-02)
 number of electron     800.9999994 magnetization 
 augmentation part      248.1794276 magnetization 

 Broyden mixing:
  rms(total) = 0.36413E+00    rms(broyden)= 0.36413E+00
  rms(prec ) = 0.40845E+00
  weight for this iteration     100.00

 eigenvalues of (default mixing * dielectric matrix)
  average eigenvalue GAMMA=   0.6552
  1.7812  1.6255  1.6255  0.6660  0.6660  0.3427  0.0899  0.2534  0.2534  0.2083
  0.2083  0.1418

 Free energy of the ion-electron system (eV)
  ---------------------------------------------------
  alpha Z        PSCENC =      2539.23836485
  Ewald energy   TEWEN  =    178651.94837608
  -Hartree energ DENC   =   -241866.22429777
  -exchange      EXHF   =         0.00000000
  -V(xc)+E(xc)   XCENC  =       253.72903389
  PAW double counting   =     71873.41943581   -69841.68336606
  entropy T*S    EENTRO =        -0.27810671
  eigenvalues    EBANDS =      -421.18586600
  atomic energy  EATOM  =     58341.73154849
  Solvation  Ediel_sol  =         0.00000000
  ---------------------------------------------------
  free energy    TOTEN  =      -469.30487740 eV

  energy without entropy =     -469.02677069  energy(sigma->0) =     -469.21217516


--------------------------------------------------------------------------------------------------------




--------------------------------------- Iteration      1(  18)  ---------------------------------------


    POTLOK:  cpu time    0.2013: real time    0.2022
    SETDIJ:  cpu time    0.0166: real time    0.0166
    EDDIAG:  cpu time    5.3562: real time    5.3714
  RMM-DIIS:  cpu time   19.0708: real time   19.1264
    ORTHCH:  cpu time    0.4860: real time    0.4877
       DOS:  cpu time    0.0012: real time    0.0012
    CHARGE:  cpu time    2.4861: real time    2.4930
    MIXING:  cpu time    0.0090: real time    0.0090
    --------------------------------------------
      LOOP:  cpu time   27.6271: real time   27.7075

 eigenvalue-minimisations  :  3868
 total energy-change (2. order) : 0.2861345E-02  (-0.5833186E-02)
 number of electron     800.9999994 magnetization 
 augmentation part      248.2132290 magnetization 

 Broyden mixing:
  rms(total) = 0.34578E+00    rms(broyden)= 0.34578E+00
  rms(prec ) = 0.44867E+00
  weight for this iteration     100.00

 eigenvalues of (default mixing * dielectric matrix)
  average eigenvalue GAMMA=   0.6754
  1.8950  1.8950  1.6404  0.7380  0.7380  0.3724  0.3724  0.0899  0.2397  0.2397
  0.2340  0.1820  0.1432

 Free energy of the ion-electron system (eV)
  ---------------------------------------------------
  alpha Z        PSCENC =      2539.23836485
  Ewald energy   TEWEN  =    178651.94837608
  -Hartree energ DENC   =   -241868.63524763
  -exchange      EXHF   =         0.00000000
  -V(xc)+E(xc)   XCENC  =       253.85440465
  PAW double counting   =     71863.79134923   -69831.50532515
  entropy T*S    EENTRO =        -0.25149596
  eigenvalues    EBANDS =      -419.47399062
  atomic energy  EATOM  =     58341.73154849
  Solvation  Ediel_sol  =         0.00000000
  ---------------------------------------------------
  free energy    TOTEN  =      -469.30201605 eV

  energy without entropy =     -469.05052009  energy(sigma->0) =     -469.21818407


--------------------------------------------------------------------------------------------------------




--------------------------------------- Iteration      1(  19)  ---------------------------------------


    POTLOK:  cpu time    0.2011: real time    0.2016
    SETDIJ:  cpu time    0.0161: real time    0.0161
    EDDIAG:  cpu time    5.3571: real time    5.3728
  RMM-DIIS:  cpu time   19.0918: real time   19.1474
    ORTHCH:  cpu time    0.4865: real time    0.4876
       DOS:  cpu time    0.0011: real time    0.0011
    CHARGE:  cpu time    2.4888: real time    2.4962
    MIXING:  cpu time    0.0101: real time    0.0101
    --------------------------------------------
      LOOP:  cpu time   27.6526: real time   27.7329

 eigenvalue-minimisations  :  3860
 total energy-change (2. order) : 0.2121604E-01  (-0.5723782E-02)
 number of electron     800.9999994 magnetization 
 augmentation part      248.1532193 magnetization 

 Broyden mixing:
  rms(total) = 0.25337E+00    rms(broyden)= 0.25337E+00
  rms(prec ) = 0.31564E+00
  weight for this iteration     100.00

 eigenvalues of (default mixing * dielectric matrix)
  average eigenvalue GAMMA=   0.6758
  1.9792  1.9792  1.5792  0.8561  0.8561  0.4773  0.3963  0.0899  0.2483  0.2483
  0.2188  0.2188  0.1426  0.1714

 Free energy of the ion-electron system (eV)
  ---------------------------------------------------
  alpha Z        PSCENC =      2539.23836485
  Ewald energy   TEWEN  =    178651.94837608
  -Hartree energ DENC   =   -241878.81383255
  -exchange      EXHF   =         0.00000000
  -V(xc)+E(xc)   XCENC  =       253.92916717
  PAW double counting   =     71891.23500075   -69858.85669015
  entropy T*S    EENTRO =        -0.27875988
  eigenvalues    EBANDS =      -409.41397480
  atomic energy  EATOM  =     58341.73154849
  Solvation  Ediel_sol  =         0.00000000
  ---------------------------------------------------
  free energy    TOTEN  =      -469.28080001 eV

  energy without entropy =     -469.00204014  energy(sigma->0) =     -469.18788005


--------------------------------------------------------------------------------------------------------




--------------------------------------- Iteration      1(  20)  ---------------------------------------


    POTLOK:  cpu time    0.2008: real time    0.2013
    SETDIJ:  cpu time    0.0167: real time    0.0167
    EDDIAG:  cpu time    5.3533: real time    5.3688
  RMM-DIIS:  cpu time   19.0237: real time   19.0791
    ORTHCH:  cpu time    0.4859: real time    0.4875
       DOS:  cpu time    0.0011: real time    0.0011
    CHARGE:  cpu time    2.4886: real time    2.4957
    MIXING:  cpu time    0.0094: real time    0.0094
    --------------------------------------------
      LOOP:  cpu time   27.5795: real time   27.6595

 eigenvalue-minimisations  :  3860
 total energy-change (2. order) : 0.1421282E-01  (-0.3348879E-02)
 number of electron     800.9999994 magnetization 
 augmentation part      248.1061097 magnetization 

 Broyden mixing:
  rms(total) = 0.22262E+00    rms(broyden)= 0.22262E+00
  rms(prec ) = 0.29230E+00
  weight for this iteration     100.00

 eigenvalues of (default mixing * dielectric matrix)
  average eigenvalue GAMMA=   0.6536
  2.0273  2.0273  1.4880  0.9078  0.9078  0.4532  0.4532  0.0899  0.2518  0.2518
  0.2320  0.2320  0.1904  0.1438  0.1470

 Free energy of the ion-electron system (eV)
  ---------------------------------------------------
  alpha Z        PSCENC =      2539.23836485
  Ewald energy   TEWEN  =    178651.94837608
  -Hartree energ DENC   =   -241885.20899249
  -exchange      EXHF   =         0.00000000
  -V(xc)+E(xc)   XCENC  =       253.97740601
  PAW double counting   =     71930.64450312   -69898.39164608
  entropy T*S    EENTRO =        -0.28451096
  eigenvalues    EBANDS =      -402.92163622
  atomic energy  EATOM  =     58341.73154849
  Solvation  Ediel_sol  =         0.00000000
[...]
   -.198E+00 -.836E+00 0.260E+04   0.220E+00 0.779E+00 -.260E+04   -.357E-01 0.613E-01 -.156E+01   0.113E-02 0.927E-02 -.158E-01
   -.315E+00 0.722E+00 0.260E+04   0.285E+00 -.707E+00 -.260E+04   -.470E-02 -.225E-01 -.145E+01   0.532E-01 0.356E-02 -.784E-02
   -.831E-01 0.100E+00 0.260E+04   0.820E-01 -.656E-01 -.260E+04   -.202E-01 0.187E-01 -.145E+01   0.324E-01 -.650E-01 -.637E-02
   -.657E+00 -.371E+00 0.133E+04   0.685E+00 0.315E+00 -.133E+04   0.379E-02 0.276E-01 -.751E+00   -.196E-01 0.478E-01 -.106E+00
   -.490E+00 0.372E+00 0.133E+04   0.537E+00 -.384E+00 -.133E+04   0.117E-02 -.336E-01 -.751E+00   -.295E-01 0.350E-01 -.126E+00
   0.115E+00 0.178E+00 -.131E+04   -.125E+00 -.150E+00 0.131E+04   0.766E-02 0.277E-01 0.747E+00   0.349E-02 -.274E-01 -.124E+00
   -.367E+00 0.178E-01 0.260E+04   0.336E+00 0.645E-02 -.260E+04   0.206E-02 0.357E-01 -.139E+01   0.251E-01 -.489E-01 0.503E-02
   0.166E+01 0.507E+00 0.133E+04   -.164E+01 -.541E+00 -.133E+04   -.750E-01 -.573E-02 -.763E+00   0.232E-01 0.173E-01 -.120E+00
   -.791E-01 0.164E+01 0.497E+01   0.600E-01 -.157E+01 -.473E+01   0.695E-02 -.646E-01 -.104E+00   0.117E-01 -.298E-01 -.156E+00
   0.178E+00 0.617E-01 -.131E+04   -.182E+00 -.599E-01 0.131E+04   0.340E-01 -.209E-01 0.735E+00   -.593E-02 0.277E-02 -.128E+00
   0.225E+01 0.130E+01 -.134E+04   -.233E+01 -.134E+01 0.134E+04   0.125E+00 0.560E-01 0.640E+00   -.227E-01 -.916E-02 -.133E+00
   -.221E+00 -.213E+00 -.132E+04   0.369E+00 0.318E+00 0.132E+04   -.170E+00 -.100E+00 0.589E+00   0.225E-01 -.503E-02 -.140E+00
   0.800E+00 -.123E+01 0.260E+04   -.727E+00 0.116E+01 -.260E+04   -.543E-01 0.315E-01 -.138E+01   -.222E-01 0.347E-01 0.993E-02
   -.689E-01 0.517E-02 0.260E+04   0.885E-01 -.167E-01 -.260E+04   0.236E-01 0.356E-01 -.145E+01   -.325E-01 -.117E-01 0.151E-02
   0.154E+00 0.422E+00 0.260E+04   -.123E+00 -.396E+00 -.260E+04   -.234E-01 -.109E-01 -.144E+01   -.142E-01 -.171E-01 0.138E-01
   0.523E-01 -.451E+00 0.133E+04   -.409E-01 0.401E+00 -.133E+04   0.286E-01 0.402E-02 -.778E+00   -.373E-01 0.461E-01 -.105E+00
   0.194E+00 -.318E-01 0.785E+01   -.193E+00 0.247E-01 -.773E+01   0.261E-01 0.651E-02 -.622E-02   -.240E-01 0.422E-02 -.134E+00
   0.216E+00 0.288E+00 0.133E+04   -.242E+00 -.281E+00 -.133E+04   0.210E-01 0.278E-01 -.788E+00   0.116E-01 -.376E-01 -.110E+00
   0.395E+00 0.729E+00 0.133E+04   -.367E+00 -.717E+00 -.133E+04   -.107E-01 -.197E-01 -.721E+00   -.241E-01 -.110E-01 -.109E+00
   -.127E+00 0.381E+00 -.131E+04   0.125E+00 -.560E+00 0.131E+04   0.105E-01 0.185E+00 0.585E+00   -.717E-02 -.272E-02 -.130E+00
   0.662E+00 0.925E-01 0.260E+04   -.633E+00 -.147E+00 -.260E+04   -.350E-01 0.256E-01 -.143E+01   -.699E-03 0.256E-01 0.309E-02
   -.494E+00 0.105E+00 0.133E+04   0.520E+00 -.963E-01 -.133E+04   0.260E-01 0.112E-02 -.764E+00   -.421E-01 -.117E-01 -.108E+00
   0.199E+00 0.890E+00 0.723E+01   -.216E+00 -.874E+00 -.710E+01   0.143E-01 -.468E-02 0.425E-01   0.461E-02 -.393E-02 -.162E+00
   0.466E+01 0.284E+01 -.260E+04   -.453E+01 -.275E+01 0.260E+04   -.144E+00 -.110E+00 0.137E+01   0.425E-02 0.110E-01 0.900E-02
   0.233E+01 0.256E+01 -.260E+04   -.228E+01 -.256E+01 0.260E+04   -.444E-01 -.992E-02 0.137E+01   0.144E-01 -.318E-02 0.983E-02
   -.678E+00 -.340E+01 -.260E+04   0.735E+00 0.335E+01 0.260E+04   -.179E-01 0.351E-01 0.138E+01   -.100E-01 0.532E-03 0.348E-02
   -.228E+01 0.210E+01 -.260E+04   0.220E+01 -.212E+01 0.260E+04   0.652E-01 0.128E-01 0.137E+01   -.108E-01 -.118E-01 0.127E-01
   0.115E+01 -.321E+01 -.260E+04   -.121E+01 0.317E+01 0.260E+04   0.358E-01 0.244E-01 0.138E+01   -.611E-02 0.347E-02 0.356E-02
   -.299E+01 0.152E+01 -.260E+04   0.299E+01 -.141E+01 0.260E+04   0.245E-01 -.843E-01 0.137E+01   -.161E-01 -.957E-02 0.558E-02
   0.148E+00 0.222E+00 -.260E+04   -.144E+00 -.200E+00 0.260E+04   0.473E-03 -.101E-01 0.148E+01   -.495E-02 -.117E-01 -.416E-02
   -.530E+01 0.329E+01 -.260E+04   0.515E+01 -.320E+01 0.260E+04   0.167E+00 -.110E+00 0.137E+01   0.108E-01 0.157E-01 0.757E-02
   0.134E+00 -.605E+01 -.260E+04   -.146E+00 0.587E+01 0.260E+04   0.114E-02 0.191E+00 0.137E+01   0.111E-01 0.133E-01 0.160E-01
   0.379E+01 0.106E+01 -.260E+04   -.379E+01 -.963E+00 0.260E+04   -.238E-01 -.789E-01 0.137E+01   0.146E-01 0.138E-02 0.205E-02
   0.395E-01 -.390E+01 -.259E+04   -.428E-01 0.464E+01 0.259E+04   0.129E-01 -.793E+00 0.968E+00   -.107E-01 0.783E-02 0.138E-03
   -.405E+01 0.209E+01 -.259E+04   0.469E+01 -.244E+01 0.259E+04   -.652E+00 0.380E+00 0.980E+00   -.102E-01 -.160E-01 0.411E-02
   -.104E+02 0.565E+01 -.260E+04   0.978E+01 -.531E+01 0.259E+04   0.619E+00 -.351E+00 0.159E+01   0.255E-01 -.153E-03 0.310E-04
   -.111E+01 -.114E+02 -.260E+04   0.108E+01 0.107E+02 0.259E+04   0.339E-01 0.673E+00 0.158E+01   0.553E-02 0.203E-01 -.430E-02
   -.686E-01 -.268E+01 -.134E+04   0.742E-01 0.280E+01 0.134E+04   -.119E-02 -.140E+00 0.645E+00   -.504E-02 -.421E-02 -.136E+00
   0.617E+00 -.469E+00 0.260E+04   -.566E+00 0.409E+00 -.260E+04   -.272E-01 0.484E-01 -.145E+01   -.249E-01 0.135E-01 0.108E-01
   0.583E+00 -.876E+00 -.131E+04   -.570E+00 0.903E+00 0.131E+04   -.513E-01 -.614E-01 0.794E+00   0.830E-02 0.259E-01 -.126E+00
   -.140E-01 -.826E+00 0.260E+04   0.703E-01 0.762E+00 -.260E+04   -.293E-01 0.287E-01 -.144E+01   -.459E-01 0.569E-01 0.260E-02
   0.539E+00 -.734E+00 0.133E+04   -.520E+00 0.774E+00 -.132E+04   -.254E-01 0.268E-01 -.755E+00   0.613E-02 -.482E-01 -.128E+00
   -.274E+00 -.658E+00 0.132E+04   0.222E+00 0.699E+00 -.132E+04   0.335E-01 0.310E-01 -.769E+00   0.256E-01 -.533E-01 -.138E+00
   -.816E-01 -.336E-01 -.131E+04   0.692E-01 0.431E-01 0.131E+04   -.129E-01 -.200E-01 0.739E+00   0.282E-02 -.390E-02 -.118E+00
   0.194E+00 -.321E+00 0.260E+04   -.204E+00 0.286E+00 -.260E+04   -.535E-01 0.597E-02 -.138E+01   0.460E-01 0.197E-01 0.365E-02
   0.103E+01 0.246E+00 0.133E+04   -.106E+01 -.238E+00 -.133E+04   -.337E-01 -.319E-01 -.746E+00   0.377E-01 0.169E-01 -.123E+00
   0.362E+01 0.135E+01 -.259E+04   -.429E+01 -.173E+01 0.259E+04   0.703E+00 0.407E+00 0.102E+01   0.547E-02 -.404E-02 0.160E-02
   -.140E+00 0.131E+00 -.419E+01   0.152E+00 -.112E+00 0.437E+01   -.339E-02 0.189E-02 -.201E-03   -.123E-01 -.155E-01 -.161E+00
   0.101E+02 0.641E+01 -.260E+04   -.953E+01 -.605E+01 0.259E+04   -.601E+00 -.369E+00 0.160E+01   -.269E-01 -.643E-02 0.281E-02
   -.843E+00 0.394E+00 0.132E+04   0.855E+00 -.449E+00 -.132E+04   0.250E-01 0.691E-02 -.778E+00   -.238E-01 0.313E-01 -.132E+00
   0.298E+00 0.166E+00 0.133E+04   -.296E+00 -.169E+00 -.132E+04   -.241E-01 -.218E-02 -.726E+00   0.203E-01 -.912E-03 -.149E+00
   -.443E+00 0.602E-01 0.674E+01   0.407E+00 -.514E-01 -.662E+01   -.149E-03 -.481E-02 -.149E-01   0.323E-01 -.438E-02 -.131E+00
   0.440E+00 0.739E+00 -.131E+04   -.484E+00 -.734E+00 0.131E+04   0.878E-01 -.772E-02 0.786E+00   -.191E-01 -.850E-02 -.120E+00
   -.239E+01 0.149E+01 -.134E+04   0.247E+01 -.152E+01 0.134E+04   -.113E+00 0.414E-01 0.631E+00   0.949E-02 -.716E-02 -.134E+00
   -.475E-01 0.576E+00 0.260E+04   0.480E-01 -.538E+00 -.260E+04   -.143E-01 0.836E-02 -.144E+01   -.681E-02 -.507E-01 -.115E-01
   0.236E+00 -.230E+00 0.260E+04   -.230E+00 0.232E+00 -.260E+04   -.177E-01 0.373E-01 -.145E+01   0.694E-02 -.259E-01 0.636E-02
   -.104E+00 0.728E+00 0.133E+04   0.102E+00 -.714E+00 -.133E+04   0.301E-01 -.301E-01 -.731E+00   -.112E-01 -.838E-02 -.113E+00
   -.105E+01 -.967E-01 0.132E+04   0.105E+01 0.105E+00 -.132E+04   0.393E-01 0.723E-02 -.755E+00   -.778E-02 -.161E-01 -.119E+00
   -.207E+00 -.350E+00 0.515E+01   0.186E+00 0.363E+00 -.499E+01   -.185E-01 -.100E-01 0.117E-01   0.231E-01 -.803E-02 -.175E+00
   0.841E-01 -.225E+00 -.131E+04   -.243E+00 0.338E+00 0.131E+04   0.184E+00 -.949E-01 0.585E+00   -.240E-01 -.139E-01 -.129E+00
   0.446E-01 -.734E-01 0.260E+04   -.550E-01 0.826E-01 -.260E+04   -.785E-02 0.232E-01 -.144E+01   0.140E-01 -.180E-01 0.270E-02
   -.126E+01 -.675E+00 0.739E+01   0.122E+01 0.653E+00 -.718E+01   0.562E-01 0.203E-01 -.828E-01   0.154E-01 0.148E-01 -.141E+00
   -.936E-01 0.455E+00 0.287E+01   0.714E-01 -.444E+00 -.274E+01   0.574E-01 -.809E-02 0.467E-02   -.326E-01 0.531E-02 -.148E+00
   0.364E+00 -.281E+00 0.285E+01   -.354E+00 0.259E+00 -.271E+01   0.316E-01 0.549E-01 -.434E-02   -.299E-01 -.282E-01 -.147E+00
   0.113E+00 0.175E+00 0.245E+01   -.105E+00 -.150E+00 -.232E+01   -.411E-01 -.733E-02 0.106E-01   0.263E-01 -.529E-02 -.146E+00
   0.104E+01 -.624E+00 0.593E+01   -.100E+01 0.577E+00 -.570E+01   -.420E-01 0.334E-01 -.102E+00   -.154E-01 0.291E-01 -.156E+00
   -.630E+00 0.839E-01 0.133E+04   0.583E+00 -.514E-01 -.132E+04   0.385E-01 -.974E-02 -.785E+00   0.415E-01 -.347E-01 -.115E+00
   -.833E-01 -.490E+00 0.870E+01   0.853E-01 0.457E+00 -.860E+01   -.857E-03 -.129E-01 -.162E-02   -.395E-02 0.453E-01 -.130E+00
   -.752E+00 -.773E+00 -.131E+04   0.728E+00 0.809E+00 0.131E+04   0.578E-01 -.638E-01 0.782E+00   -.487E-02 0.179E-01 -.116E+00
   0.982E+00 0.138E+00 -.131E+04   -.100E+01 -.188E+00 0.131E+04   0.439E-01 0.707E-01 0.782E+00   -.198E-01 0.803E-02 -.123E+00
   0.353E+00 -.522E+00 0.260E+04   -.344E+00 0.464E+00 -.260E+04   -.400E-01 0.446E-01 -.144E+01   0.220E-01 0.418E-01 -.323E-02
   0.509E+00 0.193E+00 0.261E+04   -.428E+00 -.234E+00 -.260E+04   -.503E-01 0.719E-02 -.143E+01   -.535E-01 0.319E-01 -.691E-02
   -.323E+00 -.476E+00 0.161E+00   0.304E+00 0.468E+00 -.140E-02   -.224E-01 0.470E-01 -.238E-01   0.293E-01 -.339E-01 -.158E+00
   0.440E+00 -.126E+00 0.683E+01   -.443E+00 0.143E+00 -.669E+01   0.261E-01 -.135E-01 0.187E-01   -.738E-02 -.119E-01 -.162E+00
   -.401E+00 -.103E+01 0.133E+04   0.393E+00 0.101E+01 -.133E+04   -.154E-01 0.946E-03 -.779E+00   0.290E-01 0.279E-01 -.102E+00
   0.544E+00 0.632E-01 0.453E+01   -.506E+00 -.420E-01 -.441E+01   -.284E-01 -.454E-01 0.561E-02   -.892E-02 0.142E-01 -.145E+00
   -.803E+00 0.180E-01 0.183E+01   0.788E+00 -.494E-02 -.169E+01   0.212E-01 -.433E-01 -.131E-01   -.900E-02 0.193E-01 -.158E+00
   0.152E+00 0.101E+00 -.304E+03   -.172E+00 -.126E+00 0.305E+03   0.168E-01 0.142E-01 -.130E+01   -.463E-03 -.908E-03 0.532E-02
 -----------------------------------------------------------------------------------------------
   -.415E-01 -.495E-01 0.995E+01   0.661E-14 0.395E-12 0.142E-11   0.646E-01 0.499E-01 -.375E+01   -.838E-02 -.796E-02 -.623E+01
 
 
 POSITION                                       TOTAL-FORCE (eV/Angst)
 -----------------------------------------------------------------------------------
     13.68463      8.45210      7.18967        -0.000863     -0.010056      0.015323
      5.26993      8.45130      7.17754         0.000334      0.022155     -0.003525
      3.86894      6.02079      7.17927        -0.017977     -0.006500     -0.004949
     13.70654      8.42728      0.51102        -0.013455      0.012857      0.018936
      5.28962      8.43452      0.51547         0.017507     -0.003151      0.039510
      3.88365      6.00101      0.51887         0.010899     -0.011599      0.028633
      8.08602      1.96007      2.77646         0.011676      0.019815      0.002432
      9.48873      9.24927      2.77843         0.017873     -0.010382      0.002387
      2.46462      3.58952      7.18015         0.001162      0.025974     -0.033241
      2.48119      3.57320      0.52095        -0.003230      0.011253      0.034398
     10.89453      1.96338      2.77915        -0.034272     -0.020794     -0.005888
     13.68895      5.21133      4.98667        -0.001267     -0.030176     -0.021197
      3.86489      1.16464      7.18138         0.022633     -0.015554     -0.034382
      9.47119      6.02027      7.21638         0.016950      0.007243     -0.017469
      5.27777      3.59609      7.19033         0.004046      0.002185      0.009716
      3.89084      1.14281      0.51684        -0.003644     -0.003422      0.045161
      9.48961      6.00076      0.51053         0.009325      0.012374      0.062600
      5.28635      3.57440      0.51936        -0.007550     -0.000425      0.022338
     12.29176      9.24791      2.77616         0.001872      0.000842     -0.023170
     12.28313      7.63535      4.97909         0.002065      0.002333     -0.019061
     13.69100      6.81947      2.77931         0.007003     -0.003224     -0.028439
      9.48405      4.39339      2.77805        -0.006598     -0.018353      0.008411
      8.07395      8.44800      7.18809         0.001185     -0.001224     -0.000072
      8.09511      8.43357      0.51232        -0.007987     -0.002404      0.034742
     10.88220      6.81926      2.77533         0.009832     -0.002369     -0.008113
      2.46802      0.34697      4.97770         0.002079      0.007966      0.009535
     15.09769      9.27403      9.45011        -0.006913     -0.005947     -0.018834
      3.85768      4.40759      9.44425         0.027389     -0.019804     -0.007923
      6.66383      9.27382      9.44215         0.028057     -0.012518     -0.004050
     12.28841      4.40576      9.44299        -0.023501     -0.018450     -0.006106
      9.48068      9.27414      9.44417        -0.029414     -0.011295     -0.005629
     10.88073      1.97220      9.44311         0.007411      0.021060     -0.010141
      2.46147      1.97711      9.44235         0.000123      0.000171      0.011006
     12.26875      9.27386      9.45111         0.016650     -0.009434     -0.015974
     13.68422      6.82071      9.45080         0.000893      0.016501     -0.018592
      5.26584      1.97203      9.44533        -0.013500      0.024231     -0.011026
      8.07268      6.89717      9.48996        -0.001539     -0.018495     -0.009617
      9.52290      4.38003      9.48838        -0.005484      0.005235     -0.010217
      5.22055      6.86311      9.44315         0.012927     -0.005802      0.010662
      8.07060      1.92555      9.44165         0.004410      0.009543      0.010891
      8.07655      3.60036      7.21459        -0.000624     -0.014165     -0.011630
      8.09191      3.56907      0.51397        -0.001288      0.001490      0.060778
      6.67346      1.16414      7.17792        -0.027682     -0.008772     -0.006263
      6.69286      1.14109      0.51288        -0.019366      0.021596      0.050353
     12.29090      4.39183      2.78069        -0.000511      0.017925     -0.002799
      3.87581      4.39147      2.78538         0.007007      0.017683     -0.008782
      1.06199      1.16454      7.17899        -0.020977     -0.013956     -0.033343
      1.08491      1.14450      0.51699        -0.017575     -0.008879      0.044840
      6.68437      9.25083      2.77908        -0.023564     -0.007425      0.002542
      6.62460      4.37988      9.48845         0.010245      0.007219     -0.008843
      8.07895      5.20851      4.99406        -0.003998      0.005220      0.007577
     10.92460      6.86380      9.44232        -0.011605     -0.006306      0.018616
      5.28319      1.96157      2.78321         0.012583     -0.016105     -0.016424
      2.47851      1.96223      2.78227        -0.002725     -0.005312     -0.100440
     15.09000      7.63719      4.98052        -0.000761     -0.001130     -0.020088
     12.27973      6.02046      7.17893         0.022611     -0.010666     -0.004735
      6.67875      6.02228      7.21760        -0.014345      0.001529     -0.016308
     12.29829      6.00113      0.51194        -0.020757     -0.004974      0.054821
      6.68691      6.00129      0.51520        -0.006085      0.013876      0.058893
      8.07921      6.82164      2.77918         0.017210     -0.024101      0.000114
      6.68039      4.39150      2.78372         0.029800     -0.000737     -0.011480
      3.87637      2.77887      4.98156        -0.017522     -0.005712     -0.001707
     10.87389      3.59528      7.18767        -0.002385      0.005524      0.009681
     10.89752      3.57168      0.51302        -0.004155      0.014082      0.036820
     10.88103      0.34683      4.98283         0.024763      0.013243     -0.015507
      9.47618      7.63027      4.98542         0.001227      0.008430     -0.011466
     10.87496      5.20817      4.98605         0.009724      0.003141     -0.019788
      6.67737      7.63101      4.98596        -0.004151      0.011237     -0.007031
      5.27571      0.34479      4.98533        -0.023400      0.015313     -0.018540
      5.27521      6.82118      2.78175         0.033251     -0.011573     -0.018493
      8.07823      0.34626      4.97809        -0.002009      0.002507     -0.027349
      9.47606      1.16533      7.17743         0.027542     -0.009820     -0.003192
     10.87751      8.44993      7.17893         0.003067      0.027023     -0.012946
      9.50070      1.14041      0.51284        -0.009054      0.028610      0.056881
     10.90067      8.43177      0.50832        -0.023390     -0.001187      0.056982
      5.28219      5.20883      4.99050        -0.011254      0.003588     -0.022921
     12.28590      2.77994      4.97893         0.014924     -0.009023     -0.000158
     15.09880      9.24910      2.77752         0.005812      0.009177     -0.024757
      9.47810      2.78343      4.98386         0.001115     -0.008204     -0.021173
      6.68379      2.78308      4.98810        -0.004572     -0.008968     -0.023310
      8.07957      5.22675     10.32261        -0.004236     -0.011756     -0.038493
 -----------------------------------------------------------------------------------
    total drift:                                0.014714     -0.007604     -0.040366


--------------------------------------------------------------------------------------------------------



  FREE ENERGIE OF THE ION-ELECTRON SYSTEM (eV)
  ---------------------------------------------------
  free  energy   TOTEN  =      -516.66207793 eV

  energy  without entropy=     -516.39811094  energy(sigma->0) =     -516.57408893
 
 d Force = 0.2487932E-02[ 0.186E-02, 0.312E-02]  d Energy = 0.2539553E-02-0.516E-04
 d Force =-0.1627347E+03[-0.163E+03,-0.163E+03]  d Ewald  =-0.1627347E+03-0.246E-05


--------------------------------------------------------------------------------------------------------


    POTLOK:  cpu time    0.2226: real time    0.2231


--------------------------------------------------------------------------------------------------------


 Conjugate gradient step on ions:
 trial-energy change:   -0.002540  1 .order   -0.002488   -0.003121   -0.001855
  (g-gl).g = 0.371E-02      g.g   = 0.350E-02  gl.gl    = 0.373E-02
 g(Force)  = 0.350E-02   g(Stress)= 0.000E+00 ortho     = 0.139E-03
 gamma     =   0.99454
 trial     =   0.85724
 opt step  =   1.70292  (harmonic =   2.11413) maximal distance =0.00502295
 next E    =  -516.663043   (d E  =  -0.00350)


--------------------------------------------------------------------------------------------------------


  
 reached required accuracy - stopping structural energy minimisation
     LOOP+:  cpu time  307.5521: real time  308.4137
    4ORBIT:  cpu time    0.0000: real time    0.0000

 total amount of memory used by VASP MPI-rank0   174660. kBytes
=======================================================================

   base      :      30000. kBytes
   nonlr-proj:      37987. kBytes
   fftplans  :      20287. kBytes
   grid      :      30949. kBytes
   one-center:        326. kBytes
   wavefun   :      55111. kBytes
 
  
  
 General timing and accounting informations for this job:
 ========================================================
  
                  Total CPU time used (sec):     2974.864
                            User time (sec):     2969.405
                          System time (sec):        5.459
                         Elapsed time (sec):     2983.518
  
                   Maximum memory used (kb):      619816.
                   Average memory used (kb):           0.
  
                          Minor page faults:      1023809
                          Major page faults:            0
                 Voluntary context switches:         4350
