 vasp.5.4.4.18Apr17-6-g9f103f2a35 (build Nov 06 2019 15:09:28) complex          
  
 executed on             LinuxIFC date 2023.08.08  15:28:48
 running on  160 total cores
 each image running on   40 cores
 distrk:  each k-point on   40 cores,    1 groups
 distr:  one band on NCORES_PER_BAND=   1 cores,   40 groups


--------------------------------------------------------------------------------------------------------


 INCAR:
 POTCAR:    PAW_PBE Pt 04Feb2005                  
 POTCAR:    PAW_PBE H 15Jun2001                   

 ----------------------------------------------------------------------------- 
|                                                                             |
|           W    W    AA    RRRRR   N    N  II  N    N   GGGG   !!!           |
|           W    W   A  A   R    R  NN   N  II  NN   N  G    G  !!!           |
|           W    W  A    A  R    R  N N  N  II  N N  N  G       !!!           |
|           W WW W  AAAAAA  RRRRR   N  N N  II  N  N N  G  GGG   !            |
|           WW  WW  A    A  R   R   N   NN  II  N   NN  G    G                |
|           W    W  A    A  R    R  N    N  II  N    N   GGGG   !!!           |
|                                                                             |
|      For optimal performance we recommend to set                            |
|        NCORE= 4 - approx SQRT( number of cores)                             |
|      NCORE specifies how many cores store one orbital (NPAR=cpu/NCORE).     |
|      This setting can  greatly improve the performance of VASP for DFT.     |
|      The default,   NCORE=1            might be grossly inefficient         |
|      on modern multi-core architectures or massively parallel machines.     |
|      Do your own testing !!!!                                               |
|      Unfortunately you need to use the default for GW and RPA calculations. |
|      (for HF NCORE is supported but not extensively tested yet)             |
|                                                                             |
 ----------------------------------------------------------------------------- 

 POTCAR:    PAW_PBE Pt 04Feb2005                  
   VRHFIN =Pt: s1d9                                                             
   LEXCH  = PE                                                                  
   EATOM  =   729.1176 eV,   53.5886 Ry                                         
                                                                                
   TITEL  = PAW_PBE Pt 04Feb2005                                                
   LULTRA =        F    use ultrasoft PP ?                                      
   IUNSCR =        1    unscreen: 0-lin 1-nonlin 2-no                           
   RPACOR =    2.330    partial core radius                                     
   POMASS =  195.080; ZVAL   =   10.000    mass and valenz                      
   RCORE  =    2.600    outmost cutoff radius                                   
   RWIGS  =    2.750; RWIGS  =    1.455    wigner-seitz radius (au A)           
   ENMAX  =  230.283; ENMIN  =  172.712 eV                                      
   ICORE  =        3    local potential                                         
   LCOR   =        T    correct aug charges                                     
   LPAW   =        T    paw PP                                                  
   EAUG   =  358.966                                                            
   DEXC   =    0.000                                                            
   RMAX   =    2.658    core radius for proj-oper                               
   RAUG   =    1.300    factor for augmentation sphere                          
   RDEP   =    2.761    radius for radial grids                                 
   RDEPT  =    2.203    core radius for aug-charge                              
                                                                                
   Atomic configuration                                                         
   16 entries                                                                   
     n  l   j            E        occ.                                          
     1  0  0.50    -78401.1885   2.0000                                         
     2  0  0.50    -13770.7750   2.0000                                         
     2  1  1.50    -11931.0468   6.0000                                         
     3  0  0.50     -3234.7234   2.0000                                         
     3  1  1.50     -2699.2216   6.0000                                         
     3  2  2.50     -2119.5714  10.0000                                         
     4  0  0.50      -695.1528   2.0000                                         
     4  1  1.50      -519.6034   6.0000                                         
     4  2  2.50      -306.6786  10.0000                                         
     4  3  3.50       -70.1041  14.0000                                         
     5  0  0.50      -101.7747   2.0000                                         
     5  1  1.50       -55.9873   6.0000                                         
     5  2  2.50        -6.1423   9.0000                                         
     6  0  0.50        -5.6573   1.0000                                         
     6  1  1.50        -6.8029   0.0000                                         
     5  3  2.50        -1.3606   0.0000                                         
   Description                                                                  
     l       E           TYP  RCUT    TYP  RCUT                                 
     2     -6.1423404     23  2.500                                             
     2     -7.5029230     23  2.500                                             
     0     -5.6573207     23  2.500                                             
     0      0.7416693     23  2.500                                             
     1     -2.7211652     23  2.600                                             
     1     20.4087390     23  2.600                                             
     3     -1.3605826     23  2.500                                             
  local pseudopotential read in
  partial core-charges read in
  partial kinetic energy density read in
  atomic valenz-charges read in
  non local Contribution for L=           2  read in
    real space projection operators read in
  non local Contribution for L=           2  read in
    real space projection operators read in
  non local Contribution for L=           0  read in
    real space projection operators read in
  non local Contribution for L=           0  read in
    real space projection operators read in
  non local Contribution for L=           1  read in
    real space projection operators read in
  non local Contribution for L=           1  read in
    real space projection operators read in
    PAW grid and wavefunctions read in
 
   number of l-projection  operators is LMAX  =           6
   number of lm-projection operators is LMMAX =          18
 
 POTCAR:    PAW_PBE H 15Jun2001                   
   VRHFIN =H: ultrasoft test                                                    
   LEXCH  = PE                                                                  
   EATOM  =    12.4884 eV,    0.9179 Ry                                         
                                                                                
   TITEL  = PAW_PBE H 15Jun2001                                                 
   LULTRA =        F    use ultrasoft PP ?                                      
   IUNSCR =        0    unscreen: 0-lin 1-nonlin 2-no                           
   RPACOR =    0.000    partial core radius                                     
   POMASS =    1.000; ZVAL   =    1.000    mass and valenz                      
   RCORE  =    1.100    outmost cutoff radius                                   
   RWIGS  =    0.700; RWIGS  =    0.370    wigner-seitz radius (au A)           
   ENMAX  =  250.000; ENMIN  =  200.000 eV                                      
   RCLOC  =    0.701    cutoff for local pot                                    
   LCOR   =        T    correct aug charges                                     
   LPAW   =        T    paw PP                                                  
   EAUG   =  400.000                                                            
   RMAX   =    1.123    core radius for proj-oper                               
   RAUG   =    1.200    factor for augmentation sphere                          
   RDEP   =    1.112    radius for radial grids                                 
   RDEPT  =    0.926    core radius for aug-charge                              
                                                                                
   Atomic configuration                                                         
    2 entries                                                                   
     n  l   j            E        occ.                                          
     1  0  0.50        -6.4927   1.0000                                         
     2  1  0.50        -3.4015   0.0000                                         
   Description                                                                  
     l       E           TYP  RCUT    TYP  RCUT                                 
     0     -6.4927494     23  1.100                                             
     0      6.8029130     23  1.100                                             
     1     -4.0817478     23  1.100                                             
  local pseudopotential read in
  atomic valenz-charges read in
  non local Contribution for L=           0  read in
    real space projection operators read in
  non local Contribution for L=           0  read in
    real space projection operators read in
  non local Contribution for L=           1  read in
    real space projection operators read in
    PAW grid and wavefunctions read in
 
   number of l-projection  operators is LMAX  =           3
   number of lm-projection operators is LMMAX =           5
 
 Optimization of the real space projectors (new method)

 maximal supplied QI-value         = 14.36
 optimisation between [QCUT,QGAM] = [ 11.92, 23.98] = [ 39.79,161.09] Ry 
 Optimized for a Real-space Cutoff    1.49 Angstroem

   l    n(q)    QCUT    max X(q) W(low)/X(q) W(high)/X(q)  e(spline) 
   2     10    11.920    66.195    0.79E-04    0.18E-03    0.24E-06
   2     10    11.920    64.643    0.81E-04    0.19E-03    0.24E-06
   0     11    11.920    95.520    0.28E-04    0.54E-04    0.18E-06
   0     11    11.920    63.403    0.27E-04    0.52E-04    0.17E-06
   1     10    11.920    19.961    0.18E-04    0.11E-03    0.23E-06
   1     10    11.920    13.289    0.25E-04    0.87E-04    0.19E-06
 Optimization of the real space projectors (new method)

 maximal supplied QI-value         = 34.20
 optimisation between [QCUT,QGAM] = [ 11.97, 23.94] = [ 40.13,160.53] Ry 
 Optimized for a Real-space Cutoff    1.18 Angstroem

   l    n(q)    QCUT    max X(q) W(low)/X(q) W(high)/X(q)  e(spline) 
   0      8    11.971    19.460    0.15E-03    0.31E-03    0.25E-06
   0      8    11.971    12.209    0.13E-03    0.29E-03    0.25E-06
   1      8    11.971     4.655    0.22E-03    0.24E-03    0.21E-06
  PAW_PBE Pt 04Feb2005                  :
 energy of atom  1       EATOM= -729.1176
 kinetic energy error for atom=    0.0021 (will be added to EATOM!!)
  PAW_PBE H 15Jun2001                   :
 energy of atom  2       EATOM=  -12.4884
 kinetic energy error for atom=    0.0008 (will be added to EATOM!!)
 
 
 POSCAR: Pt   H                                  
  positions in direct lattice
  velocities in cartesian coordinates
 exchange correlation table for  LEXCH =        8
   RHO(1)=    0.500       N(1)  =     2000
   RHO(2)=  100.500       N(2)  =     4000

 VTST: version 3.2, (02/03/18)

 CHAIN: initializing optimizer
 
 OPT: Using VASP QUASI-newton optimizer
 CHAIN: Read ICHAIN            0
 CHAIN: Running the NEB
 NEB:          SPRING     -5.000000
 NEB:          LCLIMB      T
 NEB:     LTANGENTOLD      F
 NEB:           LDNEB      F
 NEB:        LDNEBORG      F
 NEB:        LNEBCELL      F
 NEB:          EFIRST      0.000000
 NEB:           ELAST      0.000000
 
 POSCAR: Pt   H                                  
  positions in direct lattice
  No initial velocities read in
 
 POSCAR: Pt   H                                  
  positions in direct lattice
  No initial velocities read in
 


--------------------------------------------------------------------------------------------------------


 ion  position               nearest neighbor table
   1  1.000  0.000  0.056-   5 2.64   9 2.64  13 2.64  29 2.64  57 2.64  37 2.64  42 2.86  54 2.87
                            14 2.88
   2  0.333  0.167  0.178-  26 2.64   6 2.64  14 2.64  42 2.64  30 2.64  38 2.64  11 2.83   7 2.84
                            15 2.86   9 2.88  21 2.88  13 2.88
   3  0.167  0.334  0.300-  39 2.63  43 2.64  31 2.64  15 2.64   7 2.64  27 2.64   6 2.85  12 2.85
                             8 2.86  10 2.87  14 2.87  48 2.89
   4  1.000  1.000  0.418-  60 2.64  12 2.64  32 2.64  40 2.64   8 2.64  16 2.64  27 2.86   7 2.86
                            63 2.88
   5  1.000  0.250  0.056-   1 2.64  45 2.64  33 2.64   9 2.64  29 2.64  25 2.64  18 2.87  14 2.88
                            10 2.88
   6  0.333  0.417  0.179-  34 2.63  10 2.64  62 2.64  14 2.64  26 2.64   2 2.64  15 2.84   3 2.85
                            43 2.85  45 2.90   9 2.90  49 2.90
   7  0.167  0.084  0.297-  15 2.64  11 2.64   3 2.64  27 2.64  35 2.64  63 2.64  14 2.83   2 2.84
                            42 2.86   4 2.86  16 2.87  12 2.89
   8  1.000  0.250  0.420-  28 2.64  32 2.64  12 2.64  36 2.64   4 2.64  48 2.64   3 2.86  27 2.89
                            31 2.89
   9  0.250  0.250  0.056-  21 2.64  13 2.64   1 2.64  49 2.64  45 2.64   5 2.64   2 2.88  14 2.88
                             6 2.90
  10  0.084  0.416  0.178-  14 2.63   6 2.64  34 2.64  46 2.64  18 2.64  22 2.64  31 2.83  39 2.83
                             3 2.87  45 2.88   5 2.88  33 2.89
  11  0.417  0.083  0.297-  35 2.64  19 2.64   7 2.64  23 2.64  15 2.64  47 2.64   2 2.83  30 2.84
                            38 2.85  20 2.87  16 2.87  24 2.88
  12  0.250  0.250  0.420-   4 2.64   8 2.64  16 2.64  48 2.64  24 2.64  52 2.64   3 2.85  15 2.87
                             7 2.89
  13  0.250  0.000  0.056-  21 2.64   9 2.64  17 2.64   1 2.64  37 2.64  41 2.64  42 2.86  38 2.86
                             2 2.88
  14  0.084  0.167  0.178-  10 2.63   6 2.64   2 2.64  18 2.64  42 2.64  54 2.64   7 2.83  27 2.84
                             3 2.87   9 2.88   5 2.88   1 2.88
  15  0.417  0.333  0.299-  55 2.64   7 2.64   3 2.64  43 2.64  19 2.64  11 2.64   6 2.84  24 2.85
                            26 2.86   2 2.86  52 2.87  12 2.87
  16  0.250  1.000  0.419-  44 2.64  40 2.64  20 2.64  24 2.64  12 2.64   4 2.64   7 2.87  11 2.87
                            35 2.89
  17  0.500  0.000  0.056-  29 2.64  25 2.64  13 2.64  21 2.64  41 2.64  53 2.64  38 2.86  30 2.87
                            58 2.87
  18  0.833  0.167  0.178-  54 2.64  22 2.64  14 2.64  10 2.64  30 2.64  58 2.64  31 2.84  23 2.84
                            27 2.84   5 2.87  29 2.87  25 2.87
  19  0.667  0.333  0.297-  59 2.64  11 2.64  55 2.64  23 2.64  15 2.64  31 2.64  26 2.83  30 2.84
                            22 2.85  28 2.87  64 2.87  24 2.88
  20  0.500  1.000  0.419-  56 2.64  24 2.64  32 2.64  16 2.64  44 2.64  28 2.64  47 2.87  23 2.87
                            11 2.87
  21  0.500  0.250  0.056-  25 2.64  61 2.64   9 2.64  13 2.64  49 2.64  17 2.64  30 2.87   2 2.88
                            26 2.88
  22  0.833  0.416  0.177-  18 2.64  30 2.64  46 2.64  50 2.64  26 2.64  10 2.64  59 2.83  19 2.85
                            31 2.85  25 2.86  33 2.86  61 2.86
  23  0.667  0.083  0.297-  27 2.64  51 2.64  31 2.64  47 2.64  11 2.64  19 2.64  58 2.84  18 2.84
                            30 2.84  28 2.87  20 2.87  32 2.88
  24  0.500  0.250  0.419-  28 2.64  20 2.64  16 2.64  64 2.64  52 2.64  12 2.64  15 2.85  19 2.88
                            11 2.88
  25  0.750  0.250  0.056-  17 2.64  21 2.64  29 2.64  61 2.64  33 2.64   5 2.64  22 2.86  30 2.87
                            18 2.87
  26  0.583  0.417  0.178-   2 2.64   6 2.64  62 2.64  50 2.64  30 2.64  22 2.64  19 2.83  55 2.84
                            15 2.86  49 2.88  21 2.88  61 2.88
  27  0.917  0.083  0.297-  31 2.64  23 2.64  63 2.64   3 2.64   7 2.64  51 2.64  14 2.84  18 2.84
                            54 2.85   4 2.86  32 2.88   8 2.89
  28  0.750  0.250  0.419-  24 2.64   8 2.64  32 2.64  64 2.64  36 2.64  20 2.64  31 2.87  23 2.87
                            19 2.87
  29  0.750  0.000  0.056-  17 2.64  25 2.64   5 2.64  53 2.64   1 2.64  57 2.64  54 2.86  18 2.87
                            58 2.87
  30  0.583  0.167  0.177-  22 2.64  38 2.64   2 2.64  26 2.64  18 2.64  58 2.64  11 2.84  19 2.84
                            23 2.84  17 2.87  25 2.87  21 2.87
  31  0.917  0.333  0.297-  27 2.64   3 2.64  23 2.64  59 2.64  39 2.64  19 2.64  10 2.83  18 2.84
                            22 2.85  36 2.86  28 2.87   8 2.89
  32  0.750  0.000  0.420-  56 2.64   8 2.64   4 2.64  60 2.64  20 2.64  28 2.64  51 2.88  27 2.88
                            23 2.88
  33  1.000  0.500  0.056-  37 2.64  41 2.64   5 2.64  45 2.64  25 2.64  61 2.64  46 2.85  22 2.86
                            10 2.89
  34  0.333  0.666  0.178-  62 2.63   6 2.63  10 2.64  58 2.64  46 2.64  38 2.64  47 2.83  39 2.83
                            43 2.87  45 2.88  53 2.88  41 2.89
  35  0.167  0.833  0.296-  11 2.64  47 2.64   7 2.64  39 2.64  59 2.64  63 2.64  38 2.83  42 2.83
                            46 2.83  40 2.86  44 2.88  16 2.89
  36  0.000  0.500  0.418-  48 2.64  64 2.64  44 2.64   8 2.64  40 2.64  28 2.64  39 2.85  31 2.86
                            59 2.88
  37  1.000  0.750  0.056-  33 2.64  41 2.64  61 2.64  57 2.64  13 2.64   1 2.64  46 2.86  42 2.86
                            50 2.86
  38  0.334  0.917  0.177-  58 2.64  30 2.64  46 2.64  42 2.64   2 2.64  34 2.64  35 2.83  11 2.85
                            47 2.85  17 2.86  41 2.86  13 2.86
  39  0.167  0.583  0.298-   3 2.63  43 2.63  31 2.64  47 2.64  35 2.64  59 2.64  34 2.83  10 2.83
                            44 2.85  36 2.85  46 2.86  48 2.92
  40  0.000  0.750  0.417-  16 2.64  64 2.64   4 2.64  44 2.64  36 2.64  60 2.64  63 2.86  59 2.86
                            35 2.86
  41  0.250  0.750  0.056-  45 2.64  33 2.64  37 2.64  53 2.64  17 2.64  13 2.64  46 2.85  38 2.86
                            34 2.89
  42  0.084  0.917  0.177-   2 2.64  14 2.64  54 2.64  38 2.64  50 2.65  46 2.65  35 2.83  63 2.83
                             7 2.86  13 2.86   1 2.86  37 2.86
  43  0.416  0.583  0.300-  39 2.63   3 2.64  47 2.64  51 2.64  15 2.64  55 2.64  52 2.85   6 2.85
                            56 2.86  34 2.87  62 2.87  48 2.89
  44  0.250  0.750  0.418-  48 2.64  16 2.64  36 2.64  56 2.64  40 2.64  20 2.64  39 2.85  47 2.86
                            35 2.88
  45  0.250  0.500  0.056-  41 2.64  53 2.64   5 2.64   9 2.64  49 2.64  33 2.64  10 2.88  34 2.88
                             6 2.90
  46  0.084  0.666  0.176-  10 2.64  34 2.64  22 2.64  38 2.64  50 2.65  42 2.65  35 2.83  59 2.84
                            33 2.85  41 2.85  37 2.86  39 2.86
  47  0.417  0.833  0.297-  51 2.63  43 2.64  23 2.64  35 2.64  39 2.64  11 2.64  34 2.83  58 2.84
                            38 2.85  44 2.86  20 2.87  56 2.89
  48  0.250  0.500  0.422-  36 2.64  44 2.64   8 2.64  56 2.64  52 2.64  12 2.64  43 2.89   3 2.89
                            39 2.92
  49  0.500  0.500  0.056-  61 2.64  53 2.64  57 2.64  21 2.64   9 2.64  45 2.64  26 2.88  62 2.88
                             6 2.90
  50  0.833  0.666  0.177-  26 2.64  62 2.64  54 2.64  22 2.64  42 2.65  46 2.65  59 2.83  63 2.83
                            55 2.86  61 2.86  57 2.86  37 2.86
  51  0.666  0.833  0.298-  47 2.63  23 2.64  63 2.64  43 2.64  55 2.64  27 2.64  62 2.84  58 2.84
                            54 2.85  60 2.86  32 2.88  56 2.89
  52  0.500  0.500  0.420-  60 2.64  56 2.64  64 2.64  48 2.64  24 2.64  12 2.64  43 2.85  15 2.87
                            55 2.89
  53  0.500  0.750  0.056-  49 2.64  57 2.64  45 2.64  41 2.64  29 2.64  17 2.64  58 2.87  62 2.88
                            34 2.88
  54  0.833  0.917  0.177-  58 2.64  18 2.64  50 2.64  42 2.64  62 2.64  14 2.64  63 2.83  27 2.85
                            51 2.85  29 2.86  57 2.86   1 2.87
  55  0.666  0.583  0.298-  15 2.64  19 2.64  43 2.64  51 2.64  63 2.64  59 2.64  62 2.83  26 2.84
                            50 2.86  60 2.86  64 2.87  52 2.89
  56  0.500  0.750  0.420-  20 2.64  32 2.64  44 2.64  52 2.64  60 2.64  48 2.64  43 2.86  51 2.89
                            47 2.89
  57  0.750  0.750  0.056-  61 2.64  49 2.64  53 2.64  37 2.64   1 2.64  29 2.64  50 2.86  54 2.86
                            62 2.88
  58  0.583  0.916  0.178-  54 2.64  38 2.64  62 2.64  34 2.64  30 2.64  18 2.64  47 2.84  23 2.84
                            51 2.84  53 2.87  29 2.87  17 2.87
  59  0.917  0.583  0.296-  19 2.64  31 2.64  55 2.64  39 2.64  35 2.64  63 2.64  22 2.83  50 2.83
                            46 2.84  40 2.86  36 2.88  64 2.89
  60  0.750  0.750  0.418-   4 2.64  52 2.64  32 2.64  40 2.64  56 2.64  64 2.64  51 2.86  55 2.86
                            63 2.88
  61  0.750  0.500  0.056-  49 2.64  57 2.64  21 2.64  25 2.64  37 2.64  33 2.64  50 2.86  22 2.86
                            26 2.88
  62  0.583  0.666  0.178-  34 2.63   6 2.64  26 2.64  58 2.64  50 2.64  54 2.64  55 2.83  51 2.84
                            43 2.87  49 2.88  53 2.88  57 2.88
  63  0.917  0.833  0.296-  51 2.64  27 2.64  55 2.64   7 2.64  59 2.64  35 2.64  54 2.83  50 2.83
                            42 2.83  40 2.86   4 2.88  60 2.88
  64  0.750  0.500  0.419-  36 2.64  40 2.64  28 2.64  24 2.64  52 2.64  60 2.64  55 2.87  19 2.87
                            59 2.89
  65  0.364  0.402  0.551-  66 0.76
  66  0.388  0.346  0.554-  65 0.76
 
  LATTYP: Found a hexagonal cell.
 ALAT       =    10.5600004196
 C/A-ratio  =     1.8939393187
  
  Lattice vectors:
  
 A1 = (  10.5600004196,   0.0000000000,   0.0000000000)
 A2 = (  -5.2800002098,   9.1452286274,   0.0000000000)
 A3 = (   0.0000000000,   0.0000000000,  20.0000000000)


Analysis of symmetry for initial positions (statically):
=====================================================================
 Subroutine PRICEL returns:
 Original cell was already a primitive cell.
 

 Routine SETGRP: Setting up the symmetry group for a 
 hexagonal supercell.


 Subroutine GETGRP returns: Found  1 space group operations
 (whereof  1 operations were pure point group operations)
 out of a pool of 24 trial point group operations.


The static configuration has the point symmetry C_1 .


Analysis of symmetry for dynamics (positions and initial velocities):
=====================================================================
 Subroutine PRICEL returns:
 Original cell was already a primitive cell.
 

 Routine SETGRP: Setting up the symmetry group for a 
 hexagonal supercell.


 Subroutine GETGRP returns: Found  1 space group operations
 (whereof  1 operations were pure point group operations)
 out of a pool of 24 trial point group operations.


The dynamic configuration has the point symmetry C_1 .


Analysis of constrained symmetry for selective dynamics:
=====================================================================
 Subroutine PRICEL returns:
 Original cell was already a primitive cell.
 

 Routine SETGRP: Setting up the symmetry group for a 
 hexagonal supercell.


 Subroutine GETGRP returns: Found  1 space group operations
 (whereof  1 operations were pure point group operations)
 out of a pool of 24 trial point group operations.


The constrained configuration has the point symmetry C_1 .


Analysis of structural, dynamic, and magnetic symmetry:
=====================================================================
 Subroutine PRICEL returns:
 Original cell was already a primitive cell.
 

 Routine SETGRP: Setting up the symmetry group for a 
 hexagonal supercell.


 Subroutine GETGRP returns: Found  1 space group operations
 (whereof  1 operations were pure point group operations)
 out of a pool of 24 trial point group operations.


The magnetic configuration has the point symmetry C_1 .


 Subroutine INISYM returns: Found  1 space group operations
 (whereof  1 operations are pure point group operations),
 and found     1 'primitive' translations

 
 
 KPOINTS: mesh auto                               

Automatic generation of k-mesh.
Space group operators:
 irot       det(A)        alpha          n_x          n_y          n_z        tau_x        tau_y        tau_z
    1     1.000000     0.000000     1.000000     0.000000     0.000000     0.000000     0.000000     0.000000
 
 Subroutine IBZKPT returns following result:
 ===========================================
 
 Found      4 irreducible k-points:
 
 Following reciprocal coordinates:
            Coordinates               Weight
  0.000000  0.000000  0.000000      1.000000
  0.500000 -0.000000  0.000000      1.000000
  0.000000  0.500000  0.000000      1.000000
  0.500000  0.500000  0.000000      1.000000
 
 Following cartesian coordinates:
            Coordinates               Weight
  0.000000  0.000000  0.000000      1.000000
  0.047348  0.027337  0.000000      1.000000
  0.000000  0.054673  0.000000      1.000000
  0.047348  0.082010  0.000000      1.000000
 


--------------------------------------------------------------------------------------------------------




 Dimension of arrays:
   k-points           NKPTS =      4   k-points in BZ     NKDIM =      4   number of bands    NBANDS=    440
   number of dos      NEDOS =    301   number of ions     NIONS =     66
   non local maximal  LDIM  =      6   non local SUM 2l+1 LMDIM =     18
   total plane-waves  NPLWV = ******
   max r-space proj   IRMAX =   8171   max aug-charges    IRDMAX=  35597
   dimension x,y,z NGX =    84 NGY =   84 NGZ =  160
   dimension x,y,z NGXF=   168 NGYF=  168 NGZF=  320
   support grid    NGXF=   168 NGYF=  168 NGZF=  320
   ions per type =              64   2
   NGX,Y,Z   is equivalent  to a cutoff of  13.22, 13.22, 13.30 a.u.
   NGXF,Y,Z  is equivalent  to a cutoff of  26.45, 26.45, 26.60 a.u.

 SYSTEM =  Pt111                                   
 POSCAR =  Pt   H                                  

 Startparameter for this run:
   NWRITE =      2    write-flag & timer
   PREC   = accura    normal or accurate (medium, high low for compatibility)
   ISTART =      0    job   : 0-new  1-cont  2-samecut
   ICHARG =      2    charge: 1-file 2-atom 10-const
   ISPIN  =      2    spin polarized calculation?
   LNONCOLLINEAR =      F non collinear calculations
   LSORBIT =      F    spin-orbit coupling
   INIWAV =      1    electr: 0-lowe 1-rand  2-diag
   LASPH  =      F    aspherical Exc in radial PAW
   METAGGA=      F    non-selfconsistent MetaGGA calc.

 Electronic Relaxation 1
   ENCUT  =  550.0 eV  40.42 Ry    6.36 a.u.  20.19 20.19 38.24*2*pi/ulx,y,z
   ENINI  =  550.0     initial cutoff
   ENAUG  =  400.0 eV  augmentation charge cutoff
   NELM   =    200;   NELMIN=  2; NELMDL= -5     # of ELM steps 
   EDIFF  = 0.1E-04   stopping-criterion for ELM
   LREAL  =      T    real-space projection
   NLSPLINE    = F    spline interpolate recip. space projectors
   LCOMPAT=      F    compatible to vasp.4.4
   GGA_COMPAT  = T    GGA compatible to vasp.4.4-vasp.4.6
   LMAXPAW     = -100 max onsite density
   LMAXMIX     =    2 max onsite mixed and CHGCAR
   VOSKOWN=      0    Vosko Wilk Nusair interpolation
   ROPT   =   -0.00025  -0.00025
 Ionic relaxation
   EDIFFG = -.5E-01   stopping-criterion for IOM
   NSW    =    300    number of steps for IOM
   NBLOCK =      1;   KBLOCK =    300    inner block; outer block 
   IBRION =      1    ionic relax: 0-MD 1-quasi-New 2-CG
   NFREE  =      0    steps in history (QN), initial steepest desc. (CG)
   ISIF   =      2    stress and relaxation
   IWAVPR =     11    prediction:  0-non 1-charg 2-wave 3-comb
   ISYM   =      2    0-nonsym 1-usesym 2-fastsym
   LCORR  =      T    Harris-Foulkes like correction to forces

   POTIM  = 0.5000    time-step for ionic-motion
   TEIN   =    0.0    initial temperature
   TEBEG  =    0.0;   TEEND  =   0.0 temperature during run
   SMASS  =  -3.00    Nose mass-parameter (am)
   estimated Nose-frequenzy (Omega)   =  0.10E-29 period in steps =****** mass=  -0.255E-26a.u.
   SCALEE = 1.0000    scale energy and forces
   NPACO  =    256;   APACO  = 16.0  distance and # of slots for P.C.
   PSTRESS=    0.0 pullay stress

  Mass of Ions in am
   POMASS = 195.08  1.00
  Ionic Valenz
   ZVAL   =  10.00  1.00
  Atomic Wigner-Seitz radii
   RWIGS  =  -1.00 -1.00
  virtual crystal weights 
   VCA    =   1.00  1.00
   NELECT =     642.0000    total number of electrons
   NUPDOWN=      -1.0000    fix difference up-down

 DOS related values:
   EMIN   =  10.00;   EMAX   =-10.00  energy-range for DOS
   EFERMI =   0.00
   ISMEAR =     1;   SIGMA  =   0.10  broadening in eV -4-tet -1-fermi 0-gaus

 Electronic relaxation 2 (details)
   IALGO  =     68    algorithm
   LDIAG  =      T    sub-space diagonalisation (order eigenvalues)
   LSUBROT=      F    optimize rotation matrix (better conditioning)
   TURBO    =      0    0=normal 1=particle mesh
   IRESTART =      0    0=no restart 2=restart with 2 vectors
   NREBOOT  =      0    no. of reboots
   NMIN     =      0    reboot dimension
   EREF     =   0.00    reference energy to select bands
   IMIX   =      4    mixing-type and parameters
     AMIX     =   0.40;   BMIX     =  1.00
     AMIX_MAG =   1.60;   BMIX_MAG =  1.00
     AMIN     =   0.10
     WC   =   100.;   INIMIX=   1;  MIXPRE=   1;  MAXMIX= -45

 Intra band minimization:
   WEIMIN = 0.0010     energy-eigenvalue tresh-hold
   EBREAK =  0.57E-08  absolut break condition
   DEPER  =   0.30     relativ break condition  

   TIME   =   0.40     timestep for ELM

  volume/ion in A,a.u.               =      29.26       197.49
  Fermi-wavevector in a.u.,A,eV,Ry     =   1.134028  2.143002 17.497349  1.286019
  Thomas-Fermi vector in A             =   2.270731
 
 Write flags
   LWAVE        =      F    write WAVECAR
   LDOWNSAMPLE  =      F    k-point downsampling of WAVECAR
   LCHARG       =      F    write CHGCAR
   LVTOT        =      F    write LOCPOT, total local potential
   LVHAR        =      F    write LOCPOT, Hartree potential only
   LELF         =      F    write electronic localiz. function (ELF)
   LORBIT       =      0    0 simple, 1 ext, 2 COOP (PROOUT), +10 PAW based schemes


 Dipole corrections
   LMONO  =      F    monopole corrections only (constant potential shift)
   LDIPOL =      F    correct potential (dipole corrections)
   IDIPOL =      0    1-x, 2-y, 3-z, 4-all directions 
   EPSILON=  1.0000000 bulk dielectric constant

 Exchange correlation treatment:
   GGA     =    --    GGA type
   LEXCH   =     8    internal setting for exchange type
   VOSKOWN=      0    Vosko Wilk Nusair interpolation
   LHFCALC =     F    Hartree Fock is set to
   LHFONE  =     F    Hartree Fock one center treatment
   AEXX    =    0.0000 exact exchange contribution

 Linear response parameters
   LEPSILON=     F    determine dielectric tensor
   LRPA    =     F    only Hartree local field effects (RPA)
   LNABLA  =     F    use nabla operator in PAW spheres
   LVEL    =     F    velocity operator in full k-point grid
   LINTERFAST=   F  fast interpolation
   KINTER  =     0    interpolate to denser k-point grid
   CSHIFT  =0.1000    complex shift for real part using Kramers Kronig
   OMEGAMAX=  -1.0    maximum frequency
   DEG_THRESHOLD= 0.2000000E-02 threshold for treating states as degnerate
   RTIME   =   -0.100 relaxation time in fs
  (WPLASMAI=    0.000 imaginary part of plasma frequency in eV, 0.658/RTIME)
   DFIELD  = 0.0000000 0.0000000 0.0000000 field for delta impulse in time
 
 Orbital magnetization related:
   ORBITALMAG=     F  switch on orbital magnetization
   LCHIMAG   =     F  perturbation theory with respect to B field
   DQ        =  0.001000  dq finite difference perturbation B field
   LLRAUG    =     F  two centre corrections for induced B field



--------------------------------------------------------------------------------------------------------


 quasi-Newton-method for relaxation of ions
   using selective dynamics as specified on POSCAR
 charge density and potential will be updated during run
 spin polarized calculation
 RMM-DIIS sequential band-by-band and
  variant of blocked Davidson during initial phase
 perform sub-space diagonalisation
    before iterative eigenvector-optimisation
 modified Broyden-mixing scheme, WC =      100.0
 initial mixing is a Kerker type mixing with AMIX =  0.4000 and BMIX =      1.0000
 Hartree-type preconditioning will be used
 using additional bands          119
 real space projection scheme for non local part
 use partial core corrections
 calculate Harris-corrections to forces 
   (improved forces if not selfconsistent)
 use gradient corrections 
 use of overlap-Matrix (Vanderbilt PP)
 Methfessel and Paxton  Order N= 1 SIGMA  =   0.10


--------------------------------------------------------------------------------------------------------


  energy-cutoff  :      550.00
  volume of cell :     1931.47
      direct lattice vectors                 reciprocal lattice vectors
    10.560000420  0.000000000  0.000000000     0.094696966  0.054673319  0.000000000
    -5.280000210  9.145228627  0.000000000     0.000000000  0.109346638  0.000000000
     0.000000000  0.000000000 20.000000000     0.000000000  0.000000000  0.050000000

  length of vectors
    10.560000420 10.560000420 20.000000000     0.109346638  0.109346638  0.050000000


 
 k-points in units of 2pi/SCALE and weight: mesh auto                               
   0.00000000  0.00000000  0.00000000       0.250
   0.04734848  0.02733666  0.00000000       0.250
   0.00000000  0.05467332  0.00000000       0.250
   0.04734848  0.08200998  0.00000000       0.250
 
 k-points in reciprocal lattice and weights: mesh auto                               
   0.00000000  0.00000000  0.00000000       0.250
   0.50000000 -0.00000000  0.00000000       0.250
   0.00000000  0.50000000  0.00000000       0.250
   0.50000000  0.50000000  0.00000000       0.250
 
 position of ions in fractional coordinates (direct lattice) 
   0.99999844  0.00000156  0.05579229
   0.33342015  0.16695367  0.17774357
   0.16679887  0.33354153  0.29965655
   0.99986157  0.99989665  0.41825197
   0.99999844  0.25000155  0.05579229
   0.33330898  0.41666975  0.17913238
   0.16690943  0.08358353  0.29744422
   0.99981563  0.24994475  0.42029062
   0.24999844  0.25000155  0.05579229
   0.08369439  0.41648956  0.17817024
   0.41678033  0.08330904  0.29707019
   0.24972595  0.24981706  0.42017057
   0.24999844  0.00000156  0.05579229
   0.08361205  0.16702168  0.17797675
   0.41668660  0.33332493  0.29882077
   0.24998200  0.99990491  0.41878565
   0.49999844  0.00000156  0.05579229
   0.83347328  0.16665224  0.17754282
   0.66669470  0.33324672  0.29712111
   0.49999162  0.99994946  0.41874434
   0.49999843  0.25000155  0.05579229
   0.83329527  0.41641823  0.17695127
   0.66677453  0.08322553  0.29735866
   0.50014646  0.24983845  0.41917104
   0.74999841  0.25000155  0.05579229
   0.58301971  0.41655940  0.17777981
   0.91670554  0.08348542  0.29748547
   0.75003270  0.24999638  0.41874395
   0.74999842  0.00000156  0.05579229
   0.58333749  0.16664262  0.17734790
   0.91677631  0.33306638  0.29738295
   0.74997451  0.00000246  0.41958848
   0.99999844  0.50000154  0.05579229
   0.33349015  0.66627719  0.17819727
   0.16697187  0.83336238  0.29587157
   0.00002791  0.50000820  0.41826400
   0.99999843  0.75000151  0.05579229
   0.33356387  0.91667036  0.17691683
   0.16695494  0.58302804  0.29764279
   0.00000154  0.74998433  0.41679637
   0.24999843  0.75000151  0.05579229
   0.08351668  0.91698620  0.17665565
   0.41647865  0.58324533  0.29972306
   0.24997729  0.74995944  0.41823733
   0.24999844  0.50000154  0.05579229
   0.08353505  0.66641765  0.17649400
   0.41692997  0.83321331  0.29742177
   0.24983727  0.50014521  0.42227197
   0.49999844  0.50000154  0.05579229
   0.83297127  0.66643849  0.17671054
   0.66646877  0.83324706  0.29759171
   0.50015712  0.50024785  0.42017328
   0.49999843  0.75000151  0.05579229
   0.83320508  0.91672244  0.17705350
   0.66642448  0.58309493  0.29753850
   0.50004097  0.75018943  0.42048605
   0.74999841  0.75000151  0.05579229
   0.58331527  0.91647258  0.17758007
   0.91660389  0.58300218  0.29595860
   0.75007247  0.75010372  0.41842172
   0.74999839  0.50000154  0.05579229
   0.58293741  0.66633948  0.17804622
   0.91653774  0.83341124  0.29598825
   0.75008397  0.50000458  0.41893395
   0.36388177  0.40236299  0.55144422
   0.38784870  0.34600289  0.55353474
 
 position of ions in cartesian coordinates  (Angst):
  10.55997578  0.00001422  1.11584590
   2.63940150  1.52682947  3.55487149
   0.00029678  3.05031350  5.99313109
   5.27908408  9.14428350  8.36503947
   9.23997574  2.28632132  1.11584590
   1.31972659  3.81054014  3.58264767
   1.32124258  0.76439045  5.94888444
   9.23834514  2.28580193  8.40581240
   1.31997542  2.28632132  1.11584590
  -1.31525219  3.80889227  3.56340472
   3.96132875  0.76188019  5.94140388
   1.31807201  2.28463409  8.40341139
   2.63997547  0.00001422  1.11584590
   0.00106874  1.52745149  3.55953490
   2.64025502  3.04833265  5.97641547
  -2.63968813  9.14435901  8.37571308
   5.27997557  0.00001422  1.11584590
   7.92155437  1.52407282  3.55085647
   5.28075351  3.04761745  5.94242210
   0.00017840  9.14476645  8.37488677
   3.95997540  2.28632132  1.11584590
   6.60090999  3.80823995  3.53902536
   6.60170853  0.76111647  5.94717324
   3.96239972  2.28482978  8.38342082
   6.59997527  2.28632132  1.11584590
   3.95725464  3.80953092  3.55559629
   9.23960785  0.76349322  5.94970941
   6.60036467  2.28627403  8.37487902
   7.91997543  0.00001422  1.11584590
   5.28017107  1.52398483  3.54695807
   7.92256762  3.04596818  5.94765909
   7.91971811  0.00002251  8.39176960
   7.91997567  4.57262842  1.11584590
   0.00371243  6.09325723  3.56394544
  -2.63693053  7.62128950  5.91743149
  -2.63974864  4.57268932  8.36528009
   6.59997574  6.85893527  1.11584590
  -1.31758511  8.38316003  3.53833668
  -1.31534396  5.33192472  5.95285573
  -3.95990118  6.85877818  8.33592745
  -1.32002457  6.85893527  1.11584590
  -3.95975118  8.38604846  3.53311310
   1.31847923  5.33391189  5.99446119
  -1.32002575  6.85855058  8.36474651
  -0.00002464  4.57262842  1.11584590
  -2.63655514  6.09454173  3.52987995
   0.00341417  7.61992622  5.94843535
  -0.00248511  4.57394227  8.44543931
   2.63997546  4.57262842  1.11584590
   5.27738153  6.09473238  3.53421072
   2.63836581  7.62023484  5.95183418
   2.64035069  4.57488095  8.40346552
   1.31997553  6.85893527  1.11584590
   3.95835132  8.38363626  3.54106991
   3.95870140  5.33253646  5.95076996
   1.31943253  6.86065389  8.40972096
   3.95997540  6.85893527  1.11584590
   1.32083414  8.38135124  3.55160130
   6.60108580  5.33168827  5.91917203
   3.96021782  6.85987002  8.36843439
   5.27997509  4.57262842  1.11584590
   2.63754666  6.09382689  3.56092436
   5.27822735  7.62173637  5.91976502
   5.28086280  4.57265616  8.37867896
   1.71811499  3.67970153 11.02888448
   2.26878708  3.16427549 11.07069478
 


--------------------------------------------------------------------------------------------------------


 k-point  1 :   0.0000 0.0000 0.0000  plane waves:   56579
 k-point  2 :   0.5000-0.0000 0.0000  plane waves:   56606
 k-point  3 :   0.0000 0.5000 0.0000  plane waves:   56606
 k-point  4 :   0.5000 0.5000 0.0000  plane waves:   56606

 maximum and minimum number of plane-waves per node :     56606    56579

 maximum number of plane-waves:     56606
 maximum index in each direction: 
   IXMAX=   20   IYMAX=   20   IZMAX=   38
   IXMIN=  -20   IYMIN=  -20   IZMIN=  -38


 serial   3D FFT for wavefunctions
 parallel 3D FFT for charge:
    minimum data exchange during FFTs selected (reduces bandwidth)


 total amount of memory used by VASP MPI-rank0   328548. kBytes
=======================================================================

   base      :      30000. kBytes
   nonlr-proj:      89570. kBytes
   fftplans  :      13334. kBytes
   grid      :     112154. kBytes
   one-center:       2052. kBytes
   wavefun   :      81438. kBytes
 
     INWAV:  cpu time    0.0001: real time    0.0000
 Broyden mixing: mesh for mixing (old mesh)
   NGX = 41   NGY = 41   NGZ = 77
  (NGX  =168   NGY  =168   NGZ  =320)
  gives a total of 129437 points

 initial charge density was supplied:
 charge density of overlapping atoms calculated
 number of electron     642.0000000 magnetization      66.0000000
 keeping initial charge density in first step


--------------------------------------------------------------------------------------------------------


 Maximum index for non-local projection operator         7914
 Maximum index for augmentation-charges         2178 (set IRDMAX)


--------------------------------------------------------------------------------------------------------


 First call to EWALD:  gamma=   0.142
 Maximum number of real-space cells 4x 4x 2
 Maximum number of reciprocal cells 2x 2x 4

    FEWALD:  cpu time    0.0038: real time    0.0038


--------------------------------------- Iteration      1(   1)  ---------------------------------------


    POTLOK:  cpu time    0.5730: real time    0.5911
    SETDIJ:  cpu time    0.0509: real time    0.0511
     EDDAV:  cpu time   49.0396: real time   49.1690
       DOS:  cpu time    0.0017: real time    0.0068
    --------------------------------------------
      LOOP:  cpu time   49.6652: real time   49.8181

 eigenvalue-minimisations  :  7040
 total energy-change (2. order) : 0.4380461E+04  (-0.3126484E+05)
 number of electron     642.0000000 magnetization      66.0000000
 augmentation part      642.0000000 magnetization      66.0000000

 Free energy of the ion-electron system (eV)
  ---------------------------------------------------
  alpha Z        PSCENC =      2023.78361127
  Ewald energy   TEWEN  =    125191.64015037
  -Hartree energ DENC   =   -176304.41818843
  -exchange      EXHF   =         0.00000000
  -V(xc)+E(xc)   XCENC  =       247.46336500
  PAW double counting   =     44550.55032729   -42740.70693553
  entropy T*S    EENTRO =         0.00632788
  eigenvalues    EBANDS =      4723.77231037
  atomic energy  EATOM  =     46688.37031544
  Solvation  Ediel_sol  =         0.00000000
  ---------------------------------------------------
  free energy    TOTEN  =      4380.46128367 eV

  energy without entropy =     4380.45495579  energy(sigma->0) =     4380.45917438


--------------------------------------------------------------------------------------------------------




--------------------------------------- Iteration      1(   2)  ---------------------------------------


     EDDAV:  cpu time   52.6618: real time   52.8118
       DOS:  cpu time    0.0011: real time    0.0050
    --------------------------------------------
      LOOP:  cpu time   52.6629: real time   52.8168

 eigenvalue-minimisations  :  7680
 total energy-change (2. order) :-0.4547496E+04  (-0.4165130E+04)
 number of electron     642.0000000 magnetization      66.0000000
 augmentation part      642.0000000 magnetization      66.0000000

 Free energy of the ion-electron system (eV)
  ---------------------------------------------------
  alpha Z        PSCENC =      2023.78361127
  Ewald energy   TEWEN  =    125191.64015037
  -Hartree energ DENC   =   -176304.41818843
  -exchange      EXHF   =         0.00000000
  -V(xc)+E(xc)   XCENC  =       247.46336500
  PAW double counting   =     44550.55032729   -42740.70693553
  entropy T*S    EENTRO =        -0.00851826
  eigenvalues    EBANDS =       176.29148998
  atomic energy  EATOM  =     46688.37031544
  Solvation  Ediel_sol  =         0.00000000
  ---------------------------------------------------
  free energy    TOTEN  =      -167.03438286 eV

  energy without entropy =     -167.02586461  energy(sigma->0) =     -167.03154345


--------------------------------------------------------------------------------------------------------




--------------------------------------- Iteration      1(   3)  ---------------------------------------


     EDDAV:  cpu time   55.5694: real time   55.7341
       DOS:  cpu time    0.0011: real time    0.0050
    --------------------------------------------
      LOOP:  cpu time   55.5705: real time   55.7391

 eigenvalue-minimisations  :  8240
 total energy-change (2. order) :-0.2155644E+03  (-0.2042271E+03)
 number of electron     642.0000000 magnetization      66.0000000
 augmentation part      642.0000000 magnetization      66.0000000

 Free energy of the ion-electron system (eV)
  ---------------------------------------------------
  alpha Z        PSCENC =      2023.78361127
  Ewald energy   TEWEN  =    125191.64015037
  -Hartree energ DENC   =   -176304.41818843
  -exchange      EXHF   =         0.00000000
  -V(xc)+E(xc)   XCENC  =       247.46336500
  PAW double counting   =     44550.55032729   -42740.70693553
  entropy T*S    EENTRO =         0.00691806
  eigenvalues    EBANDS =       -39.28837334
  atomic energy  EATOM  =     46688.37031544
  Solvation  Ediel_sol  =         0.00000000
  ---------------------------------------------------
  free energy    TOTEN  =      -382.59880987 eV

  energy without entropy =     -382.60572792  energy(sigma->0) =     -382.60111588


--------------------------------------------------------------------------------------------------------




--------------------------------------- Iteration      1(   4)  ---------------------------------------


     EDDAV:  cpu time   56.2938: real time   56.4478
       DOS:  cpu time    0.0012: real time    0.0042
    --------------------------------------------
      LOOP:  cpu time   56.2950: real time   56.4519

 eigenvalue-minimisations  :  8280
 total energy-change (2. order) :-0.4546297E+01  (-0.4526057E+01)
 number of electron     642.0000000 magnetization      66.0000000
 augmentation part      642.0000000 magnetization      66.0000000

 Free energy of the ion-electron system (eV)
  ---------------------------------------------------
  alpha Z        PSCENC =      2023.78361127
  Ewald energy   TEWEN  =    125191.64015037
  -Hartree energ DENC   =   -176304.41818843
  -exchange      EXHF   =         0.00000000
  -V(xc)+E(xc)   XCENC  =       247.46336500
  PAW double counting   =     44550.55032729   -42740.70693553
  entropy T*S    EENTRO =         0.00350644
  eigenvalues    EBANDS =       -43.83125890
  atomic energy  EATOM  =     46688.37031544
  Solvation  Ediel_sol  =         0.00000000
  ---------------------------------------------------
  free energy    TOTEN  =      -387.14510705 eV

  energy without entropy =     -387.14861349  energy(sigma->0) =     -387.14627586


--------------------------------------------------------------------------------------------------------




--------------------------------------- Iteration      1(   5)  ---------------------------------------


     EDDAV:  cpu time   55.4129: real time   55.5445
       DOS:  cpu time    0.0012: real time    0.0044
    CHARGE:  cpu time    2.9313: real time    2.9386
    MIXING:  cpu time    0.0107: real time    0.0116
    --------------------------------------------
      LOOP:  cpu time   58.3562: real time   58.4993

 eigenvalue-minimisations  :  8200
 total energy-change (2. order) :-0.1317783E+00  (-0.1317445E+00)
 number of electron     642.0000093 magnetization      59.6150337
 augmentation part      185.8880009 magnetization      47.8395828

 Broyden mixing:
  rms(total) = 0.10539E+02    rms(broyden)= 0.10539E+02
  rms(prec ) = 0.10641E+02
  weight for this iteration     100.00

 Free energy of the ion-electron system (eV)
  ---------------------------------------------------
  alpha Z        PSCENC =      2023.78361127
  Ewald energy   TEWEN  =    125191.64015037
  -Hartree energ DENC   =   -176304.41818843
  -exchange      EXHF   =         0.00000000
  -V(xc)+E(xc)   XCENC  =       247.46336500
  PAW double counting   =     44550.55032729   -42740.70693553
  entropy T*S    EENTRO =         0.00346589
  eigenvalues    EBANDS =       -43.96299666
  atomic energy  EATOM  =     46688.37031544
  Solvation  Ediel_sol  =         0.00000000
  ---------------------------------------------------
  free energy    TOTEN  =      -387.27688536 eV

  energy without entropy =     -387.28035125  energy(sigma->0) =     -387.27804065


--------------------------------------------------------------------------------------------------------




--------------------------------------- Iteration      1(   6)  ---------------------------------------


    POTLOK:  cpu time    0.4927: real time    0.4939
    SETDIJ:  cpu time    0.0441: real time    0.0442
    EDDIAG:  cpu time    7.5463: real time    7.5650
  RMM-DIIS:  cpu time   30.3984: real time   30.4892
    ORTHCH:  cpu time    1.1057: real time    1.1118
       DOS:  cpu time    0.0011: real time    0.0011
    CHARGE:  cpu time    2.9771: real time    2.9842
    MIXING:  cpu time    0.0116: real time    0.0121
    --------------------------------------------
      LOOP:  cpu time   42.5771: real time   42.7015

 eigenvalue-minimisations  :  7078
 total energy-change (2. order) : 0.2509229E+02  (-0.7193462E+01)
 number of electron     642.0000099 magnetization      51.5740212
 augmentation part      195.1188880 magnetization      38.4872774

 Broyden mixing:
  rms(total) = 0.67293E+01    rms(broyden)= 0.67293E+01
  rms(prec ) = 0.69871E+01
  weight for this iteration     100.00

 eigenvalues of (default mixing * dielectric matrix)
  average eigenvalue GAMMA=   1.2912
  1.2912

 Free energy of the ion-electron system (eV)
  ---------------------------------------------------
  alpha Z        PSCENC =      2023.78361127
  Ewald energy   TEWEN  =    125191.64015037
  -Hartree energ DENC   =   -175653.02839270
  -exchange      EXHF   =         0.00000000
  -V(xc)+E(xc)   XCENC  =       239.19519531
  PAW double counting   =     50883.44565845   -49180.69872654
  entropy T*S    EENTRO =        -0.03432471
  eigenvalues    EBANDS =      -554.85808713
  atomic energy  EATOM  =     46688.37031544
  Solvation  Ediel_sol  =         0.00000000
  ---------------------------------------------------
  free energy    TOTEN  =      -362.18460025 eV

  energy without entropy =     -362.15027554  energy(sigma->0) =     -362.17315868


--------------------------------------------------------------------------------------------------------




--------------------------------------- Iteration      1(   7)  ---------------------------------------


    POTLOK:  cpu time    0.4957: real time    0.4969
    SETDIJ:  cpu time    0.0442: real time    0.0443
    EDDIAG:  cpu time    7.5134: real time    7.5313
  RMM-DIIS:  cpu time   29.8867: real time   29.9648
    ORTHCH:  cpu time    1.1079: real time    1.1145
       DOS:  cpu time    0.0011: real time    0.0041
    CHARGE:  cpu time    2.8938: real time    2.9007
    MIXING:  cpu time    0.0100: real time    0.0101
    --------------------------------------------
      LOOP:  cpu time   41.9527: real time   42.0667

 eigenvalue-minimisations  :  7058
 total energy-change (2. order) :-0.1035088E+03  (-0.1061474E+02)
 number of electron     642.0000106 magnetization      45.8742059
 augmentation part      192.9116900 magnetization      33.7346193

 Broyden mixing:
  rms(total) = 0.92111E+01    rms(broyden)= 0.92111E+01
  rms(prec ) = 0.11373E+02
  weight for this iteration     100.00

 eigenvalues of (default mixing * dielectric matrix)
  average eigenvalue GAMMA=   1.0784
  1.8106  0.3462

 Free energy of the ion-electron system (eV)
  ---------------------------------------------------
  alpha Z        PSCENC =      2023.78361127
  Ewald energy   TEWEN  =    125191.64015037
  -Hartree energ DENC   =   -176184.97073750
  -exchange      EXHF   =         0.00000000
  -V(xc)+E(xc)   XCENC  =       232.55203349
  PAW double counting   =     56658.12898060   -55019.36192970
  entropy T*S    EENTRO =        -0.02364596
  eigenvalues    EBANDS =       -55.81222076
  atomic energy  EATOM  =     46688.37031544
  Solvation  Ediel_sol  =         0.00000000
  ---------------------------------------------------
  free energy    TOTEN  =      -465.69344273 eV

  energy without entropy =     -465.66979678  energy(sigma->0) =     -465.68556075


--------------------------------------------------------------------------------------------------------




--------------------------------------- Iteration      1(   8)  ---------------------------------------


    POTLOK:  cpu time    0.4971: real time    0.5027
    SETDIJ:  cpu time    0.0616: real time    0.0617
    EDDIAG:  cpu time    7.8178: real time    7.8401
  RMM-DIIS:  cpu time   29.9304: real time   30.0247
    ORTHCH:  cpu time    1.1169: real time    1.1236
       DOS:  cpu time    0.0011: real time    0.0061
    CHARGE:  cpu time    2.9748: real time    2.9835
    MIXING:  cpu time    0.0113: real time    0.0113
    --------------------------------------------
      LOOP:  cpu time   42.4108: real time   42.5537

 eigenvalue-minimisations  :  7085
 total energy-change (2. order) : 0.1117946E+03  (-0.4724289E+01)
 number of electron     642.0000101 magnetization      42.9471003
 augmentation part      198.6724175 magnetization      30.5576333

 Broyden mixing:
  rms(total) = 0.25055E+01    rms(broyden)= 0.25055E+01
  rms(prec ) = 0.29246E+01
  weight for this iteration     100.00

 eigenvalues of (default mixing * dielectric matrix)
  average eigenvalue GAMMA=   1.0157
  2.1294  0.5926  0.3250

 Free energy of the ion-electron system (eV)
  ---------------------------------------------------
  alpha Z        PSCENC =      2023.78361127
  Ewald energy   TEWEN  =    125191.64015037
  -Hartree energ DENC   =   -175633.03234103
  -exchange      EXHF   =         0.00000000
  -V(xc)+E(xc)   XCENC  =       234.46284601
  PAW double counting   =     60033.20853460   -58435.47180464
  entropy T*S    EENTRO =         0.01769923
  eigenvalues    EBANDS =      -456.87781148
  atomic energy  EATOM  =     46688.37031544
  Solvation  Ediel_sol  =         0.00000000
  ---------------------------------------------------
  free energy    TOTEN  =      -353.89880023 eV

  energy without entropy =     -353.91649946  energy(sigma->0) =     -353.90469997


--------------------------------------------------------------------------------------------------------




--------------------------------------- Iteration      1(   9)  ---------------------------------------


    POTLOK:  cpu time    0.4895: real time    0.4951
    SETDIJ:  cpu time    0.0438: real time    0.0439
    EDDIAG:  cpu time    7.5078: real time    7.5299
  RMM-DIIS:  cpu time   29.8459: real time   29.9398
    ORTHCH:  cpu time    1.1172: real time    1.1254
       DOS:  cpu time    0.0011: real time    0.0011
    CHARGE:  cpu time    3.0351: real time    3.0435
    MIXING:  cpu time    0.0107: real time    0.0107
    --------------------------------------------
      LOOP:  cpu time   42.0510: real time   42.1895

 eigenvalue-minimisations  :  7075
 total energy-change (2. order) :-0.2454205E+02  (-0.1416700E+01)
 number of electron     642.0000104 magnetization      41.0446121
 augmentation part      197.8458827 magnetization      33.8701753

 Broyden mixing:
  rms(total) = 0.49743E+01    rms(broyden)= 0.49743E+01
  rms(prec ) = 0.73384E+01
  weight for this iteration     100.00

 eigenvalues of (default mixing * dielectric matrix)
  average eigenvalue GAMMA=   0.8606
  2.2227  0.6990  0.3263  0.1945

 Free energy of the ion-electron system (eV)
  ---------------------------------------------------
  alpha Z        PSCENC =      2023.78361127
  Ewald energy   TEWEN  =    125191.64015037
  -Hartree energ DENC   =   -175643.14601457
  -exchange      EXHF   =         0.00000000
  -V(xc)+E(xc)   XCENC  =       232.90485977
  PAW double counting   =     60449.23554015   -58852.16788992
  entropy T*S    EENTRO =        -0.01701553
  eigenvalues    EBANDS =      -469.04440310
  atomic energy  EATOM  =     46688.37031544
  Solvation  Ediel_sol  =         0.00000000
  ---------------------------------------------------
  free energy    TOTEN  =      -378.44084612 eV

  energy without entropy =     -378.42383059  energy(sigma->0) =     -378.43517428


--------------------------------------------------------------------------------------------------------




--------------------------------------- Iteration      1(  10)  ---------------------------------------


    POTLOK:  cpu time    0.4917: real time    0.4977
    SETDIJ:  cpu time    0.0440: real time    0.0441
    EDDIAG:  cpu time    7.5445: real time    7.5665
  RMM-DIIS:  cpu time   30.0763: real time   30.1624
    ORTHCH:  cpu time    1.2732: real time    1.2805
       DOS:  cpu time    0.0012: real time    0.0012
    CHARGE:  cpu time    3.1811: real time    3.1902
    MIXING:  cpu time    0.0123: real time    0.0123
    --------------------------------------------
      LOOP:  cpu time   42.6243: real time   42.7547

 eigenvalue-minimisations  :  7091
 total energy-change (2. order) : 0.1665635E+02  (-0.5041718E+00)
 number of electron     642.0000100 magnetization      39.3230379
 augmentation part      197.6105894 magnetization      28.5554154

 Broyden mixing:
  rms(total) = 0.25976E+01    rms(broyden)= 0.25976E+01
  rms(prec ) = 0.35959E+01
  weight for this iteration     100.00

 eigenvalues of (default mixing * dielectric matrix)
  average eigenvalue GAMMA=   0.7659
  2.2557  0.7603  0.3817  0.3143  0.1176

 Free energy of the ion-electron system (eV)
  ---------------------------------------------------
  alpha Z        PSCENC =      2023.78361127
  Ewald energy   TEWEN  =    125191.64015037
  -Hartree energ DENC   =   -175675.48202955
  -exchange      EXHF   =         0.00000000
  -V(xc)+E(xc)   XCENC  =       232.73958738
  PAW double counting   =     60692.22045616   -59096.01759794
  entropy T*S    EENTRO =        -0.01019230
  eigenvalues    EBANDS =      -419.02879479
  atomic energy  EATOM  =     46688.37031544
  Solvation  Ediel_sol  =         0.00000000
  ---------------------------------------------------
  free energy    TOTEN  =      -361.78449397 eV

  energy without entropy =     -361.77430167  energy(sigma->0) =     -361.78109654


--------------------------------------------------------------------------------------------------------




--------------------------------------- Iteration      1(  11)  ---------------------------------------


    POTLOK:  cpu time    0.4914: real time    0.4937
    SETDIJ:  cpu time    0.0442: real time    0.0443
    EDDIAG:  cpu time    7.5460: real time    7.5679
  RMM-DIIS:  cpu time   29.9953: real time   30.0820
    ORTHCH:  cpu time    1.1036: real time    1.1106
       DOS:  cpu time    0.0011: real time    0.0011
    CHARGE:  cpu time    3.2002: real time    3.2091
    MIXING:  cpu time    0.0132: real time    0.0132
    --------------------------------------------
      LOOP:  cpu time   42.3950: real time   42.5219

 eigenvalue-minimisations  :  7084
 total energy-change (2. order) : 0.4417812E+01  (-0.2567398E+00)
 number of electron     642.0000099 magnetization      36.5329944
 augmentation part      197.5085498 magnetization      26.1921898

 Broyden mixing:
  rms(total) = 0.10823E+01    rms(broyden)= 0.10823E+01
  rms(prec ) = 0.11621E+01
  weight for this iteration     100.00

 eigenvalues of (default mixing * dielectric matrix)
  average eigenvalue GAMMA=   0.7583
  2.2095  0.8537  0.7631  0.3350  0.2760  0.1126

 Free energy of the ion-electron system (eV)
  ---------------------------------------------------
  alpha Z        PSCENC =      2023.78361127
  Ewald energy   TEWEN  =    125191.64015037
  -Hartree energ DENC   =   -175687.02933484
  -exchange      EXHF   =         0.00000000
  -V(xc)+E(xc)   XCENC  =       232.11008052
  PAW double counting   =     60838.01136811   -59242.88534710
  entropy T*S    EENTRO =         0.00771487
  eigenvalues    EBANDS =      -401.37524017
  atomic energy  EATOM  =     46688.37031544
  Solvation  Ediel_sol  =         0.00000000
  ---------------------------------------------------
  free energy    TOTEN  =      -357.36668155 eV

  energy without entropy =     -357.37439641  energy(sigma->0) =     -357.36925317


--------------------------------------------------------------------------------------------------------




--------------------------------------- Iteration      1(  12)  ---------------------------------------


    POTLOK:  cpu time    0.4903: real time    0.4915
    SETDIJ:  cpu time    0.0440: real time    0.0442
    EDDIAG:  cpu time    7.4907: real time    7.5128
  RMM-DIIS:  cpu time   30.0122: real time   30.1086
    ORTHCH:  cpu time    1.0984: real time    1.1057
       DOS:  cpu time    0.0010: real time    0.0011
    CHARGE:  cpu time    3.2339: real time    3.2432
    MIXING:  cpu time    0.0138: real time    0.0139
    --------------------------------------------
      LOOP:  cpu time   42.3845: real time   42.5208

 eigenvalue-minimisations  :  7082
 total energy-change (2. order) :-0.1977462E+01  (-0.6844643E-01)
 number of electron     642.0000099 magnetization      34.5725846
 augmentation part      197.3617906 magnetization      24.5679847

 Broyden mixing:
  rms(total) = 0.98528E+00    rms(broyden)= 0.98528E+00
  rms(prec ) = 0.10504E+01
  weight for this iteration     100.00

 eigenvalues of (default mixing * dielectric matrix)
  average eigenvalue GAMMA=   0.7316
  2.2325  0.8869  0.6416  0.6416  0.3029  0.3029  0.1127

 Free energy of the ion-electron system (eV)
  ---------------------------------------------------
  alpha Z        PSCENC =      2023.78361127
  Ewald energy   TEWEN  =    125191.64015037
  -Hartree energ DENC   =   -175687.53104187
  -exchange      EXHF   =         0.00000000
  -V(xc)+E(xc)   XCENC  =       231.18570357
  PAW double counting   =     60751.35122593   -59155.69524573
  entropy T*S    EENTRO =         0.03685930
  eigenvalues    EBANDS =      -402.48572190
  atomic energy  EATOM  =     46688.37031544
  Solvation  Ediel_sol  =         0.00000000
  ---------------------------------------------------
  free energy    TOTEN  =      -359.34414361 eV

  energy without entropy =     -359.38100292  energy(sigma->0) =     -359.35643005


--------------------------------------------------------------------------------------------------------




--------------------------------------- Iteration      1(  13)  ---------------------------------------


    POTLOK:  cpu time    0.4885: real time    0.4928
    SETDIJ:  cpu time    0.0440: real time    0.0441
    EDDIAG:  cpu time    7.5185: real time    7.5403
  RMM-DIIS:  cpu time   30.0341: real time   30.1271
    ORTHCH:  cpu time    1.1099: real time    1.1167
       DOS:  cpu time    0.0011: real time    0.0011
    CHARGE:  cpu time    3.2303: real time    3.2392
    MIXING:  cpu time    0.0135: real time    0.0135
    --------------------------------------------
      LOOP:  cpu time   42.4399: real time   42.5748

 eigenvalue-minimisations  :  7082
 total energy-change (2. order) :-0.1374054E+01  (-0.5182452E-01)
 number of electron     642.0000099 magnetization      28.7881760
 augmentation part      197.3035141 magnetization      18.8287564

 Broyden mixing:
  rms(total) = 0.86502E+00    rms(broyden)= 0.86502E+00
  rms(prec ) = 0.93667E+00
  weight for this iteration     100.00

 eigenvalues of (default mixing * dielectric matrix)
  average eigenvalue GAMMA=   0.7805
  2.2852  1.2521  0.9293  0.7728  0.1127  0.3193  0.3193  0.2532

 Free energy of the ion-electron system (eV)
  ---------------------------------------------------
  alpha Z        PSCENC =      2023.78361127
  Ewald energy   TEWEN  =    125191.64015037
  -Hartree energ DENC   =   -175693.06567634
  -exchange      EXHF   =         0.00000000
  -V(xc)+E(xc)   XCENC  =       230.29748274
  PAW double counting   =     60771.71965862   -59176.51259475
  entropy T*S    EENTRO =         0.03474329
  eigenvalues    EBANDS =      -396.98588816
  atomic energy  EATOM  =     46688.37031544
  Solvation  Ediel_sol  =         0.00000000
  ---------------------------------------------------
  free energy    TOTEN  =      -360.71819752 eV

  energy without entropy =     -360.75294081  energy(sigma->0) =     -360.72977862


--------------------------------------------------------------------------------------------------------




--------------------------------------- Iteration      1(  14)  ---------------------------------------


    POTLOK:  cpu time    0.4906: real time    0.4961
    SETDIJ:  cpu time    0.0444: real time    0.0445
    EDDIAG:  cpu time    7.5342: real time    7.5556
  RMM-DIIS:  cpu time   30.0406: real time   30.1353
    ORTHCH:  cpu time    1.1178: real time    1.1243
       DOS:  cpu time    0.0011: real time    0.0011
    CHARGE:  cpu time    3.1931: real time    3.2025
    MIXING:  cpu time    0.0143: real time    0.0144
    --------------------------------------------
      LOOP:  cpu time   42.4361: real time   42.5739

 eigenvalue-minimisations  :  7070
 total energy-change (2. order) :-0.4281642E+01  (-0.1589857E+00)
 number of electron     642.0000099 magnetization      25.4579291
 augmentation part      197.1773987 magnetization      15.3815869

 Broyden mixing:
  rms(total) = 0.70093E+00    rms(broyden)= 0.70093E+00
  rms(prec ) = 0.78453E+00
  weight for this iteration     100.00

 eigenvalues of (default mixing * dielectric matrix)
  average eigenvalue GAMMA=   0.8038
  2.0878  2.0878  0.9197  0.5930  0.5930  0.1127  0.2989  0.2989  0.2424

 Free energy of the ion-electron system (eV)
  ---------------------------------------------------
  alpha Z        PSCENC =      2023.78361127
  Ewald energy   TEWEN  =    125191.64015037
  -Hartree energ DENC   =   -175707.67212104
  -exchange      EXHF   =         0.00000000
  -V(xc)+E(xc)   XCENC  =       227.61501364
  PAW double counting   =     60800.98669837   -59206.75911899
  entropy T*S    EENTRO =        -0.00391509
  eigenvalues    EBANDS =      -382.96047310
  atomic energy  EATOM  =     46688.37031544
  Solvation  Ediel_sol  =         0.00000000
  ---------------------------------------------------
  free energy    TOTEN  =      -364.99983913 eV

  energy without entropy =     -364.99592405  energy(sigma->0) =     -364.99853410


--------------------------------------------------------------------------------------------------------




--------------------------------------- Iteration      1(  15)  ---------------------------------------


    POTLOK:  cpu time    0.4940: real time    0.4994
    SETDIJ:  cpu time    0.0439: real time    0.0440
    EDDIAG:  cpu time    7.8851: real time    7.9080
  RMM-DIIS:  cpu time   30.0374: real time   30.1314
    ORTHCH:  cpu time    1.1042: real time    1.1119
       DOS:  cpu time    0.0011: real time    0.0011
    CHARGE:  cpu time    2.8395: real time    2.8477
    MIXING:  cpu time    0.0148: real time    0.0149
    --------------------------------------------
      LOOP:  cpu time   42.4199: real time   42.5583

 eigenvalue-minimisations  :  7074
 total energy-change (2. order) :-0.2838835E+01  (-0.1285002E+00)
 number of electron     642.0000099 magnetization      22.8673756
 augmentation part      197.0888157 magnetization      13.1627964

 Broyden mixing:
  rms(total) = 0.50188E+00    rms(broyden)= 0.50188E+00
  rms(prec ) = 0.56580E+00
  weight for this iteration     100.00

 eigenvalues of (default mixing * dielectric matrix)
  average eigenvalue GAMMA=   0.8409
  2.3933  2.3933  0.8826  0.7261  0.7261  0.1127  0.3481  0.2996  0.2996  0.2281

 Free energy of the ion-electron system (eV)
  ---------------------------------------------------
  alpha Z        PSCENC =      2023.78361127
  Ewald energy   TEWEN  =    125191.64015037
  -Hartree energ DENC   =   -175711.22686921
  -exchange      EXHF   =         0.00000000
  -V(xc)+E(xc)   XCENC  =       225.78971924
  PAW double counting   =     60719.73154702   -59124.92020136
  entropy T*S    EENTRO =        -0.00407574
  eigenvalues    EBANDS =      -381.00287119
  atomic energy  EATOM  =     46688.37031544
  Solvation  Ediel_sol  =         0.00000000
  ---------------------------------------------------
  free energy    TOTEN  =      -367.83867416 eV

  energy without entropy =     -367.83459842  energy(sigma->0) =     -367.83731558


--------------------------------------------------------------------------------------------------------




--------------------------------------- Iteration      1(  16)  ---------------------------------------


    POTLOK:  cpu time    0.4906: real time    0.4921
    SETDIJ:  cpu time    0.0445: real time    0.0447
    EDDIAG:  cpu time    7.5407: real time    7.5625
  RMM-DIIS:  cpu time   30.0996: real time   30.1862
    ORTHCH:  cpu time    1.1036: real time    1.1115
       DOS:  cpu time    0.0010: real time    0.0010
    CHARGE:  cpu time    2.7907: real time    2.7991
    MIXING:  cpu time    0.0148: real time    0.0148
    --------------------------------------------
      LOOP:  cpu time   42.0856: real time   42.2119

 eigenvalue-minimisations  :  7071
 total energy-change (2. order) :-0.2467246E+01  (-0.1221591E+00)
 number of electron     642.0000099 magnetization      20.2860208
 augmentation part      197.0441326 magnetization      11.4458959

 Broyden mixing:
  rms(total) = 0.36051E+00    rms(broyden)= 0.36051E+00
  rms(prec ) = 0.39008E+00
  weight for this iteration     100.00

 eigenvalues of (default mixing * dielectric matrix)
  average eigenvalue GAMMA=   0.9281
  3.2709  2.4968  0.9600  0.9600  0.6479  0.6479  0.1127  0.3047  0.3047  0.2817
  0.2216

 Free energy of the ion-electron system (eV)
  ---------------------------------------------------
  alpha Z        PSCENC =      2023.78361127
  Ewald energy   TEWEN  =    125191.64015037
  -Hartree energ DENC   =   -175702.06527568
  -exchange      EXHF   =         0.00000000
  -V(xc)+E(xc)   XCENC  =       224.17386781
  PAW double counting   =     60584.02434128   -58987.91270205
  entropy T*S    EENTRO =         0.01781400
  eigenvalues    EBANDS =      -392.33804250
  atomic energy  EATOM  =     46688.37031544
  Solvation  Ediel_sol  =         0.00000000
  ---------------------------------------------------
  free energy    TOTEN  =      -370.30592005 eV

  energy without entropy =     -370.32373405  energy(sigma->0) =     -370.31185805


--------------------------------------------------------------------------------------------------------




--------------------------------------- Iteration      1(  17)  ---------------------------------------


    POTLOK:  cpu time    0.4878: real time    0.4893
    SETDIJ:  cpu time    0.0435: real time    0.0436
    EDDIAG:  cpu time    7.5503: real time    7.5722
  RMM-DIIS:  cpu time   30.3683: real time   30.4540
    ORTHCH:  cpu time    1.2738: real time    1.2806
       DOS:  cpu time    0.0012: real time    0.0012
    CHARGE:  cpu time    2.7931: real time    2.7998
    MIXING:  cpu time    0.0147: real time    0.0147
    --------------------------------------------
      LOOP:  cpu time   42.5327: real time   42.6554

 eigenvalue-minimisations  :  7066
 total energy-change (2. order) :-0.1481211E+01  (-0.7815862E-01)
 number of electron     642.0000099 magnetization      18.5640886
 augmentation part      197.0802326 magnetization      10.2366757

 Broyden mixing:
  rms(total) = 0.29206E+00    rms(broyden)= 0.29206E+00
  rms(prec ) = 0.31551E+00
  weight for this iteration     100.00

 eigenvalues of (default mixing * dielectric matrix)
  average eigenvalue GAMMA=   0.9747
  4.2189  2.3450  1.0977  1.0977  0.6544  0.6544  0.1127  0.3940  0.3134  0.3134
  0.2721  0.2230

 Free energy of the ion-electron system (eV)
  ---------------------------------------------------
  alpha Z        PSCENC =      2023.78361127
  Ewald energy   TEWEN  =    125191.64015037
  -Hartree energ DENC   =   -175688.87869002
  -exchange      EXHF   =         0.00000000
  -V(xc)+E(xc)   XCENC  =       223.00131207
  PAW double counting   =     60534.80821141   -58938.38403310
  entropy T*S    EENTRO =         0.01960024
  eigenvalues    EBANDS =      -406.14760848
  atomic energy  EATOM  =     46688.37031544
  Solvation  Ediel_sol  =         0.00000000
  ---------------------------------------------------
  free energy    TOTEN  =      -371.78713081 eV

  energy without entropy =     -371.80673105  energy(sigma->0) =     -371.79366422


--------------------------------------------------------------------------------------------------------




--------------------------------------- Iteration      1(  18)  ---------------------------------------


    POTLOK:  cpu time    0.4922: real time    0.4967
    SETDIJ:  cpu time    0.0440: real time    0.0441
    EDDIAG:  cpu time    7.5435: real time    7.5616
  RMM-DIIS:  cpu time   30.3035: real time   30.3833
    ORTHCH:  cpu time    1.1136: real time    1.1203
       DOS:  cpu time    0.0011: real time    0.0045
    CHARGE:  cpu time    2.7854: real time    2.7921
    MIXING:  cpu time    0.0149: real time    0.0149
    --------------------------------------------
      LOOP:  cpu time   42.2981: real time   42.4174

 eigenvalue-minimisations  :  7073
 total energy-change (2. order) :-0.5288468E+00  (-0.2419634E-01)
 number of electron     642.0000099 magnetization      17.2097822
 augmentation part      197.1377372 magnetization       9.0615386

 Broyden mixing:
  rms(total) = 0.20798E+00    rms(broyden)= 0.20798E+00
  rms(prec ) = 0.22635E+00
  weight for this iteration     100.00

 eigenvalues of (default mixing * dielectric matrix)
  average eigenvalue GAMMA=   1.0100
  4.9387  2.2382  1.1736  1.1736  0.6815  0.6815  0.6756  0.1127  0.3543  0.3035
  0.3035  0.2714  0.2221

 Free energy of the ion-electron system (eV)
  ---------------------------------------------------
  alpha Z        PSCENC =      2023.78361127
  Ewald energy   TEWEN  =    125191.64015037
  -Hartree energ DENC   =   -175677.58991692
  -exchange      EXHF   =         0.00000000
  -V(xc)+E(xc)   XCENC  =       222.42431742
  PAW double counting   =     60561.06223329   -58964.98685792
  entropy T*S    EENTRO =         0.01090154
  eigenvalues    EBANDS =      -417.03073208
  atomic energy  EATOM  =     46688.37031544
  Solvation  Ediel_sol  =         0.00000000
  ---------------------------------------------------
  free energy    TOTEN  =      -372.31597760 eV

  energy without entropy =     -372.32687914  energy(sigma->0) =     -372.31961145


--------------------------------------------------------------------------------------------------------




--------------------------------------- Iteration      1(  19)  ---------------------------------------


    POTLOK:  cpu time    0.4925: real time    0.4977
    SETDIJ:  cpu time    0.0438: real time    0.0439
    EDDIAG:  cpu time    7.5333: real time    7.5513
  RMM-DIIS:  cpu time   30.2414: real time   30.3212
    ORTHCH:  cpu time    1.1058: real time    1.1117
       DOS:  cpu time    0.0011: real time    0.0048
    CHARGE:  cpu time    2.7945: real time    2.8012
    MIXING:  cpu time    0.0164: real time    0.0164
    --------------------------------------------
      LOOP:  cpu time   42.2288: real time   42.3483

 eigenvalue-minimisations  :  7073
 total energy-change (2. order) :-0.2372023E+00  (-0.1106521E-01)
 number of electron     642.0000099 magnetization      16.3220604
 augmentation part      197.1723512 magnetization       8.4086447

 Broyden mixing:
  rms(total) = 0.19863E+00    rms(broyden)= 0.19863E+00
  rms(prec ) = 0.22292E+00
  weight for this iteration     100.00

 eigenvalues of (default mixing * dielectric matrix)
  average eigenvalue GAMMA=   1.0093
  5.3818  2.2163  1.2473  1.2473  0.7723  0.7040  0.7040  0.1127  0.3828  0.2955
  0.2955  0.3017  0.2229  0.2453

 Free energy of the ion-electron system (eV)
  ---------------------------------------------------
  alpha Z        PSCENC =      2023.78361127
  Ewald energy   TEWEN  =    125191.64015037
  -Hartree energ DENC   =   -175666.79786947
  -exchange      EXHF   =         0.00000000
  -V(xc)+E(xc)   XCENC  =       222.08972238
  PAW double counting   =     60592.25529334   -58996.39153626
  entropy T*S    EENTRO =        -0.00795666
  eigenvalues    EBANDS =      -427.49491030
  atomic energy  EATOM  =     46688.37031544
  Solvation  Ediel_sol  =         0.00000000
  ---------------------------------------------------
  free energy    TOTEN  =      -372.55317989 eV

  energy without entropy =     -372.54522323  energy(sigma->0) =     -372.55052767


--------------------------------------------------------------------------------------------------------




--------------------------------------- Iteration      1(  20)  ---------------------------------------


    POTLOK:  cpu time    0.4923: real time    0.4979
    SETDIJ:  cpu time    0.0443: real time    0.0444
    EDDIAG:  cpu time    7.5482: real time    7.5662
  RMM-DIIS:  cpu time   30.2664: real time   30.3465
    ORTHCH:  cpu time    1.1032: real time    1.1108
       DOS:  cpu time    0.0011: real time    0.0011
    CHARGE:  cpu time    2.7880: real time    2.7947
    MIXING:  cpu time    0.0170: real time    0.0170
    --------------------------------------------
      LOOP:  cpu time   42.2605: real time   42.3787

 eigenvalue-minimisations  :  7083
 total energy-change (2. order) :-0.4504382E-01  (-0.3967450E-02)
 number of electron     642.0000099 magnetization      15.7117730
 augmentation part      197.1841473 magnetization       7.9446508

 Broyden mixing:
  rms(total) = 0.12130E+00    rms(broyden)= 0.12130E+00
  rms(prec ) = 0.12987E+00
  weight for this iteration     100.00

 eigenvalues of (default mixing * dielectric matrix)
  average eigenvalue GAMMA=   1.0427
  5.8621  2.2029  1.4707  1.4707  0.7902  0.7902  0.7137  0.5535  0.1127  0.3592
  0.3051  0.3051  0.2697  0.2235  0.2111

 Free energy of the ion-electron system (eV)
  ---------------------------------------------------
  alpha Z        PSCENC =      2023.78361127
  Ewald energy   TEWEN  =    125191.64015037
  -Hartree energ DENC   =   -175658.81613702
  -exchange      EXHF   =         0.00000000
  -V(xc)+E(xc)   XCENC  =       221.95297790
  PAW double counting   =     60603.63115471   -59007.70066540
  entropy T*S    EENTRO =        -0.01292383
  eigenvalues    EBANDS =      -435.44670714
  atomic energy  EATOM  =     46688.37031544
  Solvation  Ediel_sol  =         0.00000000
  ---------------------------------------------------
  free energy    TOTEN  =      -372.59822371 eV

  energy without entropy =     -372.58529988  energy(sigma->0) =     -372.59391576


--------------------------------------------------------------------------------------------------------




--------------------------------------- Iteration      1(  21)  ---------------------------------------


    POTLOK:  cpu time    0.4937: real time    0.4993
    SETDIJ:  cpu time    0.0445: real time    0.0446
    EDDIAG:  cpu time    7.5229: real time    7.5407
[...]
   -.214E+01 -.160E+01 0.231E+04   0.218E+01 0.161E+01 -.231E+04   -.112E-01 -.372E-02 -.898E-01   0.703E-03 0.609E-02 -.302E-01
   0.990E+00 -.748E+00 0.767E+03   -.997E+00 0.752E+00 -.767E+03   0.163E-01 -.102E-01 -.518E+00   -.103E-01 0.764E-02 -.277E-01
   0.380E+00 0.239E+01 -.768E+03   -.376E+00 -.241E+01 0.768E+03   -.316E-02 0.208E-01 0.433E+00   -.199E-02 -.329E-02 0.452E-01
   0.111E+02 0.560E+01 -.231E+04   -.110E+02 -.553E+01 0.231E+04   -.506E-01 -.376E-01 0.106E+00   -.108E-02 -.368E-01 0.317E-01
   0.806E+00 -.396E+01 0.231E+04   -.804E+00 0.399E+01 -.231E+04   -.300E-02 -.751E-03 -.116E+00   -.575E-02 0.605E-02 -.319E-01
   -.349E+01 0.877E+00 0.778E+03   0.355E+01 -.890E+00 -.777E+03   -.707E-01 0.551E-02 -.450E+00   0.480E-02 0.664E-02 -.321E-01
   -.711E+00 0.181E+01 -.766E+03   0.725E+00 -.183E+01 0.765E+03   -.109E-01 0.180E-01 0.426E+00   -.370E-03 -.291E-02 0.448E-01
   0.353E+01 0.164E+02 -.229E+04   -.368E+01 -.165E+02 0.229E+04   0.136E+00 0.102E+00 0.546E+00   0.164E-01 -.366E-01 0.360E-01
   -.351E+00 -.309E+01 0.231E+04   0.333E+00 0.311E+01 -.231E+04   0.107E-01 0.647E-02 -.127E+00   -.218E-02 -.618E-02 -.383E-01
   -.104E+00 -.379E+01 0.779E+03   0.119E+00 0.383E+01 -.779E+03   -.153E-01 -.550E-01 -.403E+00   -.436E-02 0.128E-01 -.302E-01
   -.731E+00 0.452E+00 -.779E+03   0.738E+00 -.454E+00 0.779E+03   -.199E-02 -.501E-03 0.270E+00   0.798E-03 0.561E-04 0.332E-01
   -.445E+00 0.124E+02 -.230E+04   0.457E+00 -.123E+02 0.230E+04   -.181E-02 -.674E-01 0.997E-01   -.774E-02 0.171E-02 0.390E-01
   -.134E+01 0.254E+00 0.231E+04   0.133E+01 -.259E+00 -.231E+04   0.132E-01 0.567E-02 -.132E+00   0.253E-02 -.832E-02 -.365E-01
   -.115E+01 -.309E+00 0.784E+03   0.118E+01 0.314E+00 -.784E+03   -.316E-01 -.122E-01 -.414E+00   0.512E-02 0.657E-02 -.295E-01
   -.196E+01 -.308E+00 -.766E+03   0.198E+01 0.308E+00 0.766E+03   -.185E-01 -.313E-02 0.425E+00   -.590E-03 0.697E-03 0.370E-01
   -.250E-01 0.822E+00 -.230E+04   0.488E-01 -.844E+00 0.230E+04   -.131E-01 0.134E-01 0.652E-01   -.769E-02 0.787E-02 0.368E-01
   0.211E+01 -.137E+01 0.231E+04   -.215E+01 0.139E+01 -.231E+04   0.157E-01 -.896E-02 -.116E+00   -.198E-02 0.341E-02 -.371E-01
   -.976E+00 0.164E+01 0.790E+03   0.974E+00 -.164E+01 -.790E+03   -.869E-02 0.135E-02 -.342E+00   0.117E-01 0.439E-02 -.324E-01
   -.758E+00 0.464E+00 -.770E+03   0.767E+00 -.465E+00 0.770E+03   -.107E-01 0.503E-02 0.390E+00   0.872E-03 -.300E-02 0.371E-01
   -.131E+02 0.771E+01 -.229E+04   0.131E+02 -.770E+01 0.229E+04   -.165E-02 0.585E-04 0.129E+00   0.195E-02 -.116E-01 0.389E-01
   -.788E+00 0.914E+00 0.231E+04   0.786E+00 -.902E+00 -.231E+04   0.142E-02 -.130E-01 -.132E+00   0.702E-02 0.369E-02 -.346E-01
   0.353E+01 0.272E+00 0.782E+03   -.358E+01 -.276E+00 -.782E+03   0.609E-01 -.272E-02 -.431E+00   -.656E-02 0.575E-02 -.290E-01
   0.117E+01 0.810E+00 -.771E+03   -.119E+01 -.796E+00 0.770E+03   0.177E-01 -.895E-02 0.401E+00   0.306E-02 -.442E-02 0.372E-01
   -.100E+01 -.246E+00 -.230E+04   0.103E+01 0.254E+00 0.230E+04   -.128E-01 0.268E-02 0.677E-01   -.145E-01 -.117E-01 0.354E-01
   0.641E+00 -.251E+00 0.231E+04   -.627E+00 0.243E+00 -.231E+04   -.121E-01 0.672E-02 -.146E+00   0.152E-02 -.237E-02 -.350E-01
   -.154E+00 0.320E-03 0.786E+03   0.136E+00 0.693E-02 -.786E+03   0.159E-01 -.964E-02 -.374E+00   0.537E-02 0.372E-03 -.292E-01
   0.566E+00 0.680E-01 -.770E+03   -.562E+00 -.797E-01 0.769E+03   -.848E-02 0.141E-01 0.382E+00   -.146E-03 -.503E-02 0.190E-01
   -.180E+00 -.213E+00 -.231E+04   0.164E+00 0.222E+00 0.231E+04   0.238E-02 0.276E-02 0.105E+00   0.114E-01 -.122E-01 0.375E-01
   -.354E+01 0.256E+01 0.231E+04   0.356E+01 -.257E+01 -.231E+04   0.700E-02 -.201E-01 -.993E-01   0.589E-02 0.341E-02 -.285E-01
   -.265E+01 0.258E+01 0.777E+03   0.269E+01 -.262E+01 -.777E+03   -.427E-01 0.560E-01 -.452E+00   -.185E-02 -.992E-02 -.326E-01
   0.271E+00 0.471E+00 -.754E+03   -.248E+00 -.483E+00 0.754E+03   -.192E-01 0.629E-02 0.419E+00   -.223E-02 0.447E-02 0.359E-01
   0.856E+01 -.484E+01 -.230E+04   -.846E+01 0.481E+01 0.230E+04   -.718E-01 0.310E-01 0.517E-01   -.295E-01 -.574E-03 0.335E-01
   0.224E+00 0.465E-01 0.232E+04   -.242E+00 -.351E-01 -.232E+04   -.354E-03 -.500E-03 -.141E+00   0.330E-02 -.374E-02 -.357E-01
   -.209E+01 0.104E+00 0.790E+03   0.209E+01 -.996E-01 -.790E+03   -.858E-02 0.785E-02 -.337E+00   0.372E-02 -.134E-01 -.319E-01
   0.104E+01 -.593E+00 -.773E+03   -.103E+01 0.586E+00 0.772E+03   -.110E-01 0.711E-02 0.403E+00   0.176E-03 0.152E-02 0.519E-02
   -.592E+00 0.376E-01 -.229E+04   0.616E+00 -.662E-01 0.229E+04   0.108E-02 0.349E-02 0.662E-01   -.247E-01 0.251E-01 0.395E-01
   -.408E+01 0.190E+01 0.231E+04   0.410E+01 -.192E+01 -.231E+04   0.197E-01 0.289E-02 -.988E-01   0.127E-02 -.841E-02 -.306E-01
   0.542E+00 -.208E+01 0.792E+03   -.545E+00 0.212E+01 -.792E+03   0.437E-02 -.390E-01 -.302E+00   -.302E-03 -.468E-02 -.327E-01
   0.127E+01 -.196E+01 -.792E+03   -.132E+01 0.197E+01 0.792E+03   0.371E-01 -.147E-01 0.323E+00   0.760E-02 0.365E-02 0.163E-01
   0.876E+01 -.515E+01 -.229E+04   -.868E+01 0.506E+01 0.229E+04   -.667E-01 0.480E-01 0.473E-01   -.108E-01 0.400E-01 0.345E-01
   -.277E+01 0.149E+01 0.231E+04   0.280E+01 -.151E+01 -.231E+04   -.196E-02 0.867E-03 -.642E-01   -.281E-02 0.309E-02 -.236E-01
   -.270E+01 0.167E+01 0.793E+03   0.273E+01 -.168E+01 -.793E+03   -.357E-01 0.216E-01 -.235E+00   0.928E-02 -.896E-02 -.358E-01
   0.139E+00 -.505E+00 -.770E+03   -.123E+00 0.506E+00 0.770E+03   -.176E-01 0.703E-03 0.379E+00   0.301E-02 0.308E-02 0.274E-01
   0.149E+02 -.824E+01 -.232E+04   -.149E+02 0.825E+01 0.232E+04   -.101E-01 0.593E-03 0.176E+00   0.149E-01 -.255E-02 0.323E-01
   0.370E+01 0.110E+01 0.231E+04   -.373E+01 -.112E+01 -.231E+04   -.729E-03 0.261E-02 -.113E+00   -.649E-02 0.405E-02 -.309E-01
   0.217E+01 0.746E+00 0.792E+03   -.221E+01 -.760E+00 -.791E+03   0.377E-01 0.181E-01 -.308E+00   0.235E-02 -.226E-02 -.327E-01
   -.115E+00 -.143E+01 -.772E+03   0.921E-01 0.144E+01 0.772E+03   0.176E-01 -.615E-02 0.398E+00   0.459E-02 -.258E-02 0.385E-01
   -.125E+02 -.108E+02 -.229E+04   0.125E+02 0.110E+02 0.229E+04   -.129E-01 -.177E+00 0.538E+00   0.327E-01 0.812E-02 0.354E-01
   0.178E+00 0.273E+01 0.231E+04   -.177E+00 -.277E+01 -.231E+04   -.214E-02 0.107E-01 -.870E-01   -.339E-02 -.454E-02 -.312E-01
   0.193E+01 -.928E+00 0.789E+03   -.193E+01 0.931E+00 -.788E+03   0.825E-02 -.201E-02 -.343E+00   -.340E-02 -.196E-03 -.312E-01
   -.193E+01 -.154E+01 -.769E+03   0.196E+01 0.155E+01 0.769E+03   -.203E-01 -.928E-02 0.430E+00   -.676E-03 0.571E-02 0.394E-01
   0.900E+00 -.125E+02 -.231E+04   -.930E+00 0.124E+02 0.231E+04   0.347E-02 0.600E-01 0.104E+00   0.260E-01 0.227E-01 0.332E-01
   0.366E+01 0.109E+01 0.231E+04   -.366E+01 -.111E+01 -.231E+04   -.148E-01 0.222E-02 -.104E+00   -.120E-02 -.148E-03 -.369E-01
   -.396E+00 0.128E+01 0.784E+03   0.401E+00 -.130E+01 -.783E+03   -.421E-02 0.377E-01 -.415E+00   -.683E-03 -.856E-02 -.304E-01
   -.273E+00 -.423E+00 -.755E+03   0.295E+00 0.406E+00 0.755E+03   -.137E-01 0.135E-01 0.417E+00   -.576E-02 0.266E-02 0.276E-01
   -.907E+01 -.611E+01 -.230E+04   0.898E+01 0.608E+01 0.230E+04   0.673E-01 0.173E-01 0.692E-01   0.134E-01 0.760E-02 0.365E-01
   0.257E+01 0.178E+01 0.231E+04   -.260E+01 -.178E+01 -.231E+04   -.212E-03 -.129E-01 -.125E+00   0.341E-02 0.502E-02 -.350E-01
   0.318E+01 0.198E+01 0.778E+03   -.321E+01 -.201E+01 -.778E+03   0.395E-01 0.404E-01 -.407E+00   -.103E-01 -.436E-02 -.311E-01
   -.260E+00 0.184E+00 -.754E+03   0.245E+00 -.176E+00 0.754E+03   0.174E-01 -.770E-02 0.409E+00   -.342E-02 0.812E-03 0.478E-01
   -.110E+02 -.564E+01 -.230E+04   0.110E+02 0.559E+01 0.230E+04   0.590E-01 0.323E-01 0.108E+00   -.151E-01 0.108E-01 0.370E-01
   0.143E+02 -.137E+02 -.222E+03   -.179E+02 0.171E+02 0.222E+03   0.360E+01 -.344E+01 0.264E+00   0.128E-02 -.620E-03 0.240E-02
   -.151E+02 0.142E+02 -.222E+03   0.186E+02 -.177E+02 0.222E+03   -.360E+01 0.344E+01 -.293E+00   0.974E-03 -.645E-03 0.175E-02
 -----------------------------------------------------------------------------------------------
   -.458E-01 0.344E-01 -.668E+00   -.409E-12 0.249E-12 -.682E-12   0.383E-01 -.316E-01 0.587E+00   0.196E-01 -.157E-01 0.539E-01
 
 
 POSITION                                       TOTAL-FORCE (eV/Angst)
 -----------------------------------------------------------------------------------
     10.55998      0.00001      1.11585         0.004539      0.021129     -0.037278
      2.63934      1.52694      3.55478         0.000231     -0.002636     -0.006928
      0.00031      3.05028      5.99394        -0.002414      0.000886     -0.028146
      5.27938      9.14413      8.36397        -0.000329      0.000082      0.009301
      9.23998      2.28632      1.11585         0.027843      0.022366      0.027686
      1.31970      3.81056      3.58380        -0.001013      0.001237     -0.034320
      1.32138      0.76448      5.94850        -0.001906     -0.004276     -0.008047
      9.23854      2.28576      8.40579         0.000506      0.000005     -0.000583
      1.31998      2.28632      1.11585        -0.006796      0.031878      0.050368
     -1.31530      3.80892      3.56384        -0.002732      0.001237     -0.003106
      3.96154      0.76182      5.94101        -0.000921     -0.000950      0.004332
      1.31826      2.28449      8.40361         0.001361      0.002038     -0.047981
      2.63998      0.00001      1.11585        -0.010754      0.024206     -0.054136
      0.00097      1.52756      3.55939        -0.001650     -0.002461     -0.006698
      2.64042      3.04822      5.97701         0.000732     -0.000291     -0.033095
     -2.63941      9.14420      8.37504        -0.000529     -0.000076      0.006993
      5.27998      0.00001      1.11585         0.001006     -0.008843     -0.018453
      7.92144      1.52406      3.55097         0.000030      0.000746      0.000777
      5.28083      3.04754      5.94228         0.001018      0.000450      0.004738
      0.00040      9.14464      8.37458         0.000023     -0.000519      0.004733
      3.95998      2.28632      1.11585        -0.028314      0.016949      0.008166
      6.60085      3.80823      3.53895         0.001021      0.001335      0.006329
      6.60183      0.76105      5.94720         0.000130     -0.000451      0.004068
      3.96264      2.28466      8.38329        -0.000875      0.001014      0.001688
      6.59998      2.28632      1.11585         0.006860      0.003792     -0.017679
      3.95720      3.80950      3.55568         0.001930      0.001310     -0.007349
      9.23953      0.76341      5.94959         0.001374      0.000587      0.003499
      6.60050      2.28617      8.37464         0.001097      0.000450      0.005716
      7.91998      0.00001      1.11585         0.004630     -0.004421     -0.017196
      5.28011      1.52404      3.54685         0.001198     -0.000534      0.002297
      7.92257      3.04596      5.94782        -0.000942      0.001319      0.005575
      7.91998      0.00000      8.39233        -0.000162     -0.001464      0.001965
      7.91998      4.57263      1.11585         0.034537     -0.020462     -0.030229
      0.00363      6.09327      3.56434        -0.001669      0.000525     -0.003173
     -2.63677      7.62118      5.91727        -0.000657     -0.001069      0.013517
     -2.63955      4.57251      8.36632         0.001059     -0.000011      0.007508
      6.59998      6.85894      1.11585        -0.015355      0.007428     -0.077086
     -1.31763      8.38322      3.53819        -0.001054     -0.001546      0.005809
     -1.31523      5.33169      5.95405        -0.002587      0.001312     -0.000354
     -3.95961      6.85857      8.33559        -0.000344      0.000384      0.022918
     -1.32002      6.85894      1.11585         0.036834     -0.020260     -0.030657
     -3.95978      8.38610      3.53272        -0.000031     -0.002225      0.007337
      1.31846      5.33381      5.99549        -0.002340      0.000932     -0.029813
     -1.31978      6.85835      8.36515         0.000697     -0.000357      0.006707
     -0.00002      4.57263      1.11585         0.021953     -0.011268      0.058023
     -2.63658      6.09453      3.53006        -0.000444      0.000424      0.008076
      0.00344      7.61984      5.94845        -0.000552      0.000073      0.004791
     -0.00219      4.57377      8.44770         0.001313     -0.000720     -0.020248
      2.63998      4.57263      1.11585        -0.030622     -0.008687      0.053830
      5.27732      6.09467      3.53398         0.001819      0.002100      0.006662
      2.63838      7.62024      5.95158         0.000344     -0.000834      0.003345
      2.64060      4.57477      8.40379        -0.001352     -0.001297     -0.045070
      1.31998      6.85894      1.11585        -0.004566     -0.035714      0.029645
      3.95823      8.38367      3.54083         0.001077     -0.000666      0.004713
      3.95868      5.33241      5.95044         0.003257      0.002770     -0.007244
      1.31963      6.86053      8.40964         0.000128     -0.000987     -0.000501
      3.95998      6.85894      1.11585        -0.017424     -0.015761     -0.033665
      1.32069      8.38138      3.55158         0.000450      0.000639      0.002306
      6.60122      5.33159      5.91930         0.000783      0.000685      0.013557
      3.96050      6.85980      8.36721        -0.000355     -0.000127      0.007736
      5.27998      4.57263      1.11585        -0.026610     -0.001863     -0.049278
      2.63741      6.09380      3.56079         0.000890      0.002570     -0.007088
      5.27844      7.62165      5.91908         0.000434      0.000255      0.014864
      5.28101      4.57254      8.37856         0.000297     -0.000389      0.005050
      1.72096      3.68289     11.02603        -0.001181     -0.000485      0.112851
      2.26567      3.16110     11.06874         0.005078     -0.001460      0.117923
 -----------------------------------------------------------------------------------
    total drift:                                0.012051     -0.012953     -0.027047


--------------------------------------------------------------------------------------------------------



  FREE ENERGIE OF THE ION-ELECTRON SYSTEM (eV)
  ---------------------------------------------------
  free  energy   TOTEN  =      -411.90150796 eV

  energy  without entropy=     -411.87343135  energy(sigma->0) =     -411.89214909
 
 d Force =-0.4187383E-03[-0.416E-03,-0.421E-03]  d Energy =-0.4219048E-03 0.317E-05
 d Force =-0.2304927E+00[-0.230E+00,-0.231E+00]  d Ewald  =-0.2304928E+00 0.127E-06


--------------------------------------------------------------------------------------------------------


    POTLOK:  cpu time    0.5572: real time    0.5646


--------------------------------------------------------------------------------------------------------


 NEB: the previous image is higher in energy: T
 NEB: the next image is higher in energy    : F
 NEB: only prev energy greater

 NEB: Tangent
 ----------------------------------------------
      0.00000      0.00000      0.00000
      0.00365     -0.00884     -0.04484
     -0.01077      0.00432     -0.13791
      0.00461     -0.00582      0.03186
      0.00000      0.00000      0.00000
     -0.00479      0.00490     -0.15072
     -0.00398     -0.02257     -0.06160
      0.00584     -0.00278     -0.01325
      0.00000      0.00000      0.00000
     -0.01535      0.00613     -0.00595
      0.00394     -0.00545      0.00909
      0.00978      0.00247     -0.27629
      0.00000      0.00000      0.00000
     -0.01264     -0.00750     -0.04316
      0.01466     -0.00752     -0.16659
      0.00459     -0.00441      0.00727
      0.00000      0.00000      0.00000
     -0.00678      0.00103      0.01008
      0.00684     -0.00025      0.01849
      0.00398     -0.00432      0.01771
      0.00000      0.00000      0.00000
     -0.00076      0.00745      0.02768
      0.00421     -0.00292      0.02088
      0.00324     -0.00397      0.00256
      0.00000      0.00000      0.00000
      0.01128      0.00358     -0.03514
     -0.00128     -0.00284      0.01964
      0.00379     -0.00466      0.01577
      0.00000      0.00000      0.00000
      0.00391     -0.00057      0.01418
     -0.00659      0.00158      0.02473
      0.00525     -0.00568      0.03764
      0.00000      0.00000      0.00000
     -0.01142      0.01177     -0.00408
     -0.00140     -0.00819      0.06670
      0.00624     -0.00583      0.06053
      0.00000      0.00000      0.00000
     -0.00517     -0.00176      0.02301
     -0.01106      0.00577      0.03305
      0.00619     -0.00598      0.12948
      0.00000      0.00000      0.00000
     -0.00315     -0.00958      0.02890
     -0.00728      0.00587     -0.12483
      0.00595     -0.00616      0.04980
      0.00000      0.00000      0.00000
     -0.00604      0.00428      0.04883
     -0.00379      0.00397      0.02384
      0.01333     -0.00986     -0.07336
      0.00000      0.00000      0.00000
      0.00713      0.00831      0.03122
      0.00055      0.00157      0.01867
      0.00220     -0.01286     -0.23642
      0.00000      0.00000      0.00000
      0.00102      0.00020      0.03523
      0.01717      0.01257     -0.05095
      0.00331     -0.00694     -0.00475
      0.00000      0.00000      0.00000
     -0.00302      0.00695      0.00904
      0.00529      0.00453      0.07280
      0.00403     -0.00628      0.02227
      0.00000      0.00000      0.00000
      0.00122      0.01544     -0.03792
      0.00754     -0.00468      0.07771
      0.00418     -0.00513      0.02390
      0.10251      0.09291      0.55200
     -0.08319     -0.10380      0.60314

 NEB: forces: par spring, perp REAL, dneb     0.018428    0.045093    0.000000
 NEB: distance to prev, next image, angle between     0.557700    0.561385  154.737252
 NEB: projections on to tangent (spring, REAL)     0.018428    0.189037

 stress matrix after NEB project (eV)
     83.04706      0.01639      0.02811
      0.01639     83.06949     -0.01434
      0.02811     -0.01434      0.39319
  FORCES: max atom, RMS     0.031052    0.005996
  FORCE total and by dimension    0.048713    0.019270
  Stress total and by dimension  117.462808   83.069491
 Quasi-Newton relaxation of ions (Broydens 2nd method)
  g(Force)  = 0.773E-03   g(Stress)= 0.000E+00

 retain information from N=  1 steps
 eigenvalues of (default step * inverse Hessian matrix)
  average eigenvalue of G=   6.4376
 eigenvalue spectrum of G is  6.4376


--------------------------------------------------------------------------------------------------------


  
 reached required accuracy - stopping structural energy minimisation
     LOOP+:  cpu time  290.1926: real time  291.1283
    4ORBIT:  cpu time    0.0000: real time    0.0000

 total amount of memory used by VASP MPI-rank0   328548. kBytes
=======================================================================

   base      :      30000. kBytes
   nonlr-proj:      89570. kBytes
   fftplans  :      13334. kBytes
   grid      :     112154. kBytes
   one-center:       2052. kBytes
   wavefun   :      81438. kBytes
 
  
  
 General timing and accounting informations for this job:
 ========================================================
  
                  Total CPU time used (sec):     4197.536
                            User time (sec):     4169.594
                          System time (sec):       27.942
                         Elapsed time (sec):     4231.846
  
                   Maximum memory used (kb):      620520.
                   Average memory used (kb):           0.
  
                          Minor page faults:      1035951
                          Major page faults:            0
                 Voluntary context switches:        20088
