 vasp.5.4.4.18Apr17-6-g9f103f2a35 (build Nov 06 2019 15:09:28) complex          
  
 executed on             LinuxIFC date 2023.08.08  15:28:49
 running on  160 total cores
 each image running on   40 cores
 distrk:  each k-point on   40 cores,    1 groups
 distr:  one band on NCORES_PER_BAND=   1 cores,   40 groups


--------------------------------------------------------------------------------------------------------


 INCAR:
 POTCAR:    PAW_PBE Pt 04Feb2005                  
 POTCAR:    PAW_PBE H 15Jun2001                   

 ----------------------------------------------------------------------------- 
|                                                                             |
|           W    W    AA    RRRRR   N    N  II  N    N   GGGG   !!!           |
|           W    W   A  A   R    R  NN   N  II  NN   N  G    G  !!!           |
|           W    W  A    A  R    R  N N  N  II  N N  N  G       !!!           |
|           W WW W  AAAAAA  RRRRR   N  N N  II  N  N N  G  GGG   !            |
|           WW  WW  A    A  R   R   N   NN  II  N   NN  G    G                |
|           W    W  A    A  R    R  N    N  II  N    N   GGGG   !!!           |
|                                                                             |
|      For optimal performance we recommend to set                            |
|        NCORE= 4 - approx SQRT( number of cores)                             |
|      NCORE specifies how many cores store one orbital (NPAR=cpu/NCORE).     |
|      This setting can  greatly improve the performance of VASP for DFT.     |
|      The default,   NCORE=1            might be grossly inefficient         |
|      on modern multi-core architectures or massively parallel machines.     |
|      Do your own testing !!!!                                               |
|      Unfortunately you need to use the default for GW and RPA calculations. |
|      (for HF NCORE is supported but not extensively tested yet)             |
|                                                                             |
 ----------------------------------------------------------------------------- 

 POTCAR:    PAW_PBE Pt 04Feb2005                  
   VRHFIN =Pt: s1d9                                                             
   LEXCH  = PE                                                                  
   EATOM  =   729.1176 eV,   53.5886 Ry                                         
                                                                                
   TITEL  = PAW_PBE Pt 04Feb2005                                                
   LULTRA =        F    use ultrasoft PP ?                                      
   IUNSCR =        1    unscreen: 0-lin 1-nonlin 2-no                           
   RPACOR =    2.330    partial core radius                                     
   POMASS =  195.080; ZVAL   =   10.000    mass and valenz                      
   RCORE  =    2.600    outmost cutoff radius                                   
   RWIGS  =    2.750; RWIGS  =    1.455    wigner-seitz radius (au A)           
   ENMAX  =  230.283; ENMIN  =  172.712 eV                                      
   ICORE  =        3    local potential                                         
   LCOR   =        T    correct aug charges                                     
   LPAW   =        T    paw PP                                                  
   EAUG   =  358.966                                                            
   DEXC   =    0.000                                                            
   RMAX   =    2.658    core radius for proj-oper                               
   RAUG   =    1.300    factor for augmentation sphere                          
   RDEP   =    2.761    radius for radial grids                                 
   RDEPT  =    2.203    core radius for aug-charge                              
                                                                                
   Atomic configuration                                                         
   16 entries                                                                   
     n  l   j            E        occ.                                          
     1  0  0.50    -78401.1885   2.0000                                         
     2  0  0.50    -13770.7750   2.0000                                         
     2  1  1.50    -11931.0468   6.0000                                         
     3  0  0.50     -3234.7234   2.0000                                         
     3  1  1.50     -2699.2216   6.0000                                         
     3  2  2.50     -2119.5714  10.0000                                         
     4  0  0.50      -695.1528   2.0000                                         
     4  1  1.50      -519.6034   6.0000                                         
     4  2  2.50      -306.6786  10.0000                                         
     4  3  3.50       -70.1041  14.0000                                         
     5  0  0.50      -101.7747   2.0000                                         
     5  1  1.50       -55.9873   6.0000                                         
     5  2  2.50        -6.1423   9.0000                                         
     6  0  0.50        -5.6573   1.0000                                         
     6  1  1.50        -6.8029   0.0000                                         
     5  3  2.50        -1.3606   0.0000                                         
   Description                                                                  
     l       E           TYP  RCUT    TYP  RCUT                                 
     2     -6.1423404     23  2.500                                             
     2     -7.5029230     23  2.500                                             
     0     -5.6573207     23  2.500                                             
     0      0.7416693     23  2.500                                             
     1     -2.7211652     23  2.600                                             
     1     20.4087390     23  2.600                                             
     3     -1.3605826     23  2.500                                             
  local pseudopotential read in
  partial core-charges read in
  partial kinetic energy density read in
  atomic valenz-charges read in
  non local Contribution for L=           2  read in
    real space projection operators read in
  non local Contribution for L=           2  read in
    real space projection operators read in
  non local Contribution for L=           0  read in
    real space projection operators read in
  non local Contribution for L=           0  read in
    real space projection operators read in
  non local Contribution for L=           1  read in
    real space projection operators read in
  non local Contribution for L=           1  read in
    real space projection operators read in
    PAW grid and wavefunctions read in
 
   number of l-projection  operators is LMAX  =           6
   number of lm-projection operators is LMMAX =          18
 
 POTCAR:    PAW_PBE H 15Jun2001                   
   VRHFIN =H: ultrasoft test                                                    
   LEXCH  = PE                                                                  
   EATOM  =    12.4884 eV,    0.9179 Ry                                         
                                                                                
   TITEL  = PAW_PBE H 15Jun2001                                                 
   LULTRA =        F    use ultrasoft PP ?                                      
   IUNSCR =        0    unscreen: 0-lin 1-nonlin 2-no                           
   RPACOR =    0.000    partial core radius                                     
   POMASS =    1.000; ZVAL   =    1.000    mass and valenz                      
   RCORE  =    1.100    outmost cutoff radius                                   
   RWIGS  =    0.700; RWIGS  =    0.370    wigner-seitz radius (au A)           
   ENMAX  =  250.000; ENMIN  =  200.000 eV                                      
   RCLOC  =    0.701    cutoff for local pot                                    
   LCOR   =        T    correct aug charges                                     
   LPAW   =        T    paw PP                                                  
   EAUG   =  400.000                                                            
   RMAX   =    1.123    core radius for proj-oper                               
   RAUG   =    1.200    factor for augmentation sphere                          
   RDEP   =    1.112    radius for radial grids                                 
   RDEPT  =    0.926    core radius for aug-charge                              
                                                                                
   Atomic configuration                                                         
    2 entries                                                                   
     n  l   j            E        occ.                                          
     1  0  0.50        -6.4927   1.0000                                         
     2  1  0.50        -3.4015   0.0000                                         
   Description                                                                  
     l       E           TYP  RCUT    TYP  RCUT                                 
     0     -6.4927494     23  1.100                                             
     0      6.8029130     23  1.100                                             
     1     -4.0817478     23  1.100                                             
  local pseudopotential read in
  atomic valenz-charges read in
  non local Contribution for L=           0  read in
    real space projection operators read in
  non local Contribution for L=           0  read in
    real space projection operators read in
  non local Contribution for L=           1  read in
    real space projection operators read in
    PAW grid and wavefunctions read in
 
   number of l-projection  operators is LMAX  =           3
   number of lm-projection operators is LMMAX =           5
 
 Optimization of the real space projectors (new method)

 maximal supplied QI-value         = 14.36
 optimisation between [QCUT,QGAM] = [ 11.92, 23.98] = [ 39.79,161.09] Ry 
 Optimized for a Real-space Cutoff    1.49 Angstroem

   l    n(q)    QCUT    max X(q) W(low)/X(q) W(high)/X(q)  e(spline) 
   2     10    11.920    66.195    0.79E-04    0.18E-03    0.24E-06
   2     10    11.920    64.643    0.81E-04    0.19E-03    0.24E-06
   0     11    11.920    95.520    0.28E-04    0.54E-04    0.18E-06
   0     11    11.920    63.403    0.27E-04    0.52E-04    0.17E-06
   1     10    11.920    19.961    0.18E-04    0.11E-03    0.23E-06
   1     10    11.920    13.289    0.25E-04    0.87E-04    0.19E-06
 Optimization of the real space projectors (new method)

 maximal supplied QI-value         = 34.20
 optimisation between [QCUT,QGAM] = [ 11.97, 23.94] = [ 40.13,160.53] Ry 
 Optimized for a Real-space Cutoff    1.18 Angstroem

   l    n(q)    QCUT    max X(q) W(low)/X(q) W(high)/X(q)  e(spline) 
   0      8    11.971    19.460    0.15E-03    0.31E-03    0.25E-06
   0      8    11.971    12.209    0.13E-03    0.29E-03    0.25E-06
   1      8    11.971     4.655    0.22E-03    0.24E-03    0.21E-06
  PAW_PBE Pt 04Feb2005                  :
 energy of atom  1       EATOM= -729.1176
 kinetic energy error for atom=    0.0021 (will be added to EATOM!!)
  PAW_PBE H 15Jun2001                   :
 energy of atom  2       EATOM=  -12.4884
 kinetic energy error for atom=    0.0008 (will be added to EATOM!!)
 
 
 POSCAR: Pt   H                                  
  positions in direct lattice
  velocities in cartesian coordinates
 exchange correlation table for  LEXCH =        8
   RHO(1)=    0.500       N(1)  =     2000
   RHO(2)=  100.500       N(2)  =     4000

 VTST: version 3.2, (02/03/18)

 CHAIN: initializing optimizer
 
 OPT: Using VASP QUASI-newton optimizer
 CHAIN: Read ICHAIN            0
 CHAIN: Running the NEB
 NEB:          SPRING     -5.000000
 NEB:          LCLIMB      T
 NEB:     LTANGENTOLD      F
 NEB:           LDNEB      F
 NEB:        LDNEBORG      F
 NEB:        LNEBCELL      F
 NEB:          EFIRST      0.000000
 NEB:           ELAST      0.000000
 
 POSCAR: Pt   H                                  
  positions in direct lattice
  No initial velocities read in
 
 POSCAR: Pt   H                                  
  positions in direct lattice
  No initial velocities read in
 


--------------------------------------------------------------------------------------------------------


 ion  position               nearest neighbor table
   1  1.000  0.000  0.056-   5 2.64   9 2.64  13 2.64  29 2.64  57 2.64  37 2.64  42 2.84  54 2.85
                            14 2.90
   2  0.334  0.168  0.179-  26 2.63  14 2.63   6 2.63  42 2.64  30 2.64  38 2.65  11 2.81   7 2.84
                             9 2.89  21 2.90  13 2.90  15 2.92
   3  0.167  0.333  0.303-  15 2.63   7 2.63  43 2.63  39 2.64  27 2.64  31 2.64   8 2.80   6 2.84
                            48 2.86  12 2.91  14 2.91  10 2.93
   4  1.000  0.000  0.417-  60 2.64  32 2.64  40 2.64   8 2.64  16 2.64  12 2.64   7 2.82  27 2.85
                            63 2.90
   5  1.000  0.250  0.056-   1 2.64  45 2.64  33 2.64   9 2.64  29 2.64  25 2.64  18 2.87  10 2.88
                            14 2.90
   6  0.333  0.416  0.183-  14 2.63   2 2.63  26 2.63  62 2.63  10 2.63  34 2.63  15 2.84  43 2.84
                             3 2.84   9 2.97  49 2.97  45 2.97
   7  0.168  0.085  0.299-  15 2.63   3 2.63  11 2.64  27 2.64  35 2.65  63 2.66   4 2.82  16 2.83
                            14 2.84   2 2.84  42 2.90  12 2.98
   8  1.000  0.250  0.421-  28 2.64  32 2.64   4 2.64  12 2.64  36 2.64  48 2.64   3 2.80  27 2.90
                            31 2.90
   9  0.250  0.250  0.056-  21 2.64  13 2.64   1 2.64  49 2.64  45 2.64   5 2.64   2 2.89  14 2.90
                             6 2.97
  10  0.084  0.416  0.178-  14 2.63   6 2.63  34 2.63  18 2.64  46 2.64  22 2.65  39 2.82  31 2.82
                            45 2.88   5 2.88  33 2.89   3 2.93
  11  0.417  0.084  0.297-  19 2.64   7 2.64  35 2.64  23 2.64  15 2.65  47 2.65   2 2.81  30 2.84
                            38 2.85  20 2.87  16 2.87  24 2.88
  12  0.249  0.250  0.428-   8 2.64   4 2.64  16 2.65  48 2.65  24 2.65  52 2.65   3 2.91  15 2.92
                             7 2.98
  13  0.250  0.000  0.056-  21 2.64   9 2.64  17 2.64   1 2.64  37 2.64  41 2.64  42 2.84  38 2.85
                             2 2.90
  14  0.085  0.167  0.179-  10 2.63   2 2.63   6 2.63  42 2.64  18 2.64  54 2.65  27 2.81   7 2.84
                             9 2.90   5 2.90   1 2.90   3 2.91
  15  0.416  0.334  0.303-   3 2.63   7 2.63  43 2.63  55 2.63  11 2.65  19 2.65  24 2.77   6 2.84
                            52 2.90  12 2.92   2 2.92  26 2.92
  16  0.250  0.000  0.418-  44 2.64  20 2.64  24 2.64   4 2.64  40 2.64  12 2.65   7 2.83  11 2.87
                            35 2.92
  17  0.500  0.000  0.056-  29 2.64  25 2.64  13 2.64  21 2.64  41 2.64  53 2.64  38 2.85  30 2.86
                            58 2.87
  18  0.834  0.167  0.177-  54 2.64  22 2.64  10 2.64  14 2.64  58 2.65  30 2.65  31 2.83  27 2.84
                            23 2.84   5 2.87  29 2.87  25 2.87
  19  0.666  0.333  0.297-  11 2.64  59 2.64  55 2.64  23 2.64  15 2.65  31 2.65  26 2.81  30 2.84
                            22 2.85  28 2.87  64 2.87  24 2.88
  20  0.500  0.000  0.418-  56 2.64  24 2.64  32 2.64  44 2.64  16 2.64  28 2.64  11 2.87  23 2.87
                            47 2.87
  21  0.500  0.250  0.056-  25 2.64  61 2.64   9 2.64  13 2.64  49 2.64  17 2.64  30 2.86  26 2.89
                             2 2.90
  22  0.833  0.416  0.176-  30 2.64  18 2.64  50 2.64  46 2.64  26 2.65  10 2.65  59 2.81  25 2.85
                            33 2.85  19 2.85  61 2.85  31 2.85
  23  0.667  0.083  0.297-  11 2.64  31 2.64  19 2.64  47 2.64  27 2.64  51 2.64  58 2.84  18 2.84
                            30 2.84  20 2.87  28 2.87  32 2.87
  24  0.500  0.250  0.419-  20 2.64  28 2.64  16 2.64  64 2.64  52 2.65  12 2.65  15 2.77  11 2.88
                            19 2.88
  25  0.750  0.250  0.056-  17 2.64  21 2.64  29 2.64  61 2.64  33 2.64   5 2.64  22 2.85  30 2.86
                            18 2.87
  26  0.582  0.416  0.179-   2 2.63  62 2.63   6 2.63  50 2.64  30 2.64  22 2.65  19 2.81  55 2.84
                            49 2.89  21 2.89  61 2.90  15 2.92
  27  0.917  0.084  0.297-  31 2.63  63 2.64  23 2.64   3 2.64   7 2.64  51 2.64  14 2.81  18 2.84
                             4 2.85  54 2.86  32 2.87   8 2.90
  28  0.750  0.250  0.418-   8 2.64  24 2.64  32 2.64  36 2.64  64 2.64  20 2.64  23 2.87  19 2.87
                            31 2.87
  29  0.750  0.000  0.056-  17 2.64  25 2.64   5 2.64  53 2.64   1 2.64  57 2.64  54 2.85  18 2.87
                            58 2.87
  30  0.583  0.167  0.177-  38 2.64  22 2.64   2 2.64  26 2.64  58 2.65  18 2.65  19 2.84  11 2.84
                            23 2.84  21 2.86  17 2.86  25 2.86
  31  0.917  0.333  0.297-  27 2.63  39 2.64  23 2.64  59 2.64   3 2.64  19 2.65  10 2.82  18 2.83
                            36 2.84  22 2.85  28 2.87   8 2.90
  32  0.750  0.000  0.419-   8 2.64  56 2.64  28 2.64  20 2.64  60 2.64   4 2.64  51 2.87  27 2.87
                            23 2.87
  33  1.000  0.500  0.056-  37 2.64  41 2.64   5 2.64  45 2.64  25 2.64  61 2.64  46 2.83  22 2.85
                            10 2.89
  34  0.334  0.666  0.178-  62 2.63   6 2.63  10 2.63  58 2.64  46 2.64  38 2.65  39 2.81  47 2.82
                            45 2.88  53 2.88  41 2.89  43 2.92
  35  0.167  0.834  0.294-  11 2.64  47 2.64  63 2.65   7 2.65  59 2.65  39 2.65  38 2.80  42 2.81
                            46 2.83  40 2.83  44 2.89  16 2.92
  36  1.000  0.500  0.417-  48 2.64  64 2.64  44 2.64  28 2.64  40 2.64   8 2.64  39 2.84  31 2.84
                            59 2.88
  37  1.000  0.750  0.056-  33 2.64  41 2.64  61 2.64  57 2.64  13 2.64   1 2.64  46 2.84  42 2.85
                            50 2.85
  38  0.334  0.917  0.176-  30 2.64  58 2.64  42 2.64  46 2.64   2 2.65  34 2.65  35 2.80  17 2.85
                            41 2.85  11 2.85  13 2.85  47 2.85
  39  0.167  0.583  0.297-  43 2.63   3 2.64  47 2.64  31 2.64  59 2.65  35 2.65  34 2.81  10 2.82
                            36 2.84  44 2.85  46 2.87  48 2.96
  40  1.000  0.750  0.413-  60 2.64   4 2.64  36 2.64  44 2.64  64 2.64  16 2.64  63 2.83  35 2.83
                            59 2.84
  41  0.250  0.750  0.056-  45 2.64  33 2.64  37 2.64  53 2.64  17 2.64  13 2.64  46 2.83  38 2.85
                            34 2.89
  42  0.084  0.918  0.176-  14 2.64   2 2.64  38 2.64  54 2.64  46 2.65  50 2.66  35 2.81  63 2.81
                            13 2.84   1 2.84  37 2.85   7 2.90
  43  0.417  0.583  0.303-  15 2.63  55 2.63  39 2.63   3 2.63  47 2.64  51 2.64  56 2.80   6 2.84
                            48 2.86  52 2.90  62 2.91  34 2.92
  44  0.250  0.750  0.417-  48 2.64  16 2.64  36 2.64  20 2.64  40 2.64  56 2.64  47 2.85  39 2.85
                            35 2.89
  45  0.250  0.500  0.056-  41 2.64  53 2.64   5 2.64   9 2.64  49 2.64  33 2.64  34 2.88  10 2.88
                             6 2.97
  46  0.084  0.666  0.175-  34 2.64  38 2.64  10 2.64  22 2.64  42 2.65  50 2.65  59 2.83  35 2.83
                            33 2.83  41 2.83  37 2.84  39 2.87
  47  0.417  0.833  0.297-  51 2.63  39 2.64  23 2.64  35 2.64  43 2.64  11 2.65  34 2.82  58 2.83
                            44 2.85  38 2.85  20 2.87  56 2.90
  48  0.249  0.501  0.424-  36 2.64  44 2.64   8 2.64  56 2.64  52 2.65  12 2.65   3 2.86  43 2.86
                            39 2.96
  49  0.500  0.500  0.056-  61 2.64  53 2.64  57 2.64  21 2.64   9 2.64  45 2.64  26 2.89  62 2.89
                             6 2.97
  50  0.832  0.666  0.176-  62 2.64  26 2.64  22 2.64  54 2.64  46 2.65  42 2.66  59 2.81  63 2.81
                            61 2.84  57 2.84  37 2.85  55 2.90
  51  0.666  0.833  0.297-  47 2.63  63 2.64  23 2.64  55 2.64  43 2.64  27 2.64  62 2.81  58 2.84
                            60 2.85  54 2.86  32 2.87  56 2.90
  52  0.500  0.501  0.427-  56 2.64  60 2.64  64 2.65  48 2.65  24 2.65  12 2.65  43 2.90  15 2.90
                            55 2.97
  53  0.500  0.750  0.056-  49 2.64  57 2.64  45 2.64  41 2.64  29 2.64  17 2.64  58 2.87  34 2.88
                            62 2.90
  54  0.833  0.917  0.176-  18 2.64  58 2.64  50 2.64  42 2.64  62 2.65  14 2.65  63 2.80  29 2.85
                            57 2.85   1 2.85  27 2.86  51 2.86
  55  0.665  0.582  0.299-  43 2.63  15 2.63  19 2.64  51 2.64  59 2.65  63 2.66  60 2.83  64 2.83
                            62 2.84  26 2.84  50 2.90  52 2.97
  56  0.500  0.751  0.421-  20 2.64  32 2.64  52 2.64  60 2.64  44 2.64  48 2.64  43 2.80  51 2.90
                            47 2.90
  57  0.750  0.750  0.056-  61 2.64  49 2.64  53 2.64  37 2.64   1 2.64  29 2.64  50 2.84  54 2.85
                            62 2.90
  58  0.583  0.916  0.177-  54 2.64  38 2.64  34 2.64  62 2.64  18 2.65  30 2.65  47 2.83  51 2.84
                            23 2.84  53 2.87  29 2.87  17 2.87
  59  0.916  0.583  0.294-  19 2.64  31 2.64  63 2.65  55 2.65  35 2.65  39 2.65  22 2.81  50 2.81
                            46 2.83  40 2.84  36 2.88  64 2.91
  60  0.750  0.750  0.418-   4 2.64  32 2.64  40 2.64  56 2.64  52 2.64  64 2.64  55 2.83  51 2.85
                            63 2.91
  61  0.750  0.500  0.056-  49 2.64  57 2.64  21 2.64  25 2.64  37 2.64  33 2.64  50 2.84  22 2.85
                            26 2.90
  62  0.582  0.665  0.179-  34 2.63  26 2.63   6 2.63  50 2.64  58 2.64  54 2.65  51 2.81  55 2.84
                            49 2.89  53 2.90  57 2.90  43 2.91
  63  0.916  0.834  0.294-  51 2.64  27 2.64  59 2.65  35 2.65  55 2.66   7 2.66  54 2.80  42 2.81
                            50 2.81  40 2.83   4 2.90  60 2.91
  64  0.750  0.500  0.418-  36 2.64  28 2.64  24 2.64  40 2.64  60 2.64  52 2.65  55 2.83  19 2.87
                            59 2.91
  65  0.357  0.397  0.536-  66 0.77
  66  0.395  0.352  0.537-  65 0.77
 
  LATTYP: Found a hexagonal cell.
 ALAT       =    10.5600004196
 C/A-ratio  =     1.8939393187
  
  Lattice vectors:
  
 A1 = (  10.5600004196,   0.0000000000,   0.0000000000)
 A2 = (  -5.2800002098,   9.1452286274,   0.0000000000)
 A3 = (   0.0000000000,   0.0000000000,  20.0000000000)


Analysis of symmetry for initial positions (statically):
=====================================================================
 Subroutine PRICEL returns:
 Original cell was already a primitive cell.
 

 Routine SETGRP: Setting up the symmetry group for a 
 hexagonal supercell.


 Subroutine GETGRP returns: Found  1 space group operations
 (whereof  1 operations were pure point group operations)
 out of a pool of 24 trial point group operations.


The static configuration has the point symmetry C_1 .


Analysis of symmetry for dynamics (positions and initial velocities):
=====================================================================
 Subroutine PRICEL returns:
 Original cell was already a primitive cell.
 

 Routine SETGRP: Setting up the symmetry group for a 
 hexagonal supercell.


 Subroutine GETGRP returns: Found  1 space group operations
 (whereof  1 operations were pure point group operations)
 out of a pool of 24 trial point group operations.


The dynamic configuration has the point symmetry C_1 .


Analysis of constrained symmetry for selective dynamics:
=====================================================================
 Subroutine PRICEL returns:
 Original cell was already a primitive cell.
 

 Routine SETGRP: Setting up the symmetry group for a 
 hexagonal supercell.


 Subroutine GETGRP returns: Found  1 space group operations
 (whereof  1 operations were pure point group operations)
 out of a pool of 24 trial point group operations.


The constrained configuration has the point symmetry C_1 .


Analysis of structural, dynamic, and magnetic symmetry:
=====================================================================
 Subroutine PRICEL returns:
 Original cell was already a primitive cell.
 

 Routine SETGRP: Setting up the symmetry group for a 
 hexagonal supercell.


 Subroutine GETGRP returns: Found  1 space group operations
 (whereof  1 operations were pure point group operations)
 out of a pool of 24 trial point group operations.


The magnetic configuration has the point symmetry C_1 .


 Subroutine INISYM returns: Found  1 space group operations
 (whereof  1 operations are pure point group operations),
 and found     1 'primitive' translations

 
 
 KPOINTS: mesh auto                               

Automatic generation of k-mesh.
Space group operators:
 irot       det(A)        alpha          n_x          n_y          n_z        tau_x        tau_y        tau_z
    1     1.000000     0.000000     1.000000     0.000000     0.000000     0.000000     0.000000     0.000000
 
 Subroutine IBZKPT returns following result:
 ===========================================
 
 Found      4 irreducible k-points:
 
 Following reciprocal coordinates:
            Coordinates               Weight
  0.000000  0.000000  0.000000      1.000000
  0.500000 -0.000000  0.000000      1.000000
  0.000000  0.500000  0.000000      1.000000
  0.500000  0.500000  0.000000      1.000000
 
 Following cartesian coordinates:
            Coordinates               Weight
  0.000000  0.000000  0.000000      1.000000
  0.047348  0.027337  0.000000      1.000000
  0.000000  0.054673  0.000000      1.000000
  0.047348  0.082010  0.000000      1.000000
 


--------------------------------------------------------------------------------------------------------




 Dimension of arrays:
   k-points           NKPTS =      4   k-points in BZ     NKDIM =      4   number of bands    NBANDS=    440
   number of dos      NEDOS =    301   number of ions     NIONS =     66
   non local maximal  LDIM  =      6   non local SUM 2l+1 LMDIM =     18
   total plane-waves  NPLWV = ******
   max r-space proj   IRMAX =   8171   max aug-charges    IRDMAX=  35597
   dimension x,y,z NGX =    84 NGY =   84 NGZ =  160
   dimension x,y,z NGXF=   168 NGYF=  168 NGZF=  320
   support grid    NGXF=   168 NGYF=  168 NGZF=  320
   ions per type =              64   2
   NGX,Y,Z   is equivalent  to a cutoff of  13.22, 13.22, 13.30 a.u.
   NGXF,Y,Z  is equivalent  to a cutoff of  26.45, 26.45, 26.60 a.u.

 SYSTEM =  Pt111                                   
 POSCAR =  Pt   H                                  

 Startparameter for this run:
   NWRITE =      2    write-flag & timer
   PREC   = accura    normal or accurate (medium, high low for compatibility)
   ISTART =      0    job   : 0-new  1-cont  2-samecut
   ICHARG =      2    charge: 1-file 2-atom 10-const
   ISPIN  =      2    spin polarized calculation?
   LNONCOLLINEAR =      F non collinear calculations
   LSORBIT =      F    spin-orbit coupling
   INIWAV =      1    electr: 0-lowe 1-rand  2-diag
   LASPH  =      F    aspherical Exc in radial PAW
   METAGGA=      F    non-selfconsistent MetaGGA calc.

 Electronic Relaxation 1
   ENCUT  =  550.0 eV  40.42 Ry    6.36 a.u.  20.19 20.19 38.24*2*pi/ulx,y,z
   ENINI  =  550.0     initial cutoff
   ENAUG  =  400.0 eV  augmentation charge cutoff
   NELM   =    200;   NELMIN=  2; NELMDL= -5     # of ELM steps 
   EDIFF  = 0.1E-04   stopping-criterion for ELM
   LREAL  =      T    real-space projection
   NLSPLINE    = F    spline interpolate recip. space projectors
   LCOMPAT=      F    compatible to vasp.4.4
   GGA_COMPAT  = T    GGA compatible to vasp.4.4-vasp.4.6
   LMAXPAW     = -100 max onsite density
   LMAXMIX     =    2 max onsite mixed and CHGCAR
   VOSKOWN=      0    Vosko Wilk Nusair interpolation
   ROPT   =   -0.00025  -0.00025
 Ionic relaxation
   EDIFFG = -.5E-01   stopping-criterion for IOM
   NSW    =    300    number of steps for IOM
   NBLOCK =      1;   KBLOCK =    300    inner block; outer block 
   IBRION =      1    ionic relax: 0-MD 1-quasi-New 2-CG
   NFREE  =      0    steps in history (QN), initial steepest desc. (CG)
   ISIF   =      2    stress and relaxation
   IWAVPR =     11    prediction:  0-non 1-charg 2-wave 3-comb
   ISYM   =      2    0-nonsym 1-usesym 2-fastsym
   LCORR  =      T    Harris-Foulkes like correction to forces

   POTIM  = 0.5000    time-step for ionic-motion
   TEIN   =    0.0    initial temperature
   TEBEG  =    0.0;   TEEND  =   0.0 temperature during run
   SMASS  =  -3.00    Nose mass-parameter (am)
   estimated Nose-frequenzy (Omega)   =  0.10E-29 period in steps =****** mass=  -0.255E-26a.u.
   SCALEE = 1.0000    scale energy and forces
   NPACO  =    256;   APACO  = 16.0  distance and # of slots for P.C.
   PSTRESS=    0.0 pullay stress

  Mass of Ions in am
   POMASS = 195.08  1.00
  Ionic Valenz
   ZVAL   =  10.00  1.00
  Atomic Wigner-Seitz radii
   RWIGS  =  -1.00 -1.00
  virtual crystal weights 
   VCA    =   1.00  1.00
   NELECT =     642.0000    total number of electrons
   NUPDOWN=      -1.0000    fix difference up-down

 DOS related values:
   EMIN   =  10.00;   EMAX   =-10.00  energy-range for DOS
   EFERMI =   0.00
   ISMEAR =     1;   SIGMA  =   0.10  broadening in eV -4-tet -1-fermi 0-gaus

 Electronic relaxation 2 (details)
   IALGO  =     68    algorithm
   LDIAG  =      T    sub-space diagonalisation (order eigenvalues)
   LSUBROT=      F    optimize rotation matrix (better conditioning)
   TURBO    =      0    0=normal 1=particle mesh
   IRESTART =      0    0=no restart 2=restart with 2 vectors
   NREBOOT  =      0    no. of reboots
   NMIN     =      0    reboot dimension
   EREF     =   0.00    reference energy to select bands
   IMIX   =      4    mixing-type and parameters
     AMIX     =   0.40;   BMIX     =  1.00
     AMIX_MAG =   1.60;   BMIX_MAG =  1.00
     AMIN     =   0.10
     WC   =   100.;   INIMIX=   1;  MIXPRE=   1;  MAXMIX= -45

 Intra band minimization:
   WEIMIN = 0.0010     energy-eigenvalue tresh-hold
   EBREAK =  0.57E-08  absolut break condition
   DEPER  =   0.30     relativ break condition  

   TIME   =   0.40     timestep for ELM

  volume/ion in A,a.u.               =      29.26       197.49
  Fermi-wavevector in a.u.,A,eV,Ry     =   1.134028  2.143002 17.497349  1.286019
  Thomas-Fermi vector in A             =   2.270731
 
 Write flags
   LWAVE        =      F    write WAVECAR
   LDOWNSAMPLE  =      F    k-point downsampling of WAVECAR
   LCHARG       =      F    write CHGCAR
   LVTOT        =      F    write LOCPOT, total local potential
   LVHAR        =      F    write LOCPOT, Hartree potential only
   LELF         =      F    write electronic localiz. function (ELF)
   LORBIT       =      0    0 simple, 1 ext, 2 COOP (PROOUT), +10 PAW based schemes


 Dipole corrections
   LMONO  =      F    monopole corrections only (constant potential shift)
   LDIPOL =      F    correct potential (dipole corrections)
   IDIPOL =      0    1-x, 2-y, 3-z, 4-all directions 
   EPSILON=  1.0000000 bulk dielectric constant

 Exchange correlation treatment:
   GGA     =    --    GGA type
   LEXCH   =     8    internal setting for exchange type
   VOSKOWN=      0    Vosko Wilk Nusair interpolation
   LHFCALC =     F    Hartree Fock is set to
   LHFONE  =     F    Hartree Fock one center treatment
   AEXX    =    0.0000 exact exchange contribution

 Linear response parameters
   LEPSILON=     F    determine dielectric tensor
   LRPA    =     F    only Hartree local field effects (RPA)
   LNABLA  =     F    use nabla operator in PAW spheres
   LVEL    =     F    velocity operator in full k-point grid
   LINTERFAST=   F  fast interpolation
   KINTER  =     0    interpolate to denser k-point grid
   CSHIFT  =0.1000    complex shift for real part using Kramers Kronig
   OMEGAMAX=  -1.0    maximum frequency
   DEG_THRESHOLD= 0.2000000E-02 threshold for treating states as degnerate
   RTIME   =   -0.100 relaxation time in fs
  (WPLASMAI=    0.000 imaginary part of plasma frequency in eV, 0.658/RTIME)
   DFIELD  = 0.0000000 0.0000000 0.0000000 field for delta impulse in time
 
 Orbital magnetization related:
   ORBITALMAG=     F  switch on orbital magnetization
   LCHIMAG   =     F  perturbation theory with respect to B field
   DQ        =  0.001000  dq finite difference perturbation B field
   LLRAUG    =     F  two centre corrections for induced B field



--------------------------------------------------------------------------------------------------------


 quasi-Newton-method for relaxation of ions
   using selective dynamics as specified on POSCAR
 charge density and potential will be updated during run
 spin polarized calculation
 RMM-DIIS sequential band-by-band and
  variant of blocked Davidson during initial phase
 perform sub-space diagonalisation
    before iterative eigenvector-optimisation
 modified Broyden-mixing scheme, WC =      100.0
 initial mixing is a Kerker type mixing with AMIX =  0.4000 and BMIX =      1.0000
 Hartree-type preconditioning will be used
 using additional bands          119
 real space projection scheme for non local part
 use partial core corrections
 calculate Harris-corrections to forces 
   (improved forces if not selfconsistent)
 use gradient corrections 
 use of overlap-Matrix (Vanderbilt PP)
 Methfessel and Paxton  Order N= 1 SIGMA  =   0.10


--------------------------------------------------------------------------------------------------------


  energy-cutoff  :      550.00
  volume of cell :     1931.47
      direct lattice vectors                 reciprocal lattice vectors
    10.560000420  0.000000000  0.000000000     0.094696966  0.054673319  0.000000000
    -5.280000210  9.145228627  0.000000000     0.000000000  0.109346638  0.000000000
     0.000000000  0.000000000 20.000000000     0.000000000  0.000000000  0.050000000

  length of vectors
    10.560000420 10.560000420 20.000000000     0.109346638  0.109346638  0.050000000


 
 k-points in units of 2pi/SCALE and weight: mesh auto                               
   0.00000000  0.00000000  0.00000000       0.250
   0.04734848  0.02733666  0.00000000       0.250
   0.00000000  0.05467332  0.00000000       0.250
   0.04734848  0.08200998  0.00000000       0.250
 
 k-points in reciprocal lattice and weights: mesh auto                               
   0.00000000  0.00000000  0.00000000       0.250
   0.50000000 -0.00000000  0.00000000       0.250
   0.00000000  0.50000000  0.00000000       0.250
   0.50000000  0.50000000  0.00000000       0.250
 
 position of ions in fractional coordinates (direct lattice) 
   0.99999844  0.00000156  0.05579229
   0.33351015  0.16753989  0.17895429
   0.16721218  0.33328213  0.30349509
   0.99974894  0.00019223  0.41745499
   0.99999844  0.25000155  0.05579229
   0.33343054  0.41640295  0.18337213
   0.16779556  0.08496564  0.29914882
   0.99958403  0.25010714  0.42063301
   0.24999844  0.25000155  0.05579229
   0.08433055  0.41613566  0.17830786
   0.41676260  0.08364483  0.29675504
   0.24909890  0.24962540  0.42776277
   0.24999844  0.00000156  0.05579229
   0.08450287  0.16749717  0.17918833
   0.41615796  0.33378131  0.30349957
   0.24984863  0.00014206  0.41849504
   0.49999844  0.00000156  0.05579229
   0.83380516  0.16660056  0.17727838
   0.66633851  0.33325294  0.29658017
   0.49988469  0.00017376  0.41822469
   0.49999843  0.25000155  0.05579229
   0.83311763  0.41598992  0.17613566
   0.66664044  0.08338758  0.29679075
   0.50006400  0.25004134  0.41909560
   0.74999841  0.25000155  0.05579229
   0.58232025  0.41636873  0.17877055
   0.91683315  0.08364875  0.29701518
   0.74994828  0.25024967  0.41826015
   0.74999842  0.00000156  0.05579229
   0.58316559  0.16670340  0.17692409
   0.91706591  0.33297495  0.29665481
   0.74984004  0.00032158  0.41867209
   0.99999844  0.50000154  0.05579229
   0.33376403  0.66559220  0.17830669
   0.16730848  0.83385906  0.29396512
   0.99984305  0.50032676  0.41652859
   0.99999843  0.75000151  0.05579229
   0.33391602  0.91680781  0.17623435
   0.16737990  0.58266128  0.29671055
   0.99982477  0.75030913  0.41314366
   0.24999843  0.75000151  0.05579229
   0.08397681  0.91759804  0.17582564
   0.41667715  0.58286764  0.30329464
   0.24980906  0.75029942  0.41677734
   0.24999844  0.50000154  0.05579229
   0.08374991  0.66618279  0.17510410
   0.41700973  0.83295662  0.29674582
   0.24939599  0.50069571  0.42438377
   0.49999844  0.50000154  0.05579229
   0.83232828  0.66595007  0.17582412
   0.66639851  0.83316862  0.29713404
   0.50040372  0.50099627  0.42692924
   0.49999843  0.75000151  0.05579229
   0.83314033  0.91673895  0.17611204
   0.66510939  0.58232556  0.29900364
   0.50002355  0.75057047  0.42063512
   0.74999841  0.75000151  0.05579229
   0.58327891  0.91607503  0.17734081
   0.91619508  0.58272320  0.29389130
   0.75000737  0.75044742  0.41782693
   0.74999839  0.50000154  0.05579229
   0.58239971  0.66541846  0.17916013
   0.91629279  0.83369478  0.29381990
   0.74997728  0.50027749  0.41822853
   0.35660926  0.39747728  0.53602421
   0.39458890  0.35155034  0.53672526
 
 position of ions in cartesian coordinates  (Angst):
  10.55997578  0.00001422  1.11584590
   2.63725667  1.53219059  3.57908581
   0.00603093  3.04794128  6.06990176
  10.55633427  0.00175795  8.34909984
   9.23997574  2.28632132  1.11584590
   1.32241893  3.80810018  3.66744263
   1.32330261  0.77703017  5.98297646
   9.23504204  2.28728698  8.41266028
   1.31997542  2.28632132  1.11584590
  -1.30666575  3.80565573  3.56615723
   3.95936851  0.76495114  5.93510077
   1.31246228  2.28288139  8.55525545
   2.63997547  0.00001422  1.11584590
   0.00796529  1.53179988  3.58376655
   2.63226289  3.05250638  6.06999131
   2.63765163  0.00129913  8.36990087
   5.27997557  0.00001422  1.11584590
   7.92533189  1.52360021  3.54556753
   5.27695941  3.04767429  5.93160341
   5.27786505  0.00158909  8.36449371
   3.95997540  2.28632132  1.11584590
   6.60129567  3.80432292  3.52271322
   6.59943693  0.76259845  5.93581491
   3.96045774  2.28668518  8.38191192
   6.59997527  2.28632132  1.11584590
   3.95087510  3.80778720  3.57541105
   9.24009307  0.76498696  5.94030365
   6.59813583  2.28859045  8.36520307
   7.91997543  0.00001422  1.11584590
   5.27803489  1.52454072  3.53848185
   7.92610867  3.04513200  5.93309617
   7.91661319  0.00294090  8.37344183
   7.91997567  4.57262842  1.11584590
   0.01022129  6.08699287  3.56613378
  -2.63599846  7.62583177  5.87930247
   7.91661762  4.57560257  8.33057175
   6.59997574  6.85893527  1.11584590
  -1.31459215  8.38441704  3.52468695
  -1.30891986  5.32857064  5.93421100
   6.59651765  6.86174851  8.26287325
  -1.32002457  6.85893527  1.11584590
  -3.95812271  8.39164390  3.51651288
   1.32256960  5.33045787  6.06589274
  -1.32359734  6.86165978  8.33554684
  -0.00002464  4.57262842  1.11584590
  -2.63304622  6.09239394  3.50208191
   0.00561183  7.61757871  5.93491648
  -0.01005174  4.57897675  8.48767536
   2.63997546  4.57262842  1.11584590
   5.27317051  6.09026563  3.51648239
   2.63803802  7.61951752  5.94268083
   2.63900309  4.58172545  8.53858483
   1.31997553  6.85893527  1.11584590
   3.95758035  8.38378730  3.52224087
   3.94887638  5.32550042  5.98007279
   1.31723672  6.86413852  8.41270238
   3.95997540  6.85893527  1.11584590
   1.32254913  8.37771558  3.54681618
   6.59824185  5.32913688  5.87782595
   3.95771565  6.86301322  8.35653862
   5.27997509  4.57262842  1.11584590
   2.63673163  6.08540391  3.58320254
   5.27414362  7.62432936  5.87639806
   5.27829508  4.57515206  8.36457067
   1.66711384  3.63502062 10.72048410
   2.31067309  3.21500826 10.73450518
 


--------------------------------------------------------------------------------------------------------


 k-point  1 :   0.0000 0.0000 0.0000  plane waves:   56579
 k-point  2 :   0.5000-0.0000 0.0000  plane waves:   56606
 k-point  3 :   0.0000 0.5000 0.0000  plane waves:   56606
 k-point  4 :   0.5000 0.5000 0.0000  plane waves:   56606

 maximum and minimum number of plane-waves per node :     56606    56579

 maximum number of plane-waves:     56606
 maximum index in each direction: 
   IXMAX=   20   IYMAX=   20   IZMAX=   38
   IXMIN=  -20   IYMIN=  -20   IZMIN=  -38


 serial   3D FFT for wavefunctions
 parallel 3D FFT for charge:
    minimum data exchange during FFTs selected (reduces bandwidth)


 total amount of memory used by VASP MPI-rank0   328556. kBytes
=======================================================================

   base      :      30000. kBytes
   nonlr-proj:      89578. kBytes
   fftplans  :      13334. kBytes
   grid      :     112154. kBytes
   one-center:       2052. kBytes
   wavefun   :      81438. kBytes
 
     INWAV:  cpu time    0.0000: real time    0.0000
 Broyden mixing: mesh for mixing (old mesh)
   NGX = 41   NGY = 41   NGZ = 77
  (NGX  =168   NGY  =168   NGZ  =320)
  gives a total of 129437 points

 initial charge density was supplied:
 charge density of overlapping atoms calculated
 number of electron     642.0000000 magnetization      66.0000000
 keeping initial charge density in first step


--------------------------------------------------------------------------------------------------------


 Maximum index for non-local projection operator         7923
 Maximum index for augmentation-charges         2177 (set IRDMAX)


--------------------------------------------------------------------------------------------------------


 First call to EWALD:  gamma=   0.142
 Maximum number of real-space cells 4x 4x 2
 Maximum number of reciprocal cells 2x 2x 4

    FEWALD:  cpu time    0.0027: real time    0.0027


--------------------------------------- Iteration      1(   1)  ---------------------------------------


    POTLOK:  cpu time    0.4570: real time    0.4840
    SETDIJ:  cpu time    0.0332: real time    0.0335
     EDDAV:  cpu time   40.0295: real time   40.1556
       DOS:  cpu time    0.0016: real time    0.0069
    --------------------------------------------
      LOOP:  cpu time   40.5214: real time   40.6800

 eigenvalue-minimisations  :  7040
 total energy-change (2. order) : 0.4381382E+04  (-0.3126707E+05)
 number of electron     642.0000000 magnetization      66.0000000
 augmentation part      642.0000000 magnetization      66.0000000

 Free energy of the ion-electron system (eV)
  ---------------------------------------------------
  alpha Z        PSCENC =      2023.78361127
  Ewald energy   TEWEN  =    125023.67344950
  -Hartree energ DENC   =   -176137.01707278
  -exchange      EXHF   =         0.00000000
  -V(xc)+E(xc)   XCENC  =       247.52040908
  PAW double counting   =     44550.55032729   -42740.70693553
  entropy T*S    EENTRO =         0.00241449
  eigenvalues    EBANDS =      4725.20558982
  atomic energy  EATOM  =     46688.37031544
  Solvation  Ediel_sol  =         0.00000000
  ---------------------------------------------------
  free energy    TOTEN  =      4381.38210858 eV

  energy without entropy =     4381.37969409  energy(sigma->0) =     4381.38130375


--------------------------------------------------------------------------------------------------------




--------------------------------------- Iteration      1(   2)  ---------------------------------------


     EDDAV:  cpu time   42.7137: real time   42.8387
       DOS:  cpu time    0.0009: real time    0.0048
    --------------------------------------------
      LOOP:  cpu time   42.7146: real time   42.8435

 eigenvalue-minimisations  :  7680
 total energy-change (2. order) :-0.4548867E+04  (-0.4166119E+04)
 number of electron     642.0000000 magnetization      66.0000000
 augmentation part      642.0000000 magnetization      66.0000000

 Free energy of the ion-electron system (eV)
  ---------------------------------------------------
  alpha Z        PSCENC =      2023.78361127
  Ewald energy   TEWEN  =    125023.67344950
  -Hartree energ DENC   =   -176137.01707278
  -exchange      EXHF   =         0.00000000
  -V(xc)+E(xc)   XCENC  =       247.52040908
  PAW double counting   =     44550.55032729   -42740.70693553
  entropy T*S    EENTRO =         0.00180386
  eigenvalues    EBANDS =       176.33938255
  atomic energy  EATOM  =     46688.37031544
  Solvation  Ediel_sol  =         0.00000000
  ---------------------------------------------------
  free energy    TOTEN  =      -167.48470932 eV

  energy without entropy =     -167.48651318  energy(sigma->0) =     -167.48531061


--------------------------------------------------------------------------------------------------------




--------------------------------------- Iteration      1(   3)  ---------------------------------------


     EDDAV:  cpu time   44.8554: real time   44.9868
       DOS:  cpu time    0.0010: real time    0.0043
    --------------------------------------------
      LOOP:  cpu time   44.8564: real time   44.9910

 eigenvalue-minimisations  :  8200
 total energy-change (2. order) :-0.2157502E+03  (-0.2045063E+03)
 number of electron     642.0000000 magnetization      66.0000000
 augmentation part      642.0000000 magnetization      66.0000000

 Free energy of the ion-electron system (eV)
  ---------------------------------------------------
  alpha Z        PSCENC =      2023.78361127
  Ewald energy   TEWEN  =    125023.67344950
  -Hartree energ DENC   =   -176137.01707278
  -exchange      EXHF   =         0.00000000
  -V(xc)+E(xc)   XCENC  =       247.52040908
  PAW double counting   =     44550.55032729   -42740.70693553
  entropy T*S    EENTRO =        -0.00401091
  eigenvalues    EBANDS =       -39.40498509
  atomic energy  EATOM  =     46688.37031544
  Solvation  Ediel_sol  =         0.00000000
  ---------------------------------------------------
  free energy    TOTEN  =      -383.23489173 eV

  energy without entropy =     -383.23088082  energy(sigma->0) =     -383.23355476


--------------------------------------------------------------------------------------------------------




--------------------------------------- Iteration      1(   4)  ---------------------------------------


     EDDAV:  cpu time   45.3916: real time   45.5247
       DOS:  cpu time    0.0009: real time    0.0042
    --------------------------------------------
      LOOP:  cpu time   45.3925: real time   45.5289

 eigenvalue-minimisations  :  8320
 total energy-change (2. order) :-0.4604392E+01  (-0.4582568E+01)
 number of electron     642.0000000 magnetization      66.0000000
 augmentation part      642.0000000 magnetization      66.0000000

 Free energy of the ion-electron system (eV)
  ---------------------------------------------------
  alpha Z        PSCENC =      2023.78361127
  Ewald energy   TEWEN  =    125023.67344950
  -Hartree energ DENC   =   -176137.01707278
  -exchange      EXHF   =         0.00000000
  -V(xc)+E(xc)   XCENC  =       247.52040908
  PAW double counting   =     44550.55032729   -42740.70693553
  entropy T*S    EENTRO =        -0.00628500
  eigenvalues    EBANDS =       -44.00710310
  atomic energy  EATOM  =     46688.37031544
  Solvation  Ediel_sol  =         0.00000000
  ---------------------------------------------------
  free energy    TOTEN  =      -387.83928383 eV

  energy without entropy =     -387.83299882  energy(sigma->0) =     -387.83718883


--------------------------------------------------------------------------------------------------------




--------------------------------------- Iteration      1(   5)  ---------------------------------------


     EDDAV:  cpu time   44.8729: real time   44.9963
       DOS:  cpu time    0.0009: real time    0.0045
    CHARGE:  cpu time    2.6368: real time    2.6447
    MIXING:  cpu time    0.0093: real time    0.0099
    --------------------------------------------
      LOOP:  cpu time   47.5201: real time   47.6554

 eigenvalue-minimisations  :  8160
 total energy-change (2. order) :-0.1332658E+00  (-0.1332263E+00)
 number of electron     642.0000089 magnetization      59.6498415
 augmentation part      185.8510604 magnetization      47.6988862

 Broyden mixing:
  rms(total) = 0.10523E+02    rms(broyden)= 0.10523E+02
  rms(prec ) = 0.10625E+02
  weight for this iteration     100.00

 Free energy of the ion-electron system (eV)
  ---------------------------------------------------
  alpha Z        PSCENC =      2023.78361127
  Ewald energy   TEWEN  =    125023.67344950
  -Hartree energ DENC   =   -176137.01707278
  -exchange      EXHF   =         0.00000000
  -V(xc)+E(xc)   XCENC  =       247.52040908
  PAW double counting   =     44550.55032729   -42740.70693553
  entropy T*S    EENTRO =        -0.00629497
  eigenvalues    EBANDS =       -44.14035897
  atomic energy  EATOM  =     46688.37031544
  Solvation  Ediel_sol  =         0.00000000
  ---------------------------------------------------
  free energy    TOTEN  =      -387.97254967 eV

  energy without entropy =     -387.96625470  energy(sigma->0) =     -387.97045134


--------------------------------------------------------------------------------------------------------




--------------------------------------- Iteration      1(   6)  ---------------------------------------


    POTLOK:  cpu time    0.4180: real time    0.4222
    SETDIJ:  cpu time    0.0331: real time    0.0332
    EDDIAG:  cpu time    6.3263: real time    6.3450
  RMM-DIIS:  cpu time   26.0406: real time   26.1206
    ORTHCH:  cpu time    0.7641: real time    0.7697
       DOS:  cpu time    0.0009: real time    0.0009
    CHARGE:  cpu time    2.6229: real time    2.6291
    MIXING:  cpu time    0.0098: real time    0.0102
    --------------------------------------------
      LOOP:  cpu time   36.2158: real time   36.3309

 eigenvalue-minimisations  :  7073
 total energy-change (2. order) : 0.2590239E+02  (-0.6929764E+01)
 number of electron     642.0000094 magnetization      51.6723832
 augmentation part      195.1274245 magnetization      38.4778564

 Broyden mixing:
  rms(total) = 0.67365E+01    rms(broyden)= 0.67365E+01
  rms(prec ) = 0.69955E+01
  weight for this iteration     100.00

 eigenvalues of (default mixing * dielectric matrix)
  average eigenvalue GAMMA=   1.2842
  1.2842

 Free energy of the ion-electron system (eV)
  ---------------------------------------------------
  alpha Z        PSCENC =      2023.78361127
  Ewald energy   TEWEN  =    125023.67344950
  -Hartree energ DENC   =   -175481.33210971
  -exchange      EXHF   =         0.00000000
  -V(xc)+E(xc)   XCENC  =       239.04440315
  PAW double counting   =     50870.60512174   -49167.87800812
  entropy T*S    EENTRO =        -0.03623823
  eigenvalues    EBANDS =      -558.30070871
  atomic energy  EATOM  =     46688.37031544
  Solvation  Ediel_sol  =         0.00000000
  ---------------------------------------------------
  free energy    TOTEN  =      -362.07016368 eV

  energy without entropy =     -362.03392545  energy(sigma->0) =     -362.05808427


--------------------------------------------------------------------------------------------------------




--------------------------------------- Iteration      1(   7)  ---------------------------------------


    POTLOK:  cpu time    0.4187: real time    0.4237
    SETDIJ:  cpu time    0.0327: real time    0.0328
    EDDIAG:  cpu time    6.3526: real time    6.3678
  RMM-DIIS:  cpu time   25.7055: real time   25.7721
    ORTHCH:  cpu time    0.7635: real time    0.7687
       DOS:  cpu time    0.0008: real time    0.0008
    CHARGE:  cpu time    2.6061: real time    2.6123
    MIXING:  cpu time    0.0086: real time    0.0086
    --------------------------------------------
      LOOP:  cpu time   35.8885: real time   35.9867

 eigenvalue-minimisations  :  7056
 total energy-change (2. order) :-0.1034731E+03  (-0.1052556E+02)
 number of electron     642.0000099 magnetization      45.9924965
 augmentation part      193.0180387 magnetization      33.7704477

 Broyden mixing:
  rms(total) = 0.92308E+01    rms(broyden)= 0.92308E+01
  rms(prec ) = 0.11405E+02
  weight for this iteration     100.00

 eigenvalues of (default mixing * dielectric matrix)
  average eigenvalue GAMMA=   1.0755
  1.8050  0.3459

 Free energy of the ion-electron system (eV)
  ---------------------------------------------------
  alpha Z        PSCENC =      2023.78361127
  Ewald energy   TEWEN  =    125023.67344950
  -Hartree energ DENC   =   -176012.87236138
  -exchange      EXHF   =         0.00000000
  -V(xc)+E(xc)   XCENC  =       232.56097687
  PAW double counting   =     56634.32529756   -54995.24810536
  entropy T*S    EENTRO =        -0.02574230
  eigenvalues    EBANDS =       -60.11072438
  atomic energy  EATOM  =     46688.37031544
  Solvation  Ediel_sol  =         0.00000000
  ---------------------------------------------------
  free energy    TOTEN  =      -465.54328277 eV

  energy without entropy =     -465.51754047  energy(sigma->0) =     -465.53470200


--------------------------------------------------------------------------------------------------------




--------------------------------------- Iteration      1(   8)  ---------------------------------------


    POTLOK:  cpu time    0.4203: real time    0.4294
    SETDIJ:  cpu time    0.0327: real time    0.0327
    EDDIAG:  cpu time    6.3340: real time    6.3492
  RMM-DIIS:  cpu time   25.8709: real time   25.9373
    ORTHCH:  cpu time    0.7604: real time    0.7673
       DOS:  cpu time    0.0009: real time    0.0040
    CHARGE:  cpu time    2.5389: real time    2.5450
    MIXING:  cpu time    0.0086: real time    0.0086
    --------------------------------------------
      LOOP:  cpu time   35.9667: real time   36.0735

 eigenvalue-minimisations  :  7081
 total energy-change (2. order) : 0.1101276E+03  (-0.4862719E+01)
 number of electron     642.0000097 magnetization      43.0753132
 augmentation part      198.6741152 magnetization      31.4093795

 Broyden mixing:
  rms(total) = 0.27143E+01    rms(broyden)= 0.27143E+01
  rms(prec ) = 0.31678E+01
  weight for this iteration     100.00

 eigenvalues of (default mixing * dielectric matrix)
  average eigenvalue GAMMA=   1.0149
  2.1219  0.6015  0.3213

 Free energy of the ion-electron system (eV)
  ---------------------------------------------------
  alpha Z        PSCENC =      2023.78361127
  Ewald energy   TEWEN  =    125023.67344950
  -Hartree energ DENC   =   -175471.89705562
  -exchange      EXHF   =         0.00000000
  -V(xc)+E(xc)   XCENC  =       234.40616634
  PAW double counting   =     60025.75979399   -58427.65888031
  entropy T*S    EENTRO =        -0.00480896
  eigenvalues    EBANDS =      -451.84826419
  atomic energy  EATOM  =     46688.37031544
  Solvation  Ediel_sol  =         0.00000000
  ---------------------------------------------------
  free energy    TOTEN  =      -355.41567253 eV

  energy without entropy =     -355.41086357  energy(sigma->0) =     -355.41406954


--------------------------------------------------------------------------------------------------------




--------------------------------------- Iteration      1(   9)  ---------------------------------------


    POTLOK:  cpu time    0.4146: real time    0.4196
    SETDIJ:  cpu time    0.0327: real time    0.0327
    EDDIAG:  cpu time    6.3353: real time    6.3504
  RMM-DIIS:  cpu time   25.7136: real time   25.7801
    ORTHCH:  cpu time    0.7606: real time    0.7654
       DOS:  cpu time    0.0009: real time    0.0037
    CHARGE:  cpu time    2.5953: real time    2.6015
    MIXING:  cpu time    0.0102: real time    0.0103
    --------------------------------------------
      LOOP:  cpu time   35.8632: real time   35.9638

 eigenvalue-minimisations  :  7080
 total energy-change (2. order) :-0.1828111E+02  (-0.1841254E+01)
 number of electron     642.0000098 magnetization      40.9950092
 augmentation part      197.9101044 magnetization      33.3497967

 Broyden mixing:
  rms(total) = 0.47295E+01    rms(broyden)= 0.47295E+01
  rms(prec ) = 0.67951E+01
  weight for this iteration     100.00

 eigenvalues of (default mixing * dielectric matrix)
  average eigenvalue GAMMA=   0.8666
  2.2307  0.7086  0.3249  0.2021

 Free energy of the ion-electron system (eV)
  ---------------------------------------------------
  alpha Z        PSCENC =      2023.78361127
  Ewald energy   TEWEN  =    125023.67344950
  -Hartree energ DENC   =   -175469.67905687
  -exchange      EXHF   =         0.00000000
  -V(xc)+E(xc)   XCENC  =       233.17948396
  PAW double counting   =     60442.42640707   -58845.26565602
  entropy T*S    EENTRO =        -0.03114347
  eigenvalues    EBANDS =      -470.15419360
  atomic energy  EATOM  =     46688.37031544
  Solvation  Ediel_sol  =         0.00000000
  ---------------------------------------------------
  free energy    TOTEN  =      -373.69678271 eV

  energy without entropy =     -373.66563924  energy(sigma->0) =     -373.68640156


--------------------------------------------------------------------------------------------------------




--------------------------------------- Iteration      1(  10)  ---------------------------------------


    POTLOK:  cpu time    0.4191: real time    0.4201
    SETDIJ:  cpu time    0.0326: real time    0.0327
    EDDIAG:  cpu time    6.6271: real time    6.6430
  RMM-DIIS:  cpu time   25.8708: real time   25.9371
    ORTHCH:  cpu time    0.7614: real time    0.7660
       DOS:  cpu time    0.0008: real time    0.0039
    CHARGE:  cpu time    2.6212: real time    2.6275
    MIXING:  cpu time    0.0091: real time    0.0091
    --------------------------------------------
      LOOP:  cpu time   36.3421: real time   36.4394

 eigenvalue-minimisations  :  7086
 total energy-change (2. order) : 0.7311356E+01  (-0.5616978E+00)
 number of electron     642.0000096 magnetization      39.2615155
 augmentation part      197.5668497 magnetization      27.8558987

 Broyden mixing:
  rms(total) = 0.34824E+01    rms(broyden)= 0.34824E+01
  rms(prec ) = 0.51879E+01
  weight for this iteration     100.00

 eigenvalues of (default mixing * dielectric matrix)
  average eigenvalue GAMMA=   0.7513
  2.2830  0.7287  0.3170  0.3170  0.1109

 Free energy of the ion-electron system (eV)
  ---------------------------------------------------
  alpha Z        PSCENC =      2023.78361127
  Ewald energy   TEWEN  =    125023.67344950
  -Hartree energ DENC   =   -175505.58570584
  -exchange      EXHF   =         0.00000000
  -V(xc)+E(xc)   XCENC  =       233.09909348
  PAW double counting   =     60703.90660929   -59107.72933910
  entropy T*S    EENTRO =        -0.02079620
  eigenvalues    EBANDS =      -425.88266411
  atomic energy  EATOM  =     46688.37031544
  Solvation  Ediel_sol  =         0.00000000
  ---------------------------------------------------
  free energy    TOTEN  =      -366.38542628 eV

  energy without entropy =     -366.36463008  energy(sigma->0) =     -366.37849421


--------------------------------------------------------------------------------------------------------




--------------------------------------- Iteration      1(  11)  ---------------------------------------


    POTLOK:  cpu time    0.4159: real time    0.4217
    SETDIJ:  cpu time    0.0329: real time    0.0330
    EDDIAG:  cpu time    6.3549: real time    6.3699
  RMM-DIIS:  cpu time   25.8484: real time   25.9151
    ORTHCH:  cpu time    0.7617: real time    0.7681
       DOS:  cpu time    0.0008: real time    0.0008
    CHARGE:  cpu time    2.7286: real time    2.7351
    MIXING:  cpu time    0.0109: real time    0.0109
    --------------------------------------------
      LOOP:  cpu time   36.1541: real time   36.2547

 eigenvalue-minimisations  :  7080
 total energy-change (2. order) : 0.9810309E+01  (-0.3268114E+00)
 number of electron     642.0000094 magnetization      37.2198769
 augmentation part      197.5858995 magnetization      26.8067579

 Broyden mixing:
  rms(total) = 0.12031E+01    rms(broyden)= 0.12031E+01
  rms(prec ) = 0.13052E+01
  weight for this iteration     100.00

 eigenvalues of (default mixing * dielectric matrix)
  average eigenvalue GAMMA=   0.7417
  2.2002  0.7662  0.7662  0.3057  0.3057  0.1059

 Free energy of the ion-electron system (eV)
  ---------------------------------------------------
  alpha Z        PSCENC =      2023.78361127
  Ewald energy   TEWEN  =    125023.67344950
  -Hartree energ DENC   =   -175526.53987962
  -exchange      EXHF   =         0.00000000
  -V(xc)+E(xc)   XCENC  =       232.51827483
  PAW double counting   =     60929.29728456   -59334.99768508
  entropy T*S    EENTRO =         0.02700489
  eigenvalues    EBANDS =      -392.70749303
  atomic energy  EATOM  =     46688.37031544
  Solvation  Ediel_sol  =         0.00000000
  ---------------------------------------------------
  free energy    TOTEN  =      -356.57511724 eV

  energy without entropy =     -356.60212214  energy(sigma->0) =     -356.58411888


--------------------------------------------------------------------------------------------------------




--------------------------------------- Iteration      1(  12)  ---------------------------------------


    POTLOK:  cpu time    0.4178: real time    0.4188
    SETDIJ:  cpu time    0.0331: real time    0.0332
    EDDIAG:  cpu time    6.3444: real time    6.3595
  RMM-DIIS:  cpu time   25.8388: real time   25.9058
    ORTHCH:  cpu time    0.7607: real time    0.7667
       DOS:  cpu time    0.0008: real time    0.0008
    CHARGE:  cpu time    2.7483: real time    2.7549
    MIXING:  cpu time    0.0118: real time    0.0118
    --------------------------------------------
      LOOP:  cpu time   36.1556: real time   36.2514

 eigenvalue-minimisations  :  7075
 total energy-change (2. order) :-0.2025480E+01  (-0.1359310E+00)
 number of electron     642.0000094 magnetization      35.5809787
 augmentation part      197.4182311 magnetization      25.4050325

 Broyden mixing:
  rms(total) = 0.11568E+01    rms(broyden)= 0.11568E+01
  rms(prec ) = 0.12547E+01
  weight for this iteration     100.00

 eigenvalues of (default mixing * dielectric matrix)
  average eigenvalue GAMMA=   0.6979
  2.1887  0.8191  0.8191  0.3915  0.2805  0.2805  0.1061

 Free energy of the ion-electron system (eV)
  ---------------------------------------------------
  alpha Z        PSCENC =      2023.78361127
  Ewald energy   TEWEN  =    125023.67344950
  -Hartree energ DENC   =   -175527.34777011
  -exchange      EXHF   =         0.00000000
  -V(xc)+E(xc)   XCENC  =       231.59354033
  PAW double counting   =     60756.86106457   -59161.14710986
  entropy T*S    EENTRO =         0.04420433
  eigenvalues    EBANDS =      -394.43190237
  atomic energy  EATOM  =     46688.37031544
  Solvation  Ediel_sol  =         0.00000000
  ---------------------------------------------------
  free energy    TOTEN  =      -358.60059690 eV

  energy without entropy =     -358.64480123  energy(sigma->0) =     -358.61533168


--------------------------------------------------------------------------------------------------------




--------------------------------------- Iteration      1(  13)  ---------------------------------------


    POTLOK:  cpu time    0.4199: real time    0.4209
    SETDIJ:  cpu time    0.0333: real time    0.0333
    EDDIAG:  cpu time    6.3269: real time    6.3420
  RMM-DIIS:  cpu time   25.7884: real time   25.8674
    ORTHCH:  cpu time    0.7582: real time    0.7654
       DOS:  cpu time    0.0008: real time    0.0008
    CHARGE:  cpu time    2.7316: real time    2.7397
    MIXING:  cpu time    0.0108: real time    0.0108
    --------------------------------------------
      LOOP:  cpu time   36.0700: real time   36.1804

 eigenvalue-minimisations  :  7082
 total energy-change (2. order) :-0.1002060E+01  (-0.5941240E-01)
 number of electron     642.0000094 magnetization      30.9327044
 augmentation part      197.3514698 magnetization      21.0050912

 Broyden mixing:
  rms(total) = 0.83389E+00    rms(broyden)= 0.83389E+00
  rms(prec ) = 0.88696E+00
  weight for this iteration     100.00

 eigenvalues of (default mixing * dielectric matrix)
  average eigenvalue GAMMA=   0.7459
  2.2197  0.9709  0.9709  0.8177  0.3171  0.3171  0.2479  0.1060

 Free energy of the ion-electron system (eV)
  ---------------------------------------------------
  alpha Z        PSCENC =      2023.78361127
  Ewald energy   TEWEN  =    125023.67344950
  -Hartree energ DENC   =   -175532.66754498
  -exchange      EXHF   =         0.00000000
  -V(xc)+E(xc)   XCENC  =       230.80121134
  PAW double counting   =     60723.14508909   -59127.28941778
  entropy T*S    EENTRO =         0.03271163
  eigenvalues    EBANDS =      -389.45208244
  atomic energy  EATOM  =     46688.37031544
  Solvation  Ediel_sol  =         0.00000000
  ---------------------------------------------------
  free energy    TOTEN  =      -359.60265693 eV

  energy without entropy =     -359.63536855  energy(sigma->0) =     -359.61356080


--------------------------------------------------------------------------------------------------------




--------------------------------------- Iteration      1(  14)  ---------------------------------------


    POTLOK:  cpu time    0.4150: real time    0.4160
    SETDIJ:  cpu time    0.0329: real time    0.0329
    EDDIAG:  cpu time    6.3584: real time    6.3768
  RMM-DIIS:  cpu time   25.8234: real time   25.9042
    ORTHCH:  cpu time    0.7602: real time    0.7663
       DOS:  cpu time    0.0009: real time    0.0009
    CHARGE:  cpu time    2.5986: real time    2.6064
    MIXING:  cpu time    0.0116: real time    0.0116
    --------------------------------------------
      LOOP:  cpu time   36.0010: real time   36.1151

 eigenvalue-minimisations  :  7077
 total energy-change (2. order) :-0.3738221E+01  (-0.1212679E+00)
 number of electron     642.0000095 magnetization      26.8417316
 augmentation part      197.2180986 magnetization      16.7680277

 Broyden mixing:
  rms(total) = 0.80785E+00    rms(broyden)= 0.80785E+00
  rms(prec ) = 0.91762E+00
  weight for this iteration     100.00

 eigenvalues of (default mixing * dielectric matrix)
  average eigenvalue GAMMA=   0.7741
  2.1811  1.7670  0.9330  0.7111  0.4243  0.1061  0.2987  0.2987  0.2470

 Free energy of the ion-electron system (eV)
  ---------------------------------------------------
  alpha Z        PSCENC =      2023.78361127
  Ewald energy   TEWEN  =    125023.67344950
  -Hartree energ DENC   =   -175545.63776767
  -exchange      EXHF   =         0.00000000
  -V(xc)+E(xc)   XCENC  =       228.61769273
  PAW double counting   =     60747.90826975   -59152.84178993
  entropy T*S    EENTRO =         0.01615195
  eigenvalues    EBANDS =      -377.23081097
  atomic energy  EATOM  =     46688.37031544
  Solvation  Ediel_sol  =         0.00000000
  ---------------------------------------------------
  free energy    TOTEN  =      -363.34087792 eV

  energy without entropy =     -363.35702988  energy(sigma->0) =     -363.34626191


--------------------------------------------------------------------------------------------------------




--------------------------------------- Iteration      1(  15)  ---------------------------------------


    POTLOK:  cpu time    0.4176: real time    0.4219
    SETDIJ:  cpu time    0.0328: real time    0.0329
    EDDIAG:  cpu time    6.6143: real time    6.6339
  RMM-DIIS:  cpu time   25.8666: real time   25.9487
    ORTHCH:  cpu time    0.7591: real time    0.7661
       DOS:  cpu time    0.0008: real time    0.0008
    CHARGE:  cpu time    2.6277: real time    2.6354
    MIXING:  cpu time    0.0125: real time    0.0126
    --------------------------------------------
      LOOP:  cpu time   36.3314: real time   36.4522

 eigenvalue-minimisations  :  7073
 total energy-change (2. order) :-0.3274888E+01  (-0.1495371E+00)
 number of electron     642.0000095 magnetization      23.7872857
 augmentation part      197.1384140 magnetization      14.3075300

 Broyden mixing:
  rms(total) = 0.50947E+00    rms(broyden)= 0.50947E+00
  rms(prec ) = 0.57557E+00
  weight for this iteration     100.00

 eigenvalues of (default mixing * dielectric matrix)
  average eigenvalue GAMMA=   0.8146
  2.3011  2.3011  0.8972  0.6898  0.6898  0.1061  0.3046  0.3046  0.3151  0.2367

 Free energy of the ion-electron system (eV)
  ---------------------------------------------------
  alpha Z        PSCENC =      2023.78361127
  Ewald energy   TEWEN  =    125023.67344950
  -Hartree energ DENC   =   -175554.78654449
  -exchange      EXHF   =         0.00000000
  -V(xc)+E(xc)   XCENC  =       226.44929836
  PAW double counting   =     60706.08913894   -59111.00367967
  entropy T*S    EENTRO =        -0.01876860
  eigenvalues    EBANDS =      -369.17258707
  atomic energy  EATOM  =     46688.37031544
  Solvation  Ediel_sol  =         0.00000000
  ---------------------------------------------------
  free energy    TOTEN  =      -366.61576631 eV

  energy without entropy =     -366.59699772  energy(sigma->0) =     -366.60951012


--------------------------------------------------------------------------------------------------------




--------------------------------------- Iteration      1(  16)  ---------------------------------------


    POTLOK:  cpu time    0.4167: real time    0.4233
    SETDIJ:  cpu time    0.0338: real time    0.0339
    EDDIAG:  cpu time    6.3423: real time    6.3605
  RMM-DIIS:  cpu time   25.8105: real time   25.8909
    ORTHCH:  cpu time    0.7603: real time    0.7658
       DOS:  cpu time    0.0009: real time    0.0009
    CHARGE:  cpu time    2.4813: real time    2.4883
    MIXING:  cpu time    0.0124: real time    0.0124
    --------------------------------------------
      LOOP:  cpu time   35.8581: real time   35.9760

 eigenvalue-minimisations  :  7064
 total energy-change (2. order) :-0.2892621E+01  (-0.1368584E+00)
 number of electron     642.0000094 magnetization      20.9042121
 augmentation part      197.0986155 magnetization      12.2947229

 Broyden mixing:
  rms(total) = 0.42458E+00    rms(broyden)= 0.42458E+00
  rms(prec ) = 0.46517E+00
  weight for this iteration     100.00

 eigenvalues of (default mixing * dielectric matrix)
  average eigenvalue GAMMA=   0.8605
  2.6291  2.6291  0.9049  0.9049  0.5866  0.5866  0.1061  0.3063  0.3063  0.2777
  0.2278

 Free energy of the ion-electron system (eV)
  ---------------------------------------------------
  alpha Z        PSCENC =      2023.78361127
  Ewald energy   TEWEN  =    125023.67344950
  -Hartree energ DENC   =   -175549.25732105
  -exchange      EXHF   =         0.00000000
  -V(xc)+E(xc)   XCENC  =       224.59050794
  PAW double counting   =     60579.96002234   -58983.68590018
  entropy T*S    EENTRO =         0.01480278
  eigenvalues    EBANDS =      -376.95787491
  atomic energy  EATOM  =     46688.37031544
  Solvation  Ediel_sol  =         0.00000000
  ---------------------------------------------------
  free energy    TOTEN  =      -369.50838686 eV

  energy without entropy =     -369.52318963  energy(sigma->0) =     -369.51332112


--------------------------------------------------------------------------------------------------------




--------------------------------------- Iteration      1(  17)  ---------------------------------------


    POTLOK:  cpu time    0.4164: real time    0.4226
    SETDIJ:  cpu time    0.0331: real time    0.0331
    EDDIAG:  cpu time    6.3458: real time    6.3642
  RMM-DIIS:  cpu time   25.8552: real time   25.9360
    ORTHCH:  cpu time    0.7597: real time    0.7649
       DOS:  cpu time    0.0009: real time    0.0009
    CHARGE:  cpu time    2.4829: real time    2.4898
    MIXING:  cpu time    0.0125: real time    0.0125
    --------------------------------------------
      LOOP:  cpu time   35.9064: real time   36.0241

 eigenvalue-minimisations  :  7069
 total energy-change (2. order) :-0.1767257E+01  (-0.8999090E-01)
 number of electron     642.0000095 magnetization      19.0329839
 augmentation part      197.0969077 magnetization      11.2327988

 Broyden mixing:
  rms(total) = 0.38595E+00    rms(broyden)= 0.38595E+00
  rms(prec ) = 0.42476E+00
  weight for this iteration     100.00

 eigenvalues of (default mixing * dielectric matrix)
  average eigenvalue GAMMA=   0.8909
  3.4964  2.3584  1.0342  1.0342  0.6100  0.6100  0.1061  0.3224  0.3224  0.3111
  0.2557  0.2301

 Free energy of the ion-electron system (eV)
  ---------------------------------------------------
  alpha Z        PSCENC =      2023.78361127
  Ewald energy   TEWEN  =    125023.67344950
  -Hartree energ DENC   =   -175539.22142334
  -exchange      EXHF   =         0.00000000
  -V(xc)+E(xc)   XCENC  =       223.28579536
  PAW double counting   =     60523.07603110   -58926.30525399
  entropy T*S    EENTRO =         0.01800566
  eigenvalues    EBANDS =      -387.95617530
  atomic energy  EATOM  =     46688.37031544
  Solvation  Ediel_sol  =         0.00000000
  ---------------------------------------------------
  free energy    TOTEN  =      -371.27564429 eV

  energy without entropy =     -371.29364996  energy(sigma->0) =     -371.28164618


--------------------------------------------------------------------------------------------------------




--------------------------------------- Iteration      1(  18)  ---------------------------------------


    POTLOK:  cpu time    0.4223: real time    0.4272
    SETDIJ:  cpu time    0.0331: real time    0.0332
    EDDIAG:  cpu time    6.3408: real time    6.3591
  RMM-DIIS:  cpu time   25.8371: real time   25.9190
    ORTHCH:  cpu time    0.7601: real time    0.7668
       DOS:  cpu time    0.0008: real time    0.0008
    CHARGE:  cpu time    2.4829: real time    2.4900
    MIXING:  cpu time    0.0115: real time    0.0115
    --------------------------------------------
      LOOP:  cpu time   35.8886: real time   36.0075

 eigenvalue-minimisations  :  7072
 total energy-change (2. order) :-0.6120935E+00  (-0.2623925E-01)
 number of electron     642.0000095 magnetization      17.3603106
 augmentation part      197.1328669 magnetization       9.6996953

 Broyden mixing:
  rms(total) = 0.26972E+00    rms(broyden)= 0.26972E+00
  rms(prec ) = 0.30366E+00
  weight for this iteration     100.00

 eigenvalues of (default mixing * dielectric matrix)
  average eigenvalue GAMMA=   0.9212
  4.1950  2.2307  1.1352  1.1352  0.6446  0.6446  0.4849  0.1061  0.3147  0.3147
  0.2983  0.2460  0.2260

 Free energy of the ion-electron system (eV)
  ---------------------------------------------------
  alpha Z        PSCENC =      2023.78361127
  Ewald energy   TEWEN  =    125023.67344950
  -Hartree energ DENC   =   -175532.44053663
  -exchange      EXHF   =         0.00000000
  -V(xc)+E(xc)   XCENC  =       222.70095836
  PAW double counting   =     60540.39810898   -58943.87691398
  entropy T*S    EENTRO =         0.00932060
  eigenvalues    EBANDS =      -394.50605132
  atomic energy  EATOM  =     46688.37031544
  Solvation  Ediel_sol  =         0.00000000
  ---------------------------------------------------
  free energy    TOTEN  =      -371.88773777 eV

  energy without entropy =     -371.89705837  energy(sigma->0) =     -371.89084464


--------------------------------------------------------------------------------------------------------




--------------------------------------- Iteration      1(  19)  ---------------------------------------


    POTLOK:  cpu time    0.4152: real time    0.4205
    SETDIJ:  cpu time    0.0331: real time    0.0332
    EDDIAG:  cpu time    6.3421: real time    6.3604
  RMM-DIIS:  cpu time   25.8610: real time   25.9418
    ORTHCH:  cpu time    0.7589: real time    0.7666
       DOS:  cpu time    0.0008: real time    0.0008
    CHARGE:  cpu time    2.4805: real time    2.4876
    MIXING:  cpu time    0.0134: real time    0.0134
    --------------------------------------------
      LOOP:  cpu time   35.9050: real time   36.0242

 eigenvalue-minimisations  :  7068
 total energy-change (2. order) :-0.3766698E+00  (-0.1628367E-01)
 number of electron     642.0000095 magnetization      15.0145799
 augmentation part      197.1643592 magnetization       7.6484950

 Broyden mixing:
  rms(total) = 0.21599E+00    rms(broyden)= 0.21599E+00
  rms(prec ) = 0.23918E+00
  weight for this iteration     100.00

 eigenvalues of (default mixing * dielectric matrix)
  average eigenvalue GAMMA=   1.0094
  5.4710  2.1721  1.2802  1.2802  0.8184  0.6530  0.6530  0.1061  0.3477  0.3114
  0.3114  0.2797  0.2278  0.2199

 Free energy of the ion-electron system (eV)
  ---------------------------------------------------
  alpha Z        PSCENC =      2023.78361127
  Ewald energy   TEWEN  =    125023.67344950
  -Hartree energ DENC   =   -175522.89260678
  -exchange      EXHF   =         0.00000000
  -V(xc)+E(xc)   XCENC  =       222.24302529
  PAW double counting   =     60572.75148951   -58976.53988078
  entropy T*S    EENTRO =        -0.00550727
  eigenvalues    EBANDS =      -403.64830372
  atomic energy  EATOM  =     46688.37031544
  Solvation  Ediel_sol  =         0.00000000
  ---------------------------------------------------
  free energy    TOTEN  =      -372.26440754 eV

  energy without entropy =     -372.25890026  energy(sigma->0) =     -372.26257178


--------------------------------------------------------------------------------------------------------




--------------------------------------- Iteration      1(  20)  ---------------------------------------


    POTLOK:  cpu time    0.4170: real time    0.4225
    SETDIJ:  cpu time    0.0383: real time    0.0384
    EDDIAG:  cpu time    6.5758: real time    6.5946
  RMM-DIIS:  cpu time   25.8839: real time   25.9657
    ORTHCH:  cpu time    0.7618: real time    0.7668
       DOS:  cpu time    0.0008: real time    0.0008
    CHARGE:  cpu time    2.4882: real time    2.4941
    MIXING:  cpu time    0.0144: real time    0.0144
    --------------------------------------------
      LOOP:  cpu time   36.1803: real time   36.2975

 eigenvalue-minimisations  :  7071
 total energy-change (2. order) :-0.1682664E+00  (-0.1453895E-01)
 number of electron     642.0000095 magnetization      14.3040171
 augmentation part      197.2083178 magnetization       7.3520230

 Broyden mixing:
  rms(total) = 0.17609E+00    rms(broyden)= 0.17609E+00
  rms(prec ) = 0.19120E+00
  weight for this iteration     100.00

 eigenvalues of (default mixing * dielectric matrix)
  average eigenvalue GAMMA=   1.0584
  6.2238  2.2084  1.4785  1.4785  0.7364  0.7364  0.7443  0.4849  0.1061  0.3442
  0.3082  0.3082  0.2704  0.2327  0.2154

 Free energy of the ion-electron system (eV)
  ---------------------------------------------------
  alpha Z        PSCENC =      2023.78361127
  Ewald energy   TEWEN  =    125023.67344950
  -Hartree energ DENC   =   -175508.57333986
  -exchange      EXHF   =         0.00000000
  -V(xc)+E(xc)   XCENC  =       221.90693159
  PAW double counting   =     60585.21445390   -58988.95807408
  entropy T*S    EENTRO =        -0.02904603
  eigenvalues    EBANDS =      -417.82097562
  atomic energy  EATOM  =     46688.37031544
  Solvation  Ediel_sol  =         0.00000000
  ---------------------------------------------------
  free energy    TOTEN  =      -372.43267389 eV

  energy without entropy =     -372.40362786  energy(sigma->0) =     -372.42299188


--------------------------------------------------------------------------------------------------------




--------------------------------------- Iteration      1(  21)  ---------------------------------------


    POTLOK:  cpu time    0.4201: real time    0.4254
    SETDIJ:  cpu time    0.0327: real time    0.0328
    EDDIAG:  cpu time    6.3379: real time    6.3529
[...]
   -.820E+01 -.286E+01 0.231E+04   0.830E+01 0.293E+01 -.231E+04   -.255E-01 -.305E-01 -.411E-01   0.438E-02 0.521E-02 0.444E-01
   -.325E+00 0.474E+00 0.726E+03   0.351E+00 -.490E+00 -.726E+03   -.204E-01 0.214E-01 -.859E+00   -.120E-01 -.174E-02 0.320E+00
   0.374E+00 0.170E+01 -.783E+03   -.320E+00 -.161E+01 0.783E+03   -.434E-01 -.104E+00 0.391E+00   -.121E-01 0.896E-03 0.285E+00
   0.239E+02 0.930E+01 -.231E+04   -.237E+02 -.917E+01 0.231E+04   -.205E+00 -.903E-01 0.109E+00   0.245E-02 -.453E-01 0.283E-01
   -.735E-02 -.105E+02 0.230E+04   0.181E-01 0.106E+02 -.230E+04   -.418E-02 -.273E-02 -.358E-01   -.648E-02 0.612E-02 0.431E-01
   -.112E+02 0.372E+01 0.777E+03   0.113E+02 -.375E+01 -.777E+03   -.190E+00 0.240E-01 -.408E+00   0.197E-02 0.783E-03 0.319E+00
   -.768E+00 0.237E+01 -.758E+03   0.777E+00 -.238E+01 0.757E+03   0.722E-02 -.650E-02 0.448E+00   0.164E-03 0.437E-02 0.296E+00
   0.791E+01 0.312E+02 -.233E+04   -.827E+01 -.317E+02 0.233E+04   0.362E+00 0.454E+00 0.120E+01   0.870E-02 -.619E-02 0.461E-01
   0.253E+00 -.986E+01 0.231E+04   -.303E+00 0.988E+01 -.231E+04   0.302E-01 0.385E-01 -.134E+00   -.412E-02 -.106E-02 0.362E-01
   -.376E+01 -.967E+01 0.768E+03   0.386E+01 0.979E+01 -.768E+03   -.114E+00 -.150E+00 -.498E+00   -.218E-02 0.121E-01 0.306E+00
   -.336E-01 0.556E+00 -.827E+03   -.926E-02 -.543E+00 0.826E+03   0.615E-01 -.288E-01 0.568E-01   -.498E-02 0.774E-02 0.276E+00
   -.302E+01 0.253E+02 -.229E+04   0.298E+01 -.251E+02 0.229E+04   0.534E-01 -.198E+00 0.917E-01   -.136E-01 0.101E-01 0.396E-01
   -.114E+01 -.396E+00 0.232E+04   0.110E+01 0.387E+00 -.232E+04   0.290E-01 0.299E-03 -.166E+00   0.197E-02 -.580E-02 0.362E-01
   -.304E+01 -.956E+00 0.789E+03   0.311E+01 0.986E+00 -.789E+03   -.884E-01 -.433E-01 -.425E+00   0.545E-02 0.865E-02 0.306E+00
   -.253E+01 -.417E+00 -.756E+03   0.253E+01 0.408E+00 0.755E+03   0.155E-01 -.167E-02 0.458E+00   -.147E-02 -.938E-04 0.293E+00
   -.891E+00 0.251E+01 -.229E+04   0.870E+00 -.253E+01 0.229E+04   -.864E-02 0.807E-02 0.476E-01   0.318E-01 0.931E-02 0.298E-01
   0.836E+01 -.436E+01 0.231E+04   -.847E+01 0.441E+01 -.231E+04   0.285E-01 -.182E-01 -.287E-01   -.528E-02 0.417E-02 0.365E-01
   0.118E+00 0.333E+01 0.799E+03   -.138E+00 -.336E+01 -.799E+03   0.101E-01 0.233E-01 -.324E+00   0.142E-01 -.160E-02 0.315E+00
   -.537E+00 0.200E+00 -.762E+03   0.499E+00 -.179E+00 0.761E+03   0.214E-01 -.152E-01 0.414E+00   0.139E-01 -.443E-02 0.292E+00
   -.266E+02 0.147E+02 -.228E+04   0.265E+02 -.146E+02 0.228E+04   0.118E+00 -.629E-01 0.134E+00   0.483E-02 0.143E-01 0.181E-01
   -.223E+00 0.147E+01 0.232E+04   0.215E+00 -.143E+01 -.232E+04   0.886E-02 -.255E-01 -.172E+00   0.735E-02 0.375E-02 0.396E-01
   0.116E+02 0.166E+01 0.773E+03   -.117E+02 -.166E+01 -.773E+03   0.176E+00 -.633E-02 -.457E+00   -.686E-02 -.349E-02 0.305E+00
   0.988E+00 0.743E+00 -.760E+03   -.101E+01 -.725E+00 0.760E+03   0.222E-02 -.892E-02 0.430E+00   0.280E-02 -.884E-02 0.280E+00
   -.245E+01 -.108E+01 -.229E+04   0.247E+01 0.109E+01 0.229E+04   -.158E-01 0.109E-01 0.542E-01   0.107E-02 -.225E-01 0.354E-01
   0.772E+00 -.407E+00 0.231E+04   -.736E+00 0.386E+00 -.231E+04   -.330E-01 0.161E-01 -.188E+00   0.380E-02 -.807E-03 0.355E-01
   0.257E+01 -.119E+01 0.792E+03   -.265E+01 0.124E+01 -.792E+03   0.916E-01 -.497E-01 -.346E+00   0.404E-02 -.202E-02 0.314E+00
   0.116E+01 0.214E+00 -.759E+03   -.111E+01 -.222E+00 0.758E+03   -.621E-01 0.142E-01 0.406E+00   0.689E-02 -.137E-01 0.285E+00
   0.367E+00 -.235E+00 -.230E+04   -.403E+00 0.258E+00 0.230E+04   0.273E-02 -.168E-02 0.842E-01   0.259E-01 -.185E-01 -.131E-01
   -.716E+01 0.557E+01 0.232E+04   0.717E+01 -.555E+01 -.232E+04   0.267E-01 -.559E-01 -.161E+00   0.713E-02 0.290E-03 0.445E-01
   -.850E+01 0.762E+01 0.778E+03   0.861E+01 -.775E+01 -.778E+03   -.111E+00 0.153E+00 -.415E+00   -.649E-02 -.160E-01 0.311E+00
   -.147E+00 0.253E+00 -.731E+03   0.174E+00 -.217E+00 0.730E+03   -.165E-01 -.372E-01 0.448E+00   -.664E-02 0.136E-02 0.290E+00
   0.149E+02 -.991E+01 -.228E+04   -.147E+02 0.983E+01 0.228E+04   -.114E+00 0.786E-01 0.458E-01   -.937E-02 -.642E-02 0.582E-01
   0.138E+01 -.984E+00 0.232E+04   -.137E+01 0.980E+00 -.232E+04   -.293E-01 0.169E-01 -.256E+00   0.101E-02 -.281E-02 0.352E-01
   -.275E+01 -.195E+01 0.798E+03   0.276E+01 0.198E+01 -.798E+03   -.865E-02 -.210E-01 -.332E+00   -.199E-03 -.112E-01 0.311E+00
   0.138E+01 -.878E+00 -.758E+03   -.130E+01 0.838E+00 0.757E+03   -.837E-01 0.508E-01 0.453E+00   0.681E-02 -.664E-02 0.277E+00
   -.210E+01 0.163E+01 -.225E+04   0.214E+01 -.165E+01 0.225E+04   0.526E-02 -.919E-02 0.558E-01   -.388E-01 0.239E-01 0.396E-01
   -.835E+01 0.313E+01 0.232E+04   0.834E+01 -.315E+01 -.232E+04   0.569E-01 0.656E-02 -.160E+00   0.239E-02 -.919E-02 0.414E-01
   0.738E+00 -.785E+01 0.800E+03   -.738E+00 0.798E+01 -.801E+03   -.421E-02 -.132E+00 -.204E+00   0.217E-02 0.791E-04 0.303E+00
   0.380E+00 -.228E+01 -.825E+03   -.389E+00 0.229E+01 0.824E+03   -.105E-01 0.138E-01 0.201E+00   0.107E-01 0.233E-02 0.263E+00
   0.160E+02 -.739E+01 -.228E+04   -.159E+02 0.733E+01 0.228E+04   -.128E+00 0.520E-01 0.511E-01   0.174E-01 0.162E-01 0.533E-01
   -.109E+02 0.638E+01 0.230E+04   0.110E+02 -.643E+01 -.230E+04   0.869E-02 -.589E-02 0.152E-01   -.457E-04 -.661E-03 0.476E-01
   -.501E+01 0.269E+01 0.807E+03   0.508E+01 -.272E+01 -.807E+03   -.799E-01 0.468E-01 -.119E+00   0.661E-02 -.150E-01 0.308E+00
   0.558E+00 -.101E+01 -.759E+03   -.532E+00 0.979E+00 0.759E+03   -.375E-01 0.456E-01 0.406E+00   0.154E-01 -.129E-02 0.285E+00
   0.299E+02 -.176E+02 -.232E+04   -.299E+02 0.176E+02 0.232E+04   -.409E-01 0.296E-01 0.199E+00   0.349E-01 0.387E-02 0.216E-01
   0.949E+01 0.539E+01 0.230E+04   -.956E+01 -.545E+01 -.230E+04   -.248E-02 0.619E-02 -.355E-01   -.780E-02 0.281E-02 0.389E-01
   0.694E+01 0.302E+01 0.800E+03   -.706E+01 -.308E+01 -.801E+03   0.110E+00 0.644E-01 -.217E+00   0.873E-02 -.732E-02 0.303E+00
   -.411E+00 -.135E+01 -.762E+03   0.395E+00 0.136E+01 0.761E+03   0.539E-02 0.774E-02 0.426E+00   0.603E-02 0.149E-02 0.291E+00
   -.234E+02 -.225E+02 -.233E+04   0.235E+02 0.230E+02 0.233E+04   -.186E+00 -.510E+00 0.111E+01   0.215E-01 0.226E-01 -.434E-01
   -.140E+01 0.830E+01 0.231E+04   0.139E+01 -.842E+01 -.231E+04   0.129E-01 0.373E-01 -.436E-01   -.765E-03 -.806E-02 0.388E-01
   0.272E+01 -.171E+01 0.801E+03   -.273E+01 0.171E+01 -.801E+03   0.125E-02 0.239E-03 -.287E+00   0.239E-03 0.471E-02 0.291E+00
   -.167E+01 -.151E+01 -.781E+03   0.162E+01 0.143E+01 0.780E+03   0.598E-01 0.829E-01 0.398E+00   -.885E-02 0.479E-02 0.285E+00
   0.353E+01 -.248E+02 -.231E+04   -.356E+01 0.246E+02 0.231E+04   -.244E-01 0.208E+00 0.106E+00   0.518E-01 0.155E-01 0.153E-01
   0.831E+01 0.451E+01 0.231E+04   -.831E+01 -.457E+01 -.231E+04   -.341E-01 0.370E-02 -.116E+00   -.265E-02 -.177E-02 0.315E-01
   -.600E+00 0.300E+01 0.788E+03   0.607E+00 -.308E+01 -.788E+03   -.268E-02 0.996E-01 -.421E+00   -.486E-02 -.636E-02 0.303E+00
   -.303E+00 -.347E-01 -.730E+03   0.295E+00 -.158E-02 0.729E+03   0.185E-01 0.316E-01 0.447E+00   -.620E-02 -.442E-04 0.292E+00
   -.173E+02 -.132E+02 -.229E+04   0.171E+02 0.131E+02 0.229E+04   0.145E+00 0.109E+00 0.484E-01   -.365E-02 0.218E-01 -.147E-02
   0.850E+01 0.455E+01 0.231E+04   -.854E+01 -.452E+01 -.231E+04   -.204E-01 -.468E-01 -.142E+00   0.682E-03 0.409E-02 0.361E-01
   0.658E+01 0.784E+01 0.769E+03   -.664E+01 -.798E+01 -.769E+03   0.699E-01 0.170E+00 -.497E+00   -.117E-01 -.911E-02 0.289E+00
   0.918E-01 0.184E-01 -.727E+03   -.133E+00 0.231E-02 0.726E+03   0.490E-01 -.276E-01 0.459E+00   -.119E-01 0.957E-02 0.304E+00
   -.231E+02 -.987E+01 -.229E+04   0.230E+02 0.980E+01 0.229E+04   0.194E+00 0.501E-01 0.962E-01   -.281E-01 0.159E-01 0.380E-01
   0.165E+02 -.108E+02 -.245E+03   -.205E+02 0.133E+02 0.245E+03   0.403E+01 -.256E+01 0.116E-01   0.227E-02 -.333E-04 -.126E-01
   -.184E+02 0.113E+02 -.244E+03   0.224E+02 -.138E+02 0.244E+03   -.403E+01 0.255E+01 -.156E+00   0.999E-03 0.641E-03 -.129E-01
 -----------------------------------------------------------------------------------------------
   -.138E+00 0.286E-01 -.117E+02   -.426E-12 0.108E-11 -.279E-11   0.445E-01 -.143E-01 0.129E+01   0.937E-01 -.149E-01 0.104E+02
 
 
 POSITION                                       TOTAL-FORCE (eV/Angst)
 -----------------------------------------------------------------------------------
     10.55998      0.00001      1.11585         0.035815      0.061633     -0.054167
      2.63731      1.53188      3.57979         0.000538     -0.001416     -0.009673
      0.00632      3.04787      6.07086        -0.009571      0.003609     -0.038382
     10.55680      0.00215      8.34620        -0.001815     -0.004155      0.020933
      9.23998      2.28632      1.11585         0.086158      0.044922      0.074195
      1.32237      3.80783      3.66785        -0.002173      0.001797     -0.049659
      1.32360      0.77706      5.98286        -0.003767     -0.008548     -0.014889
      9.23528      2.28731      8.41318        -0.000527      0.004814      0.000840
      1.31998      2.28632      1.11585         0.000825      0.084946      0.165345
     -1.30674      3.80550      3.56716        -0.005225      0.001268     -0.002245
      3.95934      0.76486      5.93594         0.003358     -0.002085      0.001304
      1.31280      2.28311      8.55770         0.001519      0.008923     -0.170056
      2.63998      0.00001      1.11585        -0.027774      0.057889     -0.071774
      0.00802      1.53174      3.58346        -0.005296     -0.002899     -0.007453
      2.63225      3.05242      6.06992         0.004217     -0.003482     -0.045859
      2.63803      0.00143      8.37099         0.000597      0.001299     -0.002477
      5.27998      0.00001      1.11585        -0.014383     -0.015247     -0.046352
      7.92522      1.52349      3.54535        -0.001077      0.000231      0.000126
      5.27702      3.04768      5.93197         0.002768     -0.000988      0.003139
      5.27819      0.00183      8.36471        -0.002425     -0.000089     -0.000238
      3.95998      2.28632      1.11585        -0.088020      0.044319      0.070804
      6.60127      3.80407      3.52352         0.000958      0.000920      0.002389
      6.59948      0.76268      5.93556         0.000216      0.000137      0.002492
      3.96083      2.28687      8.38186        -0.000089      0.000221      0.006862
      6.59998      2.28632      1.11585         0.007325      0.016973     -0.053489
      3.95090      3.80751      3.57528         0.003404      0.000581     -0.008575
      9.24024      0.76499      5.93863        -0.003065      0.003369      0.012508
      6.59839      2.28877      8.36585        -0.000891      0.002999      0.000770
      7.91998      0.00001      1.11585         0.010346     -0.007201     -0.043362
      5.27793      1.52436      3.53895         0.003215     -0.000990      0.001214
      7.92625      3.04508      5.93403        -0.002283      0.002284      0.005479
      7.91705      0.00317      8.37134        -0.002135     -0.000034      0.011781
      7.91998      4.57263      1.11585         0.047934     -0.034726     -0.103635
      0.01000      6.08671      3.56661        -0.003552      0.004098     -0.000833
     -2.63598      7.62575      5.88007         0.001093     -0.002720      0.010715
      7.91697      4.57576      8.33257         0.001189      0.001405      0.009408
      6.59998      6.85894      1.11585        -0.018700      0.009189     -0.179619
     -1.31474      8.38420      3.52536         0.001453     -0.000410      0.001446
     -1.30906      5.32848      5.93562        -0.007394      0.005526      0.002624
      6.59694      6.86191      8.26337         0.002309     -0.000944      0.029665
     -1.32002      6.85894      1.11585         0.053522     -0.023688     -0.101866
     -3.95802      8.39144      3.51660        -0.001560     -0.001962      0.003822
      1.32251      5.33054      6.06511        -0.007076      0.004339     -0.040264
     -1.32310      6.86179      8.33737        -0.000821     -0.000838      0.009459
     -0.00002      4.57263      1.11585         0.091268     -0.055316      0.142064
     -2.63321      6.09215      3.50282         0.001892     -0.000054      0.006368
      0.00555      7.61763      5.93516        -0.003437      0.000956      0.006281
     -0.00963      4.57927      8.48861         0.003220     -0.003068     -0.022238
      2.63998      4.57263      1.11585        -0.076431     -0.045818      0.163692
      5.27334      6.09004      3.51657         0.001001      0.001773      0.002669
      2.63807      7.61937      5.94116        -0.001933      0.002574      0.009498
      2.63937      4.58195      8.53564        -0.004522     -0.006757     -0.170651
      1.31998      6.85894      1.11585         0.002993     -0.095178      0.073085
      3.95766      8.38356      3.52118        -0.000854      0.001865      0.013037
      3.94910      5.32540      5.97886         0.006571      0.007326     -0.018372
      1.31778      6.86440      8.41229        -0.004848      0.000747     -0.000805
      3.95998      6.85894      1.11585        -0.034961     -0.059704     -0.058939
      1.32238      8.37751      3.54654        -0.000325      0.001934      0.000508
      6.59827      5.32907      5.87870         0.003846     -0.000096      0.012266
      3.95825      6.86330      8.35479         0.000602      0.004131      0.015591
      5.27998      4.57263      1.11585        -0.060368     -0.001438     -0.080923
      2.63673      6.08519      3.58194        -0.000695      0.004553     -0.008604
      5.27423      7.62426      5.87574         0.003609     -0.001477      0.019601
      5.27868      4.57540      8.36523         0.000955     -0.000824     -0.002136
      1.66378      3.63107     10.71819         0.027618     -0.014568      0.244497
      2.31206      3.21899     10.73237        -0.014341      0.003171      0.251053
 -----------------------------------------------------------------------------------
    total drift:                               -0.000226     -0.000596     -0.030481


--------------------------------------------------------------------------------------------------------



  FREE ENERGIE OF THE ION-ELECTRON SYSTEM (eV)
  ---------------------------------------------------
  free  energy   TOTEN  =      -411.72499580 eV

  energy  without entropy=     -411.67905841  energy(sigma->0) =     -411.70968334
 
 d Force =-0.6793161E-03[-0.676E-03,-0.683E-03]  d Energy =-0.6739131E-03-0.540E-05
 d Force =-0.6551566E+00[-0.651E+00,-0.659E+00]  d Ewald  =-0.6551582E+00 0.158E-05


--------------------------------------------------------------------------------------------------------


    POTLOK:  cpu time    0.4448: real time    0.4515


--------------------------------------------------------------------------------------------------------


 NEB: the previous image is higher in energy: T
 NEB: the next image is higher in energy    : F
 NEB: only prev energy greater

 NEB: Tangent
 ----------------------------------------------
      0.00000      0.00000      0.00000
      0.00247     -0.00838     -0.01817
     -0.01636      0.00424     -0.08345
     -0.00236     -0.00652      0.03055
      0.00000      0.00000      0.00000
     -0.00445      0.00019     -0.10782
     -0.00819     -0.02465     -0.04034
     -0.00177      0.00556      0.01808
      0.00000      0.00000      0.00000
     -0.01070      0.00016      0.00477
      0.00403     -0.00600      0.00282
      0.00941      0.02209     -0.37795
      0.00000      0.00000      0.00000
     -0.01087     -0.00807     -0.01966
      0.00748     -0.00663     -0.11188
      0.00484      0.00439      0.00484
      0.00000      0.00000      0.00000
     -0.00371     -0.00089     -0.00321
      0.00616     -0.00145      0.00538
     -0.00178      0.00394      0.00564
      0.00000      0.00000      0.00000
     -0.00021     -0.00204      0.01142
      0.00325     -0.00123     -0.00005
      0.00425      0.00192      0.00964
      0.00000      0.00000      0.00000
      0.00687     -0.00149     -0.02142
     -0.00409      0.00031      0.01125
     -0.00012      0.00625      0.00840
      0.00000      0.00000      0.00000
      0.00372     -0.00368      0.00482
     -0.00534      0.00102      0.01650
      0.00224      0.00330      0.01215
      0.00000      0.00000      0.00000
     -0.00822      0.00612      0.00137
     -0.00219     -0.00526      0.02046
      0.00594      0.00386      0.03763
      0.00000      0.00000      0.00000
     -0.00056     -0.00172      0.00564
     -0.01879      0.00907      0.01259
      0.00561      0.00198      0.06433
      0.00000      0.00000      0.00000
     -0.00219     -0.00748      0.00680
     -0.01323      0.01285     -0.09963
      0.00381     -0.00014      0.03038
      0.00000      0.00000      0.00000
     -0.00226     -0.00187      0.01742
     -0.00473      0.00454      0.01105
      0.01436     -0.00247     -0.04605
      0.00000      0.00000      0.00000
      0.00566      0.00280      0.00736
     -0.00195      0.00411      0.00627
     -0.00690     -0.01147     -0.41475
      0.00000      0.00000      0.00000
      0.00108     -0.00154      0.02008
      0.01819      0.01891     -0.05410
     -0.00223      0.00558      0.00625
      0.00000      0.00000      0.00000
     -0.00227      0.00222     -0.00288
      0.00326      0.00272      0.02798
      0.00844      0.01256      0.02530
      0.00000      0.00000      0.00000
      0.00068      0.01200     -0.03256
      0.00361     -0.00120      0.03659
      0.00351      0.00139      0.00594
      0.05536     -0.05310      0.54286
     -0.03527      0.02973      0.56044

 NEB: forces: par spring, perp REAL, dneb     0.023790    0.035136    0.000000
 NEB: distance to prev, next image, angle between     0.552942    0.557700  160.065170
 NEB: projections on to tangent (spring, REAL)     0.023790    0.440509

 stress matrix after NEB project (eV)
     81.95468      0.06309      0.00052
      0.06309     82.11179     -0.00535
      0.00052     -0.00535      0.62974
  FORCES: max atom, RMS     0.020296    0.005223
  FORCE total and by dimension    0.042433    0.018278
  Stress total and by dimension  116.014312   82.111789
 Quasi-Newton relaxation of ions (Broydens 2nd method)
  g(Force)  = 0.773E-03   g(Stress)= 0.000E+00

 retain information from N=  1 steps
 eigenvalues of (default step * inverse Hessian matrix)
  average eigenvalue of G=   6.4376
 eigenvalue spectrum of G is  6.4376


--------------------------------------------------------------------------------------------------------


  
 reached required accuracy - stopping structural energy minimisation
     LOOP+:  cpu time  291.8248: real time  292.7263
    4ORBIT:  cpu time    0.0000: real time    0.0000

 total amount of memory used by VASP MPI-rank0   328556. kBytes
=======================================================================

   base      :      30000. kBytes
   nonlr-proj:      89578. kBytes
   fftplans  :      13334. kBytes
   grid      :     112154. kBytes
   one-center:       2052. kBytes
   wavefun   :      81438. kBytes
 
  
  
 General timing and accounting informations for this job:
 ========================================================
  
                  Total CPU time used (sec):     4196.781
                            User time (sec):     4153.063
                          System time (sec):       43.718
                         Elapsed time (sec):     4232.110
  
                   Maximum memory used (kb):      619496.
                   Average memory used (kb):           0.
  
                          Minor page faults:       993012
                          Major page faults:            0
                 Voluntary context switches:        19916
