 vasp.5.4.4.18Apr17-6-g9f103f2a35 (build Nov 30 2020 22:55:02) complex          
  
 executed on             LinuxIFC date 2023.08.08  21:33:31
 running on   40 total cores
 distrk:  each k-point on   40 cores,    1 groups
 distr:  one band on NCORES_PER_BAND=   1 cores,   40 groups


--------------------------------------------------------------------------------------------------------


 INCAR:
 POTCAR:    PAW_PBE Pt 04Feb2005                  
 POTCAR:    PAW_PBE H 15Jun2001                   

 ----------------------------------------------------------------------------- 
|                                                                             |
|           W    W    AA    RRRRR   N    N  II  N    N   GGGG   !!!           |
|           W    W   A  A   R    R  NN   N  II  NN   N  G    G  !!!           |
|           W    W  A    A  R    R  N N  N  II  N N  N  G       !!!           |
|           W WW W  AAAAAA  RRRRR   N  N N  II  N  N N  G  GGG   !            |
|           WW  WW  A    A  R   R   N   NN  II  N   NN  G    G                |
|           W    W  A    A  R    R  N    N  II  N    N   GGGG   !!!           |
|                                                                             |
|      For optimal performance we recommend to set                            |
|        NCORE= 4 - approx SQRT( number of cores)                             |
|      NCORE specifies how many cores store one orbital (NPAR=cpu/NCORE).     |
|      This setting can  greatly improve the performance of VASP for DFT.     |
|      The default,   NCORE=1            might be grossly inefficient         |
|      on modern multi-core architectures or massively parallel machines.     |
|      Do your own testing !!!!                                               |
|      Unfortunately you need to use the default for GW and RPA calculations. |
|      (for HF NCORE is supported but not extensively tested yet)             |
|                                                                             |
 ----------------------------------------------------------------------------- 

 POTCAR:    PAW_PBE Pt 04Feb2005                  
   VRHFIN =Pt: s1d9                                                             
   LEXCH  = PE                                                                  
   EATOM  =   729.1176 eV,   53.5886 Ry                                         
                                                                                
   TITEL  = PAW_PBE Pt 04Feb2005                                                
   LULTRA =        F    use ultrasoft PP ?                                      
   IUNSCR =        1    unscreen: 0-lin 1-nonlin 2-no                           
   RPACOR =    2.330    partial core radius                                     
   POMASS =  195.080; ZVAL   =   10.000    mass and valenz                      
   RCORE  =    2.600    outmost cutoff radius                                   
   RWIGS  =    2.750; RWIGS  =    1.455    wigner-seitz radius (au A)           
   ENMAX  =  230.283; ENMIN  =  172.712 eV                                      
   ICORE  =        3    local potential                                         
   LCOR   =        T    correct aug charges                                     
   LPAW   =        T    paw PP                                                  
   EAUG   =  358.966                                                            
   DEXC   =    0.000                                                            
   RMAX   =    2.658    core radius for proj-oper                               
   RAUG   =    1.300    factor for augmentation sphere                          
   RDEP   =    2.761    radius for radial grids                                 
   RDEPT  =    2.203    core radius for aug-charge                              
                                                                                
   Atomic configuration                                                         
   16 entries                                                                   
     n  l   j            E        occ.                                          
     1  0  0.50    -78401.1885   2.0000                                         
     2  0  0.50    -13770.7750   2.0000                                         
     2  1  1.50    -11931.0468   6.0000                                         
     3  0  0.50     -3234.7234   2.0000                                         
     3  1  1.50     -2699.2216   6.0000                                         
     3  2  2.50     -2119.5714  10.0000                                         
     4  0  0.50      -695.1528   2.0000                                         
     4  1  1.50      -519.6034   6.0000                                         
     4  2  2.50      -306.6786  10.0000                                         
     4  3  3.50       -70.1041  14.0000                                         
     5  0  0.50      -101.7747   2.0000                                         
     5  1  1.50       -55.9873   6.0000                                         
     5  2  2.50        -6.1423   9.0000                                         
     6  0  0.50        -5.6573   1.0000                                         
     6  1  1.50        -6.8029   0.0000                                         
     5  3  2.50        -1.3606   0.0000                                         
   Description                                                                  
     l       E           TYP  RCUT    TYP  RCUT                                 
     2     -6.1423404     23  2.500                                             
     2     -7.5029230     23  2.500                                             
     0     -5.6573207     23  2.500                                             
     0      0.7416693     23  2.500                                             
     1     -2.7211652     23  2.600                                             
     1     20.4087390     23  2.600                                             
     3     -1.3605826     23  2.500                                             
  local pseudopotential read in
  partial core-charges read in
  partial kinetic energy density read in
  atomic valenz-charges read in
  non local Contribution for L=           2  read in
    real space projection operators read in
  non local Contribution for L=           2  read in
    real space projection operators read in
  non local Contribution for L=           0  read in
    real space projection operators read in
  non local Contribution for L=           0  read in
    real space projection operators read in
  non local Contribution for L=           1  read in
    real space projection operators read in
  non local Contribution for L=           1  read in
    real space projection operators read in
    PAW grid and wavefunctions read in
 
   number of l-projection  operators is LMAX  =           6
   number of lm-projection operators is LMMAX =          18
 
 POTCAR:    PAW_PBE H 15Jun2001                   
   VRHFIN =H: ultrasoft test                                                    
   LEXCH  = PE                                                                  
   EATOM  =    12.4884 eV,    0.9179 Ry                                         
                                                                                
   TITEL  = PAW_PBE H 15Jun2001                                                 
   LULTRA =        F    use ultrasoft PP ?                                      
   IUNSCR =        0    unscreen: 0-lin 1-nonlin 2-no                           
   RPACOR =    0.000    partial core radius                                     
   POMASS =    1.000; ZVAL   =    1.000    mass and valenz                      
   RCORE  =    1.100    outmost cutoff radius                                   
   RWIGS  =    0.700; RWIGS  =    0.370    wigner-seitz radius (au A)           
   ENMAX  =  250.000; ENMIN  =  200.000 eV                                      
   RCLOC  =    0.701    cutoff for local pot                                    
   LCOR   =        T    correct aug charges                                     
   LPAW   =        T    paw PP                                                  
   EAUG   =  400.000                                                            
   RMAX   =    1.123    core radius for proj-oper                               
   RAUG   =    1.200    factor for augmentation sphere                          
   RDEP   =    1.112    radius for radial grids                                 
   RDEPT  =    0.926    core radius for aug-charge                              
                                                                                
   Atomic configuration                                                         
    2 entries                                                                   
     n  l   j            E        occ.                                          
     1  0  0.50        -6.4927   1.0000                                         
     2  1  0.50        -3.4015   0.0000                                         
   Description                                                                  
     l       E           TYP  RCUT    TYP  RCUT                                 
     0     -6.4927494     23  1.100                                             
     0      6.8029130     23  1.100                                             
     1     -4.0817478     23  1.100                                             
  local pseudopotential read in
  atomic valenz-charges read in
  non local Contribution for L=           0  read in
    real space projection operators read in
  non local Contribution for L=           0  read in
    real space projection operators read in
  non local Contribution for L=           1  read in
    real space projection operators read in
    PAW grid and wavefunctions read in
 
   number of l-projection  operators is LMAX  =           3
   number of lm-projection operators is LMMAX =           5
 
 Optimization of the real space projectors (new method)

 maximal supplied QI-value         = 14.36
 optimisation between [QCUT,QGAM] = [ 11.92, 23.98] = [ 39.79,161.09] Ry 
 Optimized for a Real-space Cutoff    1.49 Angstroem

   l    n(q)    QCUT    max X(q) W(low)/X(q) W(high)/X(q)  e(spline) 
   2     10    11.920    66.195    0.79E-04    0.18E-03    0.24E-06
   2     10    11.920    64.643    0.81E-04    0.19E-03    0.24E-06
   0     11    11.920    95.520    0.28E-04    0.54E-04    0.18E-06
   0     11    11.920    63.403    0.27E-04    0.52E-04    0.17E-06
   1     10    11.920    19.961    0.18E-04    0.11E-03    0.23E-06
   1     10    11.920    13.289    0.25E-04    0.87E-04    0.19E-06
 Optimization of the real space projectors (new method)

 maximal supplied QI-value         = 34.20
 optimisation between [QCUT,QGAM] = [ 11.97, 23.94] = [ 40.13,160.53] Ry 
 Optimized for a Real-space Cutoff    1.18 Angstroem

   l    n(q)    QCUT    max X(q) W(low)/X(q) W(high)/X(q)  e(spline) 
   0      8    11.971    19.460    0.15E-03    0.31E-03    0.25E-06
   0      8    11.971    12.209    0.13E-03    0.29E-03    0.25E-06
   1      8    11.971     4.655    0.22E-03    0.24E-03    0.21E-06
  PAW_PBE Pt 04Feb2005                  :
 energy of atom  1       EATOM= -729.1176
 kinetic energy error for atom=    0.0021 (will be added to EATOM!!)
  PAW_PBE H 15Jun2001                   :
 energy of atom  2       EATOM=  -12.4884
 kinetic energy error for atom=    0.0008 (will be added to EATOM!!)
 
 
 POSCAR: Pt   H                                  
  positions in cartesian coordinates
  No initial velocities read in
 exchange correlation table for  LEXCH =        8
   RHO(1)=    0.500       N(1)  =     2000
   RHO(2)=  100.500       N(2)  =     4000
 


--------------------------------------------------------------------------------------------------------


 ion  position               nearest neighbor table
   1  1.000  0.000  0.056-   5 2.64   9 2.64  13 2.64  29 2.64  57 2.64  37 2.64  42 2.84  54 2.84
                            14 2.92
   2  0.334  0.168  0.179-  14 2.62  26 2.62   6 2.63  42 2.64  30 2.64  38 2.65  11 2.80   7 2.85
                             9 2.90  21 2.90  13 2.91  15 2.96
   3  0.168  0.333  0.306-   7 2.61  15 2.61  43 2.63  39 2.64  27 2.65  31 2.65   8 2.76   6 2.83
                            48 2.85  14 2.94  10 2.97  12 3.04
   4  0.000  0.001  0.416-   8 2.64  16 2.64  32 2.64  40 2.64  60 2.65  12 2.65   7 2.79  27 2.84
                            63 2.91
   5  1.000  0.250  0.056-   1 2.64  45 2.64  33 2.64   9 2.64  29 2.64  25 2.64  18 2.87  10 2.88
                            14 2.91
   6  0.334  0.416  0.186-  62 2.63  14 2.63  26 2.63   2 2.63  10 2.63  34 2.63   3 2.83  43 2.83
                            15 2.84  49 3.02   9 3.02  45 3.03
   7  0.169  0.086  0.300-   3 2.61  15 2.62  11 2.63  27 2.65  35 2.66  63 2.67   4 2.79  16 2.82
                            14 2.84   2 2.85  42 2.93  12 3.13
   8  0.999  0.250  0.420-   4 2.64  32 2.64  28 2.64  48 2.64  36 2.65  12 2.66   3 2.76  27 2.90
                            31 2.90
   9  0.250  0.250  0.056-  21 2.64  13 2.64   1 2.64  49 2.64  45 2.64   5 2.64  14 2.90   2 2.90
                             6 3.02
  10  0.085  0.416  0.178-  14 2.62  34 2.63   6 2.63  18 2.64  46 2.65  22 2.66  39 2.81  31 2.81
                            45 2.88   5 2.88  33 2.89   3 2.97
  11  0.417  0.084  0.297-   7 2.63  19 2.63  35 2.64  23 2.64  15 2.65  47 2.66   2 2.80  30 2.84
                            38 2.86  20 2.87  16 2.88  24 2.88
  12  0.248  0.248  0.438-  66 2.16  65 2.19   4 2.65   8 2.66  16 2.66  48 2.67  52 2.67  24 2.68
                             3 3.04  15 3.05   7 3.13
  13  0.250  0.000  0.056-  21 2.64   9 2.64  17 2.64   1 2.64  37 2.64  41 2.64  42 2.84  38 2.85
                             2 2.91
  14  0.085  0.168  0.180-   2 2.62  10 2.62   6 2.63  42 2.64  18 2.65  54 2.66  27 2.80   7 2.84
                             9 2.90   5 2.91   1 2.92   3 2.94
  15  0.416  0.334  0.307-  43 2.61   3 2.61  55 2.61   7 2.62  19 2.65  11 2.65  24 2.72   6 2.84
                             2 2.96  26 2.96  12 3.05  52 3.05
  16  0.249  1.000  0.418-  44 2.64   4 2.64  40 2.64  24 2.64  20 2.64  12 2.66   7 2.82  11 2.88
                            35 2.92
  17  0.500  0.000  0.056-  29 2.64  25 2.64  13 2.64  21 2.64  41 2.64  53 2.64  38 2.85  30 2.86
                            58 2.87
  18  0.834  0.167  0.177-  54 2.63  22 2.64  10 2.64  14 2.65  58 2.65  30 2.65  31 2.82  27 2.83
                            23 2.84   5 2.87  29 2.87  25 2.87
  19  0.666  0.333  0.296-  55 2.63  11 2.63  59 2.64  23 2.64  15 2.65  31 2.66  26 2.80  30 2.84
                            22 2.86  64 2.87  28 2.87  24 2.88
  20  0.500  1.000  0.418-  32 2.64  56 2.64  28 2.64  44 2.64  24 2.64  16 2.64  23 2.87  11 2.87
                            47 2.87
  21  0.500  0.250  0.056-  25 2.64  61 2.64   9 2.64  13 2.64  49 2.64  17 2.64  30 2.86  26 2.90
                             2 2.90
  22  0.833  0.416  0.176-  30 2.64  18 2.64  50 2.64  46 2.64  26 2.66  10 2.66  59 2.80  25 2.84
                            33 2.84  61 2.85  31 2.85  19 2.86
  23  0.667  0.083  0.297-  11 2.64  47 2.64  19 2.64  31 2.64  27 2.64  51 2.65  58 2.84  18 2.84
                            30 2.84  28 2.86  20 2.87  32 2.87
  24  0.500  0.250  0.419-  28 2.64  20 2.64  64 2.64  16 2.64  12 2.68  52 2.68  15 2.72  11 2.88
                            19 2.88
  25  0.750  0.250  0.056-  17 2.64  21 2.64  29 2.64  61 2.64  33 2.64   5 2.64  22 2.84  30 2.86
                            18 2.87
  26  0.582  0.416  0.179-  62 2.62   2 2.62   6 2.63  50 2.64  30 2.64  22 2.66  19 2.80  55 2.85
                            49 2.90  21 2.90  61 2.91  15 2.96
  27  0.917  0.084  0.297-  31 2.63  63 2.63  23 2.64   7 2.65  51 2.65   3 2.65  14 2.80  18 2.83
                             4 2.84  54 2.86  32 2.87   8 2.90
  28  0.750  0.250  0.418-  32 2.64   8 2.64  20 2.64  24 2.64  36 2.64  64 2.64  23 2.86  19 2.87
                            31 2.88
  29  0.750  0.000  0.056-  17 2.64  25 2.64   5 2.64  53 2.64   1 2.64  57 2.64  54 2.84  18 2.87
                            58 2.87
  30  0.583  0.167  0.177-  38 2.64  22 2.64   2 2.64  26 2.64  18 2.65  58 2.65  19 2.84  11 2.84
                            23 2.84  21 2.86  25 2.86  17 2.86
  31  0.917  0.333  0.296-  27 2.63  39 2.64  23 2.64  59 2.64   3 2.65  19 2.66  10 2.81  18 2.82
                            36 2.84  22 2.85  28 2.88   8 2.90
  32  0.750  0.000  0.418-  20 2.64  28 2.64   8 2.64  56 2.64   4 2.64  60 2.64  23 2.87  51 2.87
                            27 2.87
  33  1.000  0.500  0.056-  37 2.64  41 2.64   5 2.64  45 2.64  25 2.64  61 2.64  46 2.82  22 2.84
                            10 2.89
  34  0.334  0.665  0.178-  62 2.62  10 2.63   6 2.63  58 2.64  46 2.65  38 2.66  39 2.81  47 2.82
                            45 2.88  53 2.88  41 2.90  43 2.97
  35  0.168  0.834  0.293-  11 2.64  47 2.64  63 2.65  59 2.66   7 2.66  39 2.67  38 2.80  42 2.81
                            40 2.82  46 2.83  44 2.88  16 2.92
  36  0.999  0.500  0.416-  48 2.64  64 2.64  28 2.64  40 2.64  44 2.64   8 2.65  31 2.84  39 2.84
                            59 2.88
  37  1.000  0.750  0.056-  33 2.64  41 2.64  61 2.64  57 2.64  13 2.64   1 2.64  46 2.83  50 2.85
                            42 2.85
  38  0.334  0.917  0.176-  30 2.64  58 2.64  42 2.64  46 2.64   2 2.65  34 2.66  35 2.80  17 2.85
                            41 2.85  13 2.85  47 2.85  11 2.86
  39  0.168  0.582  0.296-  43 2.64   3 2.64  47 2.64  31 2.64  35 2.67  59 2.67  34 2.81  10 2.81
                            36 2.84  44 2.84  46 2.88  48 2.98
  40  0.999  0.750  0.411-  64 2.64  36 2.64  16 2.64  44 2.64   4 2.64  60 2.64  35 2.82  59 2.82
                            63 2.82
  41  0.250  0.750  0.056-  45 2.64  33 2.64  37 2.64  53 2.64  17 2.64  13 2.64  46 2.82  38 2.85
                            34 2.90
  42  0.084  0.918  0.176-  14 2.64   2 2.64  38 2.64  54 2.65  46 2.66  50 2.66  63 2.80  35 2.81
                            13 2.84   1 2.84  37 2.85   7 2.93
  43  0.417  0.582  0.306-  55 2.61  15 2.61   3 2.63  39 2.64  51 2.65  47 2.65  56 2.76   6 2.83
                            48 2.85  62 2.94  34 2.97  52 3.05
  44  0.250  0.750  0.416-  48 2.64  16 2.64  20 2.64  36 2.64  40 2.64  56 2.65  47 2.84  39 2.84
                            35 2.88
  45  0.250  0.500  0.056-  41 2.64  53 2.64   5 2.64   9 2.64  49 2.64  33 2.64  10 2.88  34 2.88
                             6 3.03
  46  0.084  0.666  0.175-  38 2.64  22 2.64  34 2.65  10 2.65  42 2.66  50 2.66  41 2.82  33 2.82
                            59 2.82  37 2.83  35 2.83  39 2.88
  47  0.417  0.833  0.296-  51 2.63  39 2.64  23 2.64  35 2.64  43 2.65  11 2.66  34 2.82  58 2.83
                            44 2.84  38 2.85  20 2.87  56 2.90
  48  0.249  0.501  0.426-  36 2.64  44 2.64   8 2.64  56 2.65  52 2.67  12 2.67  43 2.85   3 2.85
                            39 2.98
  49  0.500  0.500  0.056-  61 2.64  53 2.64  57 2.64  21 2.64   9 2.64  45 2.64  26 2.90  62 2.91
                             6 3.02
  50  0.832  0.666  0.176-  62 2.64  26 2.64  22 2.64  54 2.65  46 2.66  42 2.66  63 2.80  59 2.80
                            61 2.84  57 2.84  37 2.85  55 2.93
  51  0.666  0.833  0.297-  47 2.63  63 2.63  55 2.64  23 2.65  43 2.65  27 2.65  62 2.80  58 2.83
                            60 2.84  54 2.87  32 2.87  56 2.90
  52  0.501  0.502  0.438-  65 2.14  66 2.18  60 2.65  56 2.66  64 2.66  48 2.67  12 2.67  24 2.68
                            43 3.05  15 3.05  55 3.14
  53  0.500  0.750  0.056-  49 2.64  57 2.64  45 2.64  41 2.64  29 2.64  17 2.64  58 2.87  34 2.88
                            62 2.92
  54  0.833  0.917  0.175-  58 2.63  18 2.63  50 2.65  42 2.65  62 2.66  14 2.66  63 2.79  29 2.84
                            57 2.84   1 2.84  27 2.86  51 2.87
  55  0.664  0.581  0.300-  43 2.61  15 2.61  19 2.63  51 2.64  59 2.66  63 2.67  60 2.79  64 2.81
                            62 2.84  26 2.85  50 2.93  52 3.14
  56  0.500  0.750  0.420-  60 2.64  32 2.64  20 2.64  44 2.65  48 2.65  52 2.66  43 2.76  51 2.90
                            47 2.90
  57  0.750  0.750  0.056-  61 2.64  49 2.64  53 2.64  37 2.64   1 2.64  29 2.64  50 2.84  54 2.84
                            62 2.92
  58  0.583  0.916  0.177-  54 2.63  38 2.64  34 2.64  62 2.65  18 2.65  30 2.65  47 2.83  51 2.83
                            23 2.84  53 2.87  29 2.87  17 2.87
  59  0.916  0.583  0.293-  19 2.64  31 2.64  63 2.65  35 2.66  55 2.66  39 2.67  22 2.80  50 2.80
                            40 2.82  46 2.82  36 2.88  64 2.92
  60  0.749  0.750  0.417-  56 2.64  64 2.64  32 2.64  40 2.64   4 2.65  52 2.65  55 2.79  51 2.84
                            63 2.92
  61  0.750  0.500  0.056-  49 2.64  57 2.64  21 2.64  25 2.64  37 2.64  33 2.64  50 2.84  22 2.85
                            26 2.91
  62  0.582  0.665  0.180-  26 2.62  34 2.62   6 2.63  50 2.64  58 2.65  54 2.66  51 2.80  55 2.84
                            49 2.91  53 2.92  57 2.92  43 2.94
  63  0.916  0.834  0.293-  51 2.63  27 2.63  59 2.65  35 2.65  55 2.67   7 2.67  54 2.79  50 2.80
                            42 2.80  40 2.82   4 2.91  60 2.92
  64  0.750  0.500  0.418-  60 2.64  36 2.64  24 2.64  40 2.64  28 2.64  52 2.66  55 2.81  19 2.87
                            59 2.92
  65  0.355  0.400  0.521-  66 0.84  52 2.14  12 2.19
  66  0.396  0.351  0.521-  65 0.84  12 2.16  52 2.18
 
  LATTYP: Found a hexagonal cell.
 ALAT       =    10.5600004196
 C/A-ratio  =     1.8939393187
  
  Lattice vectors:
  
 A1 = (  10.5600004196,   0.0000000000,   0.0000000000)
 A2 = (  -5.2800002098,   9.1452286274,   0.0000000000)
 A3 = (   0.0000000000,   0.0000000000,  20.0000000000)


Analysis of symmetry for initial positions (statically):
=====================================================================
 Subroutine PRICEL returns:
 Original cell was already a primitive cell.
 

 Routine SETGRP: Setting up the symmetry group for a 
 hexagonal supercell.


 Subroutine GETGRP returns: Found  1 space group operations
 (whereof  1 operations were pure point group operations)
 out of a pool of 24 trial point group operations.


The static configuration has the point symmetry C_1 .


Analysis of symmetry for dynamics (positions and initial velocities):
=====================================================================
 Subroutine PRICEL returns:
 Original cell was already a primitive cell.
 

 Routine SETGRP: Setting up the symmetry group for a 
 hexagonal supercell.


 Subroutine GETGRP returns: Found  1 space group operations
 (whereof  1 operations were pure point group operations)
 out of a pool of 24 trial point group operations.


The dynamic configuration has the point symmetry C_1 .


Analysis of constrained symmetry for selective dynamics:
=====================================================================
 Subroutine PRICEL returns:
 Original cell was already a primitive cell.
 

 Routine SETGRP: Setting up the symmetry group for a 
 hexagonal supercell.


 Subroutine GETGRP returns: Found  1 space group operations
 (whereof  1 operations were pure point group operations)
 out of a pool of 24 trial point group operations.


The constrained configuration has the point symmetry C_1 .


Analysis of structural, dynamic, and magnetic symmetry:
=====================================================================
 Subroutine PRICEL returns:
 Original cell was already a primitive cell.
 

 Routine SETGRP: Setting up the symmetry group for a 
 hexagonal supercell.


 Subroutine GETGRP returns: Found  1 space group operations
 (whereof  1 operations were pure point group operations)
 out of a pool of 24 trial point group operations.


The magnetic configuration has the point symmetry C_1 .


 Subroutine INISYM returns: Found  1 space group operations
 (whereof  1 operations are pure point group operations),
 and found     1 'primitive' translations

 
 
 KPOINTS: mesh auto                               

Automatic generation of k-mesh.
Space group operators:
 irot       det(A)        alpha          n_x          n_y          n_z        tau_x        tau_y        tau_z
    1     1.000000     0.000000     1.000000     0.000000     0.000000     0.000000     0.000000     0.000000
 
 Subroutine IBZKPT returns following result:
 ===========================================
 
 Found      4 irreducible k-points:
 
 Following reciprocal coordinates:
            Coordinates               Weight
  0.000000  0.000000  0.000000      1.000000
  0.500000 -0.000000  0.000000      1.000000
  0.000000  0.500000  0.000000      1.000000
  0.500000  0.500000  0.000000      1.000000
 
 Following cartesian coordinates:
            Coordinates               Weight
  0.000000  0.000000  0.000000      1.000000
  0.047348  0.027337  0.000000      1.000000
  0.000000  0.054673  0.000000      1.000000
  0.047348  0.082010  0.000000      1.000000
 
 TETIRR: Found     12 inequivalent tetrahedra from       24
 
 Subroutine IBZKPT_HF returns following result:
 ==============================================
 
 Found      4 k-points in 1st BZ
 the following      4 k-points will be used (e.g. in the exchange kernel)
 Following reciprocal coordinates:   # in IRBZ
  0.000000  0.000000  0.000000    0.25000000   1 t-inv F
  0.500000 -0.000000  0.000000    0.25000000   2 t-inv F
  0.000000  0.500000  0.000000    0.25000000   3 t-inv F
  0.500000  0.500000  0.000000    0.25000000   4 t-inv F


--------------------------------------------------------------------------------------------------------




 Dimension of arrays:
   k-points           NKPTS =      4   k-points in BZ     NKDIM =      4   number of bands    NBANDS=    480
   number of dos      NEDOS =    301   number of ions     NIONS =     66
   non local maximal  LDIM  =      6   non local SUM 2l+1 LMDIM =     18
   total plane-waves  NPLWV = ******
   max r-space proj   IRMAX =   8171   max aug-charges    IRDMAX=  35597
   dimension x,y,z NGX =    84 NGY =   84 NGZ =  160
   dimension x,y,z NGXF=   168 NGYF=  168 NGZF=  320
   support grid    NGXF=   168 NGYF=  168 NGZF=  320
   ions per type =              64   2
   NGX,Y,Z   is equivalent  to a cutoff of  13.22, 13.22, 13.30 a.u.
   NGXF,Y,Z  is equivalent  to a cutoff of  26.45, 26.45, 26.60 a.u.

 SYSTEM =  Pt111                                   
 POSCAR =  Pt   H                                  

 Startparameter for this run:
   NWRITE =      2    write-flag & timer
   PREC   = accura    normal or accurate (medium, high low for compatibility)
   ISTART =      0    job   : 0-new  1-cont  2-samecut
   ICHARG =      2    charge: 1-file 2-atom 10-const
   ISPIN  =      2    spin polarized calculation?
   LNONCOLLINEAR =      F non collinear calculations
   LSORBIT =      F    spin-orbit coupling
   INIWAV =      1    electr: 0-lowe 1-rand  2-diag
   LASPH  =      F    aspherical Exc in radial PAW
   METAGGA=      F    non-selfconsistent MetaGGA calc.

 Electronic Relaxation 1
   ENCUT  =  550.0 eV  40.42 Ry    6.36 a.u.  20.19 20.19 38.24*2*pi/ulx,y,z
   ENINI  =  550.0     initial cutoff
   ENAUG  =  400.0 eV  augmentation charge cutoff
   NELM   =    200;   NELMIN=  2; NELMDL= -5     # of ELM steps 
   EDIFF  = 0.1E-04   stopping-criterion for ELM
   LREAL  =      T    real-space projection
   NLSPLINE    = F    spline interpolate recip. space projectors
   LCOMPAT=      F    compatible to vasp.4.4
   GGA_COMPAT  = T    GGA compatible to vasp.4.4-vasp.4.6
   LMAXPAW     = -100 max onsite density
   LMAXMIX     =    2 max onsite mixed and CHGCAR
   VOSKOWN=      0    Vosko Wilk Nusair interpolation
   ROPT   =   -0.00025  -0.00025
 Ionic relaxation
   EDIFFG = -.5E-01   stopping-criterion for IOM
   NSW    =    829    number of steps for IOM
   NBLOCK =      1;   KBLOCK =    829    inner block; outer block 
   IBRION =      5    ionic relax: 0-MD 1-quasi-New 2-CG
   NFREE  =      2    steps in history (QN), initial steepest desc. (CG)
   ISIF   =      2    stress and relaxation
   IWAVPR =     11    prediction:  0-non 1-charg 2-wave 3-comb
   ISYM   =      2    0-nonsym 1-usesym 2-fastsym
   LCORR  =      T    Harris-Foulkes like correction to forces

   POTIM  = 0.5000    time-step for ionic-motion
   TEIN   =    0.0    initial temperature
   TEBEG  =    0.0;   TEEND  =   0.0 temperature during run
   SMASS  =  -3.00    Nose mass-parameter (am)
   estimated Nose-frequenzy (Omega)   =  0.10E-29 period in steps =****** mass=  -0.255E-26a.u.
   SCALEE = 1.0000    scale energy and forces
   NPACO  =    256;   APACO  = 16.0  distance and # of slots for P.C.
   PSTRESS=    0.0 pullay stress

  Mass of Ions in am
   POMASS = 195.08  1.00
  Ionic Valenz
   ZVAL   =  10.00  1.00
  Atomic Wigner-Seitz radii
   RWIGS  =  -1.00 -1.00
  virtual crystal weights 
   VCA    =   1.00  1.00
   NELECT =     642.0000    total number of electrons
   NUPDOWN=      -1.0000    fix difference up-down

 DOS related values:
   EMIN   =  10.00;   EMAX   =-10.00  energy-range for DOS
   EFERMI =   0.00
   ISMEAR =    -5;   SIGMA  =   0.10  broadening in eV -4-tet -1-fermi 0-gaus

 Electronic relaxation 2 (details)
   IALGO  =     68    algorithm
   LDIAG  =      T    sub-space diagonalisation (order eigenvalues)
   LSUBROT=      F    optimize rotation matrix (better conditioning)
   TURBO    =      0    0=normal 1=particle mesh
   IRESTART =      0    0=no restart 2=restart with 2 vectors
   NREBOOT  =      0    no. of reboots
   NMIN     =      0    reboot dimension
   EREF     =   0.00    reference energy to select bands
   IMIX   =      4    mixing-type and parameters
     AMIX     =   0.40;   BMIX     =  1.00
     AMIX_MAG =   1.60;   BMIX_MAG =  1.00
     AMIN     =   0.10
     WC   =   100.;   INIMIX=   1;  MIXPRE=   1;  MAXMIX= -45

 Intra band minimization:
   WEIMIN = 0.0010     energy-eigenvalue tresh-hold
   EBREAK =  0.52E-08  absolut break condition
   DEPER  =   0.30     relativ break condition  

   TIME   =   0.40     timestep for ELM

  volume/ion in A,a.u.               =      29.26       197.49
  Fermi-wavevector in a.u.,A,eV,Ry     =   1.134028  2.143002 17.497349  1.286019
  Thomas-Fermi vector in A             =   2.270731
 
 Write flags
   LWAVE        =      F    write WAVECAR
   LDOWNSAMPLE  =      F    k-point downsampling of WAVECAR
   LCHARG       =      F    write CHGCAR
   LVTOT        =      F    write LOCPOT, total local potential
   LVHAR        =      F    write LOCPOT, Hartree potential only
   LELF         =      F    write electronic localiz. function (ELF)
   LORBIT       =      0    0 simple, 1 ext, 2 COOP (PROOUT), +10 PAW based schemes


 Dipole corrections
   LMONO  =      F    monopole corrections only (constant potential shift)
   LDIPOL =      F    correct potential (dipole corrections)
   IDIPOL =      0    1-x, 2-y, 3-z, 4-all directions 
   EPSILON=  1.0000000 bulk dielectric constant

 Exchange correlation treatment:
   GGA     =    --    GGA type
   LEXCH   =     8    internal setting for exchange type
   VOSKOWN=      0    Vosko Wilk Nusair interpolation
   LHFCALC =     F    Hartree Fock is set to
   LHFONE  =     F    Hartree Fock one center treatment
   AEXX    =    0.0000 exact exchange contribution

 Linear response parameters
   LEPSILON=     F    determine dielectric tensor
   LRPA    =     F    only Hartree local field effects (RPA)
   LNABLA  =     F    use nabla operator in PAW spheres
   LVEL    =     F    velocity operator in full k-point grid
   LINTERFAST=   F  fast interpolation
   KINTER  =     0    interpolate to denser k-point grid
   CSHIFT  =0.1000    complex shift for real part using Kramers Kronig
   OMEGAMAX=  -1.0    maximum frequency
   DEG_THRESHOLD= 0.2000000E-02 threshold for treating states as degnerate
   RTIME   =   -0.100 relaxation time in fs
  (WPLASMAI=    0.000 imaginary part of plasma frequency in eV, 0.658/RTIME)
   DFIELD  = 0.0000000 0.0000000 0.0000000 field for delta impulse in time
 
 Orbital magnetization related:
   ORBITALMAG=     F  switch on orbital magnetization
   LCHIMAG   =     F  perturbation theory with respect to B field
   DQ        =  0.001000  dq finite difference perturbation B field
   LLRAUG    =     F  two centre corrections for induced B field



--------------------------------------------------------------------------------------------------------


 finite differences
   using selective dynamics as specified on POSCAR
   WARNING: If single coordinates had been selected the selection of coordinates
            is made according to the corresponding   d i r e c t   coordinates!
            Don't support selection of single cartesian coordinates -- sorry ...
  !
 charge density and potential will be updated during run
 spin polarized calculation
 RMM-DIIS sequential band-by-band and
  variant of blocked Davidson during initial phase
 perform sub-space diagonalisation
    before iterative eigenvector-optimisation
 modified Broyden-mixing scheme, WC =      100.0
 initial mixing is a Kerker type mixing with AMIX =  0.4000 and BMIX =      1.0000
 Hartree-type preconditioning will be used
 using additional bands          159
 real space projection scheme for non local part
 use partial core corrections
 calculate Harris-corrections to forces 
   (improved forces if not selfconsistent)
 use gradient corrections 
 use of overlap-Matrix (Vanderbilt PP)
 Fermi weights with tetrahedron method with Bloechl corrections


--------------------------------------------------------------------------------------------------------


  energy-cutoff  :      550.00
  volume of cell :     1931.47
      direct lattice vectors                 reciprocal lattice vectors
    10.560000420  0.000000000  0.000000000     0.094696966  0.054673319  0.000000000
    -5.280000210  9.145228627  0.000000000     0.000000000  0.109346638  0.000000000
     0.000000000  0.000000000 20.000000000     0.000000000  0.000000000  0.050000000

  length of vectors
    10.560000420 10.560000420 20.000000000     0.109346638  0.109346638  0.050000000


 
 k-points in units of 2pi/SCALE and weight: mesh auto                               
   0.00000000  0.00000000  0.00000000       0.250
   0.04734848  0.02733666  0.00000000       0.250
   0.00000000  0.05467332  0.00000000       0.250
   0.04734848  0.08200998  0.00000000       0.250
 
 k-points in reciprocal lattice and weights: mesh auto                               
   0.00000000  0.00000000  0.00000000       0.250
   0.50000000 -0.00000000  0.00000000       0.250
   0.00000000  0.50000000  0.00000000       0.250
   0.50000000  0.50000000  0.00000000       0.250
 
 position of ions in fractional coordinates (direct lattice) 
   0.99999844  0.00000156  0.05579229
   0.33363383  0.16803011  0.17946665
   0.16795463  0.33302971  0.30582455
   0.00004972  0.00053597  0.41643604
   0.99999844  0.25000155  0.05579229
   0.33366285  0.41637953  0.18635656
   0.16899895  0.08646257  0.30023047
   0.99943635  0.24969892  0.42017963
   0.24999844  0.25000155  0.05579229
   0.08490138  0.41611868  0.17820686
   0.41674033  0.08400203  0.29670336
   0.24792415  0.24824524  0.43811915
   0.24999844  0.00000156  0.05579229
   0.08535050  0.16800659  0.17969652
   0.41597613  0.33418463  0.30658857
   0.24948136  0.99983144  0.41842806
   0.49999844  0.00000156  0.05579229
   0.83405222  0.16666058  0.17733967
   0.66606135  0.33332959  0.29644325
   0.49987338  0.99992344  0.41809225
   0.49999843  0.25000155  0.05579229
   0.83319024  0.41608450  0.17585127
   0.66651709  0.08345914  0.29674635
   0.49981558  0.24989796  0.41883235
   0.74999841  0.25000155  0.05579229
   0.58200009  0.41643130  0.17936719
   0.91704995  0.08362227  0.29658704
   0.74975658  0.24985713  0.41804894
   0.74999842  0.00000156  0.05579229
   0.58308585  0.16692487  0.17679109
   0.91730409  0.33288507  0.29623173
   0.74962909  0.00009634  0.41821009
   0.99999844  0.50000154  0.05579229
   0.33399481  0.66520058  0.17829819
   0.16757131  0.83418950  0.29344485
   0.99942751  0.50007549  0.41561330
   0.99999843  0.75000151  0.05579229
   0.33397764  0.91689624  0.17610526
   0.16804856  0.58209426  0.29644600
   0.99949638  0.75016149  0.41139753
   0.24999843  0.75000151  0.05579229
   0.08431491  0.91805404  0.17562302
   0.41698852  0.58209428  0.30602462
   0.24964880  0.75028169  0.41603924
   0.24999844  0.50000154  0.05579229
   0.08390243  0.66628258  0.17465860
   0.41712671  0.83267807  0.29645022
   0.24871649  0.50081960  0.42571828
   0.49999844  0.50000154  0.05579229
   0.83194870  0.66575949  0.17561893
   0.66635418  0.83288719  0.29688258
   0.50110069  0.50164754  0.43847791
   0.49999843  0.75000151  0.05579229
   0.83312567  0.91682393  0.17548466
   0.66358679  0.58115957  0.30044762
   0.50000514  0.75022536  0.42046228
   0.74999841  0.75000151  0.05579229
   0.58333181  0.91594072  0.17738703
   0.91591582  0.58253361  0.29316228
   0.74916518  0.74961778  0.41703361
   0.74999839  0.50000154  0.05579229
   0.58199751  0.66467597  0.18000667
   0.91610561  0.83374642  0.29275709
   0.74975907  0.50019174  0.41810082
   0.35479173  0.40029550  0.52086656
   0.39625377  0.35056888  0.52107181
 
 position of ions in cartesian coordinates  (Angst):
  10.55997578  0.00001422  1.11584590
   2.63597435  1.53667375  3.58933291
   0.01520402  3.04563284  6.11649105
  -0.00230488  0.00490153  8.32872089
   9.23997574  2.28632132  1.11584590
   1.32499582  3.80788598  3.72713120
   1.32810657  0.79071996  6.00460934
   9.23563786  2.28355374  8.40359251
   1.31997542  2.28632132  1.11584590
  -1.30054810  3.80550043  3.56413714
   3.95724736  0.76821778  5.93406723
   1.30734416  2.27025951  8.76238294
   2.63997547  0.00001422  1.11584590
   0.01422646  1.53645865  3.59393045
   2.62821324  3.05619483  6.13177143
  -2.64458693  9.14368708  8.36856129
   5.27997557  0.00001422  1.11584590
   7.92762386  1.52414912  3.54679344
   5.27362783  3.04837535  5.92886496
  -0.00093287  9.14452851  8.36184501
   3.95997540  2.28632132  1.11584590
   6.60156311  3.80518784  3.51702541
   6.59775650  0.76325287  5.93492703
   3.95859140  2.28537399  8.37664704
   6.59997527  2.28632132  1.11584590
   3.94716380  3.80835948  3.58734377
   9.24252225  0.76474475  5.93174085
   6.59818413  2.28500059  8.36097882
   7.91997543  0.00001422  1.11584590
   5.27602351  1.52656608  3.53582174
   7.92909827  3.04431010  5.92463462
   7.91557486  0.00088107  8.36420188
   7.91997567  4.57262842  1.11584590
   0.01472613  6.08341137  3.56596372
  -2.63496764  7.62885368  5.86889700
   7.91355623  4.57330467  8.31226594
   6.59997574  6.85893527  1.11584590
  -1.31440825  8.38522570  3.52210523
  -1.29886498  5.32338508  5.92892005
   6.59382940  6.86039835  8.22795065
  -1.32002457  6.85893527  1.11584590
  -3.95696001  8.39581405  3.51246031
   1.32994100  5.32338526  6.12049249
  -1.32519607  6.86149758  8.32078471
  -0.00002464  4.57262842  1.11584590
  -2.63196250  6.09330651  3.49317203
   0.00831785  7.61503134  5.92900450
  -0.01788132  4.58010973  8.51436565
   2.63997546  4.57262842  1.11584590
   5.27016837  6.08852274  3.51237852
   2.63905588  7.61694374  5.93765155
   2.64292439  4.58768144  8.76955819
   1.31997553  6.85893527  1.11584590
   3.95697687  8.38456447  3.50969313
   3.93895406  5.31483717  6.00895248
   1.31886439  6.86098247  8.40924563
   3.95997540  6.85893527  1.11584590
   1.32381693  8.37648732  3.54774056
   6.59629386  5.32740307  5.86324560
   3.95320263  6.85542599  8.34067223
   5.27997509  4.57262842  1.11584590
   2.63640472  6.07861367  3.60013333
   5.27189438  7.62480164  5.85514188
   5.27644360  4.57436780  8.36201643
   1.63304052  3.66079389 10.41733115
   2.33343626  3.20603252 10.42143622
 


--------------------------------------------------------------------------------------------------------


 k-point  1 :   0.0000 0.0000 0.0000  plane waves:   56579
 k-point  2 :   0.5000-0.0000 0.0000  plane waves:   56606
 k-point  3 :   0.0000 0.5000 0.0000  plane waves:   56606
 k-point  4 :   0.5000 0.5000 0.0000  plane waves:   56606

 maximum and minimum number of plane-waves per node :     56606    56579

 maximum number of plane-waves:     56606
 maximum index in each direction: 
   IXMAX=   20   IYMAX=   20   IZMAX=   38
   IXMIN=  -20   IYMIN=  -20   IZMIN=  -38


 serial   3D FFT for wavefunctions
 parallel 3D FFT for charge:
    minimum data exchange during FFTs selected (reduces bandwidth)


 total amount of memory used by VASP MPI-rank0   335945. kBytes
=======================================================================

   base      :      30000. kBytes
   nonlr-proj:      89563. kBytes
   fftplans  :      13334. kBytes
   grid      :     112154. kBytes
   one-center:       2052. kBytes
   wavefun   :      88842. kBytes
 
     INWAV:  cpu time    0.0000: real time    0.0000
 Broyden mixing: mesh for mixing (old mesh)
   NGX = 41   NGY = 41   NGZ = 77
  (NGX  =168   NGY  =168   NGZ  =320)
  gives a total of 129437 points

 initial charge density was supplied:
 charge density of overlapping atoms calculated
 number of electron     642.0000000 magnetization     130.0000000
 keeping initial charge density in first step


--------------------------------------------------------------------------------------------------------


 Maximum index for non-local projection operator         7923
 Maximum index for augmentation-charges         2181 (set IRDMAX)


--------------------------------------------------------------------------------------------------------


 First call to EWALD:  gamma=   0.142
 Maximum number of real-space cells 4x 4x 2
 Maximum number of reciprocal cells 2x 2x 4

    FEWALD:  cpu time    0.0050: real time    0.0050


--------------------------------------- Iteration      1(   1)  ---------------------------------------


    POTLOK:  cpu time    0.6318: real time    0.6723
    SETDIJ:  cpu time    0.0579: real time    0.0584
     EDDAV:  cpu time   56.3990: real time   56.9795
 BZINTS: Fermi energy: 13.990369;642.000000 electrons
         Band energy:4679.575293;  BLOECHL correction: -0.005395
       DOS:  cpu time    0.0198: real time    0.0199
    --------------------------------------------
      LOOP:  cpu time   57.1085: real time   57.7302

 eigenvalue-minimisations  :  7680
 total energy-change (2. order) : 0.4348804E+04  (-0.3121491E+05)
 number of electron     642.0000000 magnetization     130.0000000
 augmentation part      642.0000000 magnetization     130.0000000

 Free energy of the ion-electron system (eV)
  ---------------------------------------------------
  alpha Z        PSCENC =      2023.78361127
  Ewald energy   TEWEN  =    124341.96180425
  -Hartree energ DENC   =   -175457.37313174
  -exchange      EXHF   =         0.00000000
  -V(xc)+E(xc)   XCENC  =       263.44876233
  PAW double counting   =     44535.65345321   -42726.61560978
  entropy T*S    EENTRO =         0.00000000
  eigenvalues    EBANDS =      4679.57529305
  atomic energy  EATOM  =     46688.37031544
  Solvation  Ediel_sol  =         0.00000000
  ---------------------------------------------------
  free energy    TOTEN  =      4348.80449804 eV

  energy without entropy =     4348.80449804  energy(sigma->0) =     4348.80449804


--------------------------------------------------------------------------------------------------------




--------------------------------------- Iteration      1(   2)  ---------------------------------------


     EDDAV:  cpu time   60.4239: real time   60.5681
 BZINTS: Fermi energy:  4.268759;642.000000 electrons
         Band energy: 154.845289;  BLOECHL correction: -0.582480
       DOS:  cpu time    0.0194: real time    0.0195
    --------------------------------------------
      LOOP:  cpu time   60.4433: real time   60.5876

 eigenvalue-minimisations  :  8480
 total energy-change (2. order) :-0.4524730E+04  (-0.4143792E+04)
 number of electron     642.0000000 magnetization     130.0000000
 augmentation part      642.0000000 magnetization     130.0000000

 Free energy of the ion-electron system (eV)
  ---------------------------------------------------
  alpha Z        PSCENC =      2023.78361127
  Ewald energy   TEWEN  =    124341.96180425
  -Hartree energ DENC   =   -175457.37313174
  -exchange      EXHF   =         0.00000000
  -V(xc)+E(xc)   XCENC  =       263.44876233
  PAW double counting   =     44535.65345321   -42726.61560978
  entropy T*S    EENTRO =         0.00000000
  eigenvalues    EBANDS =       154.84528872
  atomic energy  EATOM  =     46688.37031544
  Solvation  Ediel_sol  =         0.00000000
  ---------------------------------------------------
  free energy    TOTEN  =      -175.92550630 eV

  energy without entropy =     -175.92550630  energy(sigma->0) =     -175.92550630


--------------------------------------------------------------------------------------------------------




--------------------------------------- Iteration      1(   3)  ---------------------------------------


     EDDAV:  cpu time   60.1307: real time   60.2736
 BZINTS: Fermi energy:  3.799132;642.000000 electrons
         Band energy: -37.513729;  BLOECHL correction: -0.800957
       DOS:  cpu time    0.0217: real time    0.0217
    --------------------------------------------
      LOOP:  cpu time   60.1524: real time   60.2953

 eigenvalue-minimisations  :  8720
 total energy-change (2. order) :-0.1923590E+03  (-0.1856691E+03)
 number of electron     642.0000000 magnetization     130.0000000
 augmentation part      642.0000000 magnetization     130.0000000

 Free energy of the ion-electron system (eV)
  ---------------------------------------------------
  alpha Z        PSCENC =      2023.78361127
  Ewald energy   TEWEN  =    124341.96180425
  -Hartree energ DENC   =   -175457.37313174
  -exchange      EXHF   =         0.00000000
  -V(xc)+E(xc)   XCENC  =       263.44876233
  PAW double counting   =     44535.65345321   -42726.61560978
  entropy T*S    EENTRO =         0.00000000
  eigenvalues    EBANDS =       -37.51372864
  atomic energy  EATOM  =     46688.37031544
  Solvation  Ediel_sol  =         0.00000000
  ---------------------------------------------------
  free energy    TOTEN  =      -368.28452366 eV

  energy without entropy =     -368.28452366  energy(sigma->0) =     -368.28452366


--------------------------------------------------------------------------------------------------------




--------------------------------------- Iteration      1(   4)  ---------------------------------------


     EDDAV:  cpu time   62.5334: real time   62.6818
 BZINTS: Fermi energy:  3.789786;642.000000 electrons
         Band energy: -40.779482;  BLOECHL correction: -0.799518
       DOS:  cpu time    0.0213: real time    0.0214
    --------------------------------------------
      LOOP:  cpu time   62.5548: real time   62.7032

 eigenvalue-minimisations  :  9120
 total energy-change (2. order) :-0.3265753E+01  (-0.3259998E+01)
 number of electron     642.0000000 magnetization     130.0000000
 augmentation part      642.0000000 magnetization     130.0000000

 Free energy of the ion-electron system (eV)
  ---------------------------------------------------
  alpha Z        PSCENC =      2023.78361127
  Ewald energy   TEWEN  =    124341.96180425
  -Hartree energ DENC   =   -175457.37313174
  -exchange      EXHF   =         0.00000000
  -V(xc)+E(xc)   XCENC  =       263.44876233
  PAW double counting   =     44535.65345321   -42726.61560978
  entropy T*S    EENTRO =         0.00000000
  eigenvalues    EBANDS =       -40.77948214
  atomic energy  EATOM  =     46688.37031544
  Solvation  Ediel_sol  =         0.00000000
  ---------------------------------------------------
  free energy    TOTEN  =      -371.55027715 eV

  energy without entropy =     -371.55027715  energy(sigma->0) =     -371.55027715


--------------------------------------------------------------------------------------------------------




--------------------------------------- Iteration      1(   5)  ---------------------------------------


     EDDAV:  cpu time   60.7548: real time   60.9000
 BZINTS: Fermi energy:  3.789533;642.000000 electrons
         Band energy: -40.859709;  BLOECHL correction: -0.799339
       DOS:  cpu time    0.0209: real time    0.0210
    CHARGE:  cpu time    2.6282: real time    2.6346
    MIXING:  cpu time    0.0122: real time    0.0130
    --------------------------------------------
      LOOP:  cpu time   63.4161: real time   63.5686

 eigenvalue-minimisations  :  8760
 total energy-change (2. order) :-0.8022717E-01  (-0.8027015E-01)
 number of electron     642.0000079 magnetization     117.6100732
 augmentation part      185.4730688 magnetization      92.9724199

 Broyden mixing:
  rms(total) = 0.11238E+02    rms(broyden)= 0.11238E+02
  rms(prec ) = 0.11331E+02
  weight for this iteration     100.00

 Free energy of the ion-electron system (eV)
  ---------------------------------------------------
  alpha Z        PSCENC =      2023.78361127
  Ewald energy   TEWEN  =    124341.96180425
  -Hartree energ DENC   =   -175457.37313174
  -exchange      EXHF   =         0.00000000
  -V(xc)+E(xc)   XCENC  =       263.44876233
  PAW double counting   =     44535.65345321   -42726.61560978
  entropy T*S    EENTRO =         0.00000000
  eigenvalues    EBANDS =       -40.85970931
  atomic energy  EATOM  =     46688.37031544
  Solvation  Ediel_sol  =         0.00000000
  ---------------------------------------------------
  free energy    TOTEN  =      -371.63050433 eV

  energy without entropy =     -371.63050433  energy(sigma->0) =     -371.63050433


--------------------------------------------------------------------------------------------------------




--------------------------------------- Iteration      1(   6)  ---------------------------------------


    POTLOK:  cpu time    0.5045: real time    0.5057
    SETDIJ:  cpu time    0.0457: real time    0.0458
    EDDIAG:  cpu time    8.1310: real time    8.1510
  RMM-DIIS:  cpu time   33.3758: real time   33.4560
    ORTHCH:  cpu time    1.2717: real time    1.2747
 BZINTS: Fermi energy:  2.899904;642.000000 electrons
         Band energy:-519.893698;  BLOECHL correction: -0.133928
       DOS:  cpu time    0.0218: real time    0.0218
    CHARGE:  cpu time    2.5847: real time    2.5908
    MIXING:  cpu time    0.0108: real time    0.0111
    --------------------------------------------
      LOOP:  cpu time   45.9461: real time   46.0571

 eigenvalue-minimisations  :  7710
 total energy-change (2. order) : 0.6427717E+02  (-0.1058857E+02)
 number of electron     642.0000080 magnetization     102.4488389
 augmentation part      196.6051466 magnetization      78.7411927

 Broyden mixing:
  rms(total) = 0.72444E+01    rms(broyden)= 0.72444E+01
  rms(prec ) = 0.74718E+01
  weight for this iteration     100.00

 eigenvalues of (default mixing * dielectric matrix)
  average eigenvalue GAMMA=   1.0011
  1.0011

 Free energy of the ion-electron system (eV)
  ---------------------------------------------------
  alpha Z        PSCENC =      2023.78361127
  Ewald energy   TEWEN  =    124341.96180425
  -Hartree energ DENC   =   -174813.27009703
  -exchange      EXHF   =         0.00000000
  -V(xc)+E(xc)   XCENC  =       270.87241487
  PAW double counting   =     50884.81178872   -49183.98947565
  entropy T*S    EENTRO =         0.00000000
  eigenvalues    EBANDS =      -519.89369781
  atomic energy  EATOM  =     46688.37031544
  Solvation  Ediel_sol  =         0.00000000
  ---------------------------------------------------
  free energy    TOTEN  =      -307.35333593 eV

  energy without entropy =     -307.35333593  energy(sigma->0) =     -307.35333593


--------------------------------------------------------------------------------------------------------




--------------------------------------- Iteration      1(   7)  ---------------------------------------


    POTLOK:  cpu time    0.5030: real time    0.5042
    SETDIJ:  cpu time    0.0454: real time    0.0455
    EDDIAG:  cpu time    8.1538: real time    8.1734
  RMM-DIIS:  cpu time   32.6103: real time   32.6876
    ORTHCH:  cpu time    1.4496: real time    1.4530
 BZINTS: Fermi energy:  4.400961;642.000000 electrons
         Band energy:  51.597762;  BLOECHL correction: -0.180562
       DOS:  cpu time    0.0213: real time    0.0214
    CHARGE:  cpu time    2.5979: real time    2.6042
    MIXING:  cpu time    0.0120: real time    0.0121
    --------------------------------------------
      LOOP:  cpu time   45.3935: real time   45.5013

 eigenvalue-minimisations  :  7695
 total energy-change (2. order) :-0.6623519E+02  (-0.7840323E+01)
 number of electron     642.0000088 magnetization      92.9384704
 augmentation part      194.9025683 magnetization      67.8092007

 Broyden mixing:
  rms(total) = 0.86507E+01    rms(broyden)= 0.86507E+01
  rms(prec ) = 0.10393E+02
  weight for this iteration     100.00

 eigenvalues of (default mixing * dielectric matrix)
  average eigenvalue GAMMA=   0.9151
  1.3836  0.4466

 Free energy of the ion-electron system (eV)
  ---------------------------------------------------
  alpha Z        PSCENC =      2023.78361127
  Ewald energy   TEWEN  =    124341.96180425
  -Hartree energ DENC   =   -175399.44369087
  -exchange      EXHF   =         0.00000000
  -V(xc)+E(xc)   XCENC  =       272.97387536
  PAW double counting   =     56308.59336202   -54661.42556221
  entropy T*S    EENTRO =         0.00000000
  eigenvalues    EBANDS =        51.59776249
  atomic energy  EATOM  =     46688.37031544
  Solvation  Ediel_sol  =         0.00000000
  ---------------------------------------------------
  free energy    TOTEN  =      -373.58852226 eV

  energy without entropy =     -373.58852226  energy(sigma->0) =     -373.58852226


--------------------------------------------------------------------------------------------------------




--------------------------------------- Iteration      1(   8)  ---------------------------------------


    POTLOK:  cpu time    0.5020: real time    0.5032
    SETDIJ:  cpu time    0.0457: real time    0.0458
    EDDIAG:  cpu time    8.1749: real time    8.1945
  RMM-DIIS:  cpu time   33.2871: real time   33.3668
    ORTHCH:  cpu time    1.2675: real time    1.2705
 BZINTS: Fermi energy:  3.136700;642.000000 electrons
         Band energy:-290.706151;  BLOECHL correction: -0.187104
       DOS:  cpu time    0.0220: real time    0.0221
    CHARGE:  cpu time    2.5789: real time    2.5851
    MIXING:  cpu time    0.0124: real time    0.0124
    --------------------------------------------
      LOOP:  cpu time   45.8905: real time   46.0003

 eigenvalue-minimisations  :  7714
 total energy-change (2. order) : 0.9153857E+02  (-0.4688603E+01)
 number of electron     642.0000080 magnetization      81.2175473
 augmentation part      199.0366944 magnetization      58.7340157

 Broyden mixing:
  rms(total) = 0.34259E+01    rms(broyden)= 0.34259E+01
  rms(prec ) = 0.36811E+01
  weight for this iteration     100.00

 eigenvalues of (default mixing * dielectric matrix)
  average eigenvalue GAMMA=   1.0209
  2.1124  0.6619  0.2882

 Free energy of the ion-electron system (eV)
  ---------------------------------------------------
  alpha Z        PSCENC =      2023.78361127
  Ewald energy   TEWEN  =    124341.96180425
  -Hartree energ DENC   =   -174944.30861509
  -exchange      EXHF   =         0.00000000
  -V(xc)+E(xc)   XCENC  =       282.09887505
  PAW double counting   =     59088.41825294   -57471.66804784
  entropy T*S    EENTRO =         0.00000000
  eigenvalues    EBANDS =      -290.70615130
  atomic energy  EATOM  =     46688.37031544
  Solvation  Ediel_sol  =         0.00000000
  ---------------------------------------------------
  free energy    TOTEN  =      -282.04995528 eV

  energy without entropy =     -282.04995528  energy(sigma->0) =     -282.04995528


--------------------------------------------------------------------------------------------------------




--------------------------------------- Iteration      1(   9)  ---------------------------------------


    POTLOK:  cpu time    0.5022: real time    0.5033
    SETDIJ:  cpu time    0.0457: real time    0.0458
    EDDIAG:  cpu time    8.2130: real time    8.2342
  RMM-DIIS:  cpu time   32.9453: real time   33.0452
    ORTHCH:  cpu time    1.2621: real time    1.2667
 BZINTS: Fermi energy:  3.486412;642.000000 electrons
         Band energy:-147.102780;  BLOECHL correction: -0.140998
       DOS:  cpu time    0.0223: real time    0.0223
    CHARGE:  cpu time    2.5854: real time    2.5928
    MIXING:  cpu time    0.0125: real time    0.0125
    --------------------------------------------
      LOOP:  cpu time   45.5885: real time   45.7229

 eigenvalue-minimisations  :  7711
 total energy-change (2. order) :-0.2152424E+02  (-0.9221628E+00)
 number of electron     642.0000081 magnetization      78.3316565
 augmentation part      198.2895615 magnetization      57.1606787

 Broyden mixing:
  rms(total) = 0.40346E+01    rms(broyden)= 0.40346E+01
  rms(prec ) = 0.55367E+01
  weight for this iteration     100.00

 eigenvalues of (default mixing * dielectric matrix)
  average eigenvalue GAMMA=   0.8698
  2.1687  0.6877  0.3784  0.2444

 Free energy of the ion-electron system (eV)
  ---------------------------------------------------
  alpha Z        PSCENC =      2023.78361127
  Ewald energy   TEWEN  =    124341.96180425
  -Hartree energ DENC   =   -175082.79462092
  -exchange      EXHF   =         0.00000000
  -V(xc)+E(xc)   XCENC  =       273.26402313
  PAW double counting   =     61155.60259041   -59556.65913743
  entropy T*S    EENTRO =         0.00000000
  eigenvalues    EBANDS =      -147.10278029
  atomic energy  EATOM  =     46688.37031544
  Solvation  Ediel_sol  =         0.00000000
  ---------------------------------------------------
  free energy    TOTEN  =      -303.57419413 eV

  energy without entropy =     -303.57419413  energy(sigma->0) =     -303.57419413


--------------------------------------------------------------------------------------------------------




--------------------------------------- Iteration      1(  10)  ---------------------------------------


    POTLOK:  cpu time    0.5004: real time    0.5020
    SETDIJ:  cpu time    0.0459: real time    0.0460
    EDDIAG:  cpu time    8.2226: real time    8.2475
  RMM-DIIS:  cpu time   33.2685: real time   33.3498
    ORTHCH:  cpu time    1.2804: real time    1.2835
 BZINTS: Fermi energy:  3.507261;642.000000 electrons
         Band energy:-118.022271;  BLOECHL correction: -0.181964
       DOS:  cpu time    0.0214: real time    0.0214
    CHARGE:  cpu time    2.5875: real time    2.5936
    MIXING:  cpu time    0.0127: real time    0.0127
    --------------------------------------------
      LOOP:  cpu time   45.9393: real time   46.0564

 eigenvalue-minimisations  :  7723
 total energy-change (2. order) :-0.3933211E+01  (-0.4659150E+00)
 number of electron     642.0000084 magnetization      73.5250343
 augmentation part      198.2012593 magnetization      52.0088771

 Broyden mixing:
  rms(total) = 0.35488E+01    rms(broyden)= 0.35488E+01
  rms(prec ) = 0.50727E+01
  weight for this iteration     100.00

 eigenvalues of (default mixing * dielectric matrix)
  average eigenvalue GAMMA=   0.8024
  2.1966  0.8229  0.5991  0.2704  0.1232

 Free energy of the ion-electron system (eV)
  ---------------------------------------------------
  alpha Z        PSCENC =      2023.78361127
  Ewald energy   TEWEN  =    124341.96180425
  -Hartree energ DENC   =   -175111.18297133
  -exchange      EXHF   =         0.00000000
  -V(xc)+E(xc)   XCENC  =       269.78261608
  PAW double counting   =     61327.52350291   -59729.72401293
  entropy T*S    EENTRO =         0.00000000
  eigenvalues    EBANDS =      -118.02227050
  atomic energy  EATOM  =     46688.37031544
  Solvation  Ediel_sol  =         0.00000000
  ---------------------------------------------------
  free energy    TOTEN  =      -307.50740481 eV

  energy without entropy =     -307.50740481  energy(sigma->0) =     -307.50740481


--------------------------------------------------------------------------------------------------------




--------------------------------------- Iteration      1(  11)  ---------------------------------------


    POTLOK:  cpu time    0.5015: real time    0.5027
    SETDIJ:  cpu time    0.0457: real time    0.0459
    EDDIAG:  cpu time    8.2228: real time    8.2426
  RMM-DIIS:  cpu time   32.9352: real time   33.0155
    ORTHCH:  cpu time    1.2774: real time    1.2812
 BZINTS: Fermi energy:  3.467913;642.000000 electrons
         Band energy: -89.039979;  BLOECHL correction: -0.228181
       DOS:  cpu time    0.0225: real time    0.0228
    CHARGE:  cpu time    2.5745: real time    2.5823
    MIXING:  cpu time    0.0137: real time    0.0137
    --------------------------------------------
      LOOP:  cpu time   45.5933: real time   45.7066

 eigenvalue-minimisations  :  7713
 total energy-change (2. order) :-0.2254987E+01  (-0.5493542E+00)
 number of electron     642.0000081 magnetization      67.2149673
 augmentation part      197.7816255 magnetization      48.1553047

 Broyden mixing:
  rms(total) = 0.20306E+01    rms(broyden)= 0.20306E+01
  rms(prec ) = 0.23541E+01
  weight for this iteration     100.00

 eigenvalues of (default mixing * dielectric matrix)
  average eigenvalue GAMMA=   0.7980
  2.1350  1.2552  0.6591  0.3521  0.2756  0.1113

 Free energy of the ion-electron system (eV)
  ---------------------------------------------------
  alpha Z        PSCENC =      2023.78361127
  Ewald energy   TEWEN  =    124341.96180425
  -Hartree energ DENC   =   -175135.92423009
  -exchange      EXHF   =         0.00000000
  -V(xc)+E(xc)   XCENC  =       263.56649656
  PAW double counting   =     61408.45618677   -59810.93659732
  entropy T*S    EENTRO =         0.00000000
  eigenvalues    EBANDS =       -89.03997879
  atomic energy  EATOM  =     46688.37031544
  Solvation  Ediel_sol  =         0.00000000
  ---------------------------------------------------
  free energy    TOTEN  =      -309.76239190 eV

  energy without entropy =     -309.76239190  energy(sigma->0) =     -309.76239190


--------------------------------------------------------------------------------------------------------




--------------------------------------- Iteration      1(  12)  ---------------------------------------


    POTLOK:  cpu time    0.4999: real time    0.5018
    SETDIJ:  cpu time    0.0458: real time    0.0459
    EDDIAG:  cpu time    8.1289: real time    8.1532
  RMM-DIIS:  cpu time   33.1340: real time   33.2342
    ORTHCH:  cpu time    1.2798: real time    1.2835
 BZINTS: Fermi energy:  3.412282;642.000000 electrons
         Band energy:-116.960180;  BLOECHL correction: -0.152729
       DOS:  cpu time    0.0216: real time    0.0216
    CHARGE:  cpu time    2.5756: real time    2.5837
    MIXING:  cpu time    0.0140: real time    0.0141
    --------------------------------------------
      LOOP:  cpu time   45.6996: real time   45.8379

 eigenvalue-minimisations  :  7721
 total energy-change (2. order) :-0.9380863E+01  (-0.3836975E+00)
 number of electron     642.0000080 magnetization      62.9897176
 augmentation part      197.2470829 magnetization      44.7222909

 Broyden mixing:
  rms(total) = 0.19374E+01    rms(broyden)= 0.19374E+01
  rms(prec ) = 0.21126E+01
  weight for this iteration     100.00

 eigenvalues of (default mixing * dielectric matrix)
  average eigenvalue GAMMA=   0.7401
  2.1445  1.2878  0.6599  0.4757  0.2510  0.2510  0.1111

 Free energy of the ion-electron system (eV)
  ---------------------------------------------------
  alpha Z        PSCENC =      2023.78361127
  Ewald energy   TEWEN  =    124341.96180425
  -Hartree energ DENC   =   -175114.44793809
  -exchange      EXHF   =         0.00000000
  -V(xc)+E(xc)   XCENC  =       258.46472111
  PAW double counting   =     61137.11047689   -59537.42606585
  entropy T*S    EENTRO =         0.00000000
  eigenvalues    EBANDS =      -116.96018019
  atomic energy  EATOM  =     46688.37031544
  Solvation  Ediel_sol  =         0.00000000
  ---------------------------------------------------
  free energy    TOTEN  =      -319.14325517 eV

  energy without entropy =     -319.14325517  energy(sigma->0) =     -319.14325517


--------------------------------------------------------------------------------------------------------




--------------------------------------- Iteration      1(  13)  ---------------------------------------


    POTLOK:  cpu time    0.5034: real time    0.5046
    SETDIJ:  cpu time    0.0463: real time    0.0464
    EDDIAG:  cpu time    8.2982: real time    8.3240
  RMM-DIIS:  cpu time   33.1059: real time   33.2061
    ORTHCH:  cpu time    1.2771: real time    1.2807
 BZINTS: Fermi energy:  3.395684;642.000000 electrons
         Band energy:-122.431911;  BLOECHL correction: -0.087983
       DOS:  cpu time    0.0219: real time    0.0220
    CHARGE:  cpu time    2.5653: real time    2.5733
    MIXING:  cpu time    0.0147: real time    0.0147
    --------------------------------------------
      LOOP:  cpu time   45.8327: real time   45.9717

 eigenvalue-minimisations  :  7714
 total energy-change (2. order) :-0.3272088E+01  (-0.1241586E+00)
 number of electron     642.0000080 magnetization      53.7053487
 augmentation part      197.3013771 magnetization      36.9592537

 Broyden mixing:
  rms(total) = 0.15738E+01    rms(broyden)= 0.15738E+01
  rms(prec ) = 0.16580E+01
  weight for this iteration     100.00

 eigenvalues of (default mixing * dielectric matrix)
  average eigenvalue GAMMA=   0.7542
  2.2251  1.2520  0.7827  0.7827  0.3163  0.3163  0.2477  0.1108

 Free energy of the ion-electron system (eV)
  ---------------------------------------------------
  alpha Z        PSCENC =      2023.78361127
  Ewald energy   TEWEN  =    124341.96180425
  -Hartree energ DENC   =   -175109.13069426
  -exchange      EXHF   =         0.00000000
  -V(xc)+E(xc)   XCENC  =       255.87650622
  PAW double counting   =     61062.77338998   -59463.61836532
  entropy T*S    EENTRO =         0.00000000
  eigenvalues    EBANDS =      -122.43191078
  atomic energy  EATOM  =     46688.37031544
  Solvation  Ediel_sol  =         0.00000000
  ---------------------------------------------------
  free energy    TOTEN  =      -322.41534320 eV

  energy without entropy =     -322.41534320  energy(sigma->0) =     -322.41534320


--------------------------------------------------------------------------------------------------------




--------------------------------------- Iteration      1(  14)  ---------------------------------------


    POTLOK:  cpu time    0.4997: real time    0.5009
    SETDIJ:  cpu time    0.0459: real time    0.0460
    EDDIAG:  cpu time    8.1292: real time    8.1546
  RMM-DIIS:  cpu time   33.2091: real time   33.3096
    ORTHCH:  cpu time    1.2807: real time    1.2844
 BZINTS: Fermi energy:  3.378675;642.000000 electrons
         Band energy:-129.244751;  BLOECHL correction: -0.077291
       DOS:  cpu time    0.0223: real time    0.0223
    CHARGE:  cpu time    2.5635: real time    2.5714
    MIXING:  cpu time    0.0150: real time    0.0151
    --------------------------------------------
      LOOP:  cpu time   45.7654: real time   45.9043

 eigenvalue-minimisations  :  7714
 total energy-change (2. order) :-0.8806689E+01  (-0.2520998E+00)
 number of electron     642.0000080 magnetization      35.6854960
 augmentation part      197.4352441 magnetization      21.2507060

 Broyden mixing:
  rms(total) = 0.13764E+01    rms(broyden)= 0.13764E+01
  rms(prec ) = 0.14611E+01
  weight for this iteration     100.00

 eigenvalues of (default mixing * dielectric matrix)
  average eigenvalue GAMMA=   0.8103
  2.3115  1.7921  0.8899  0.8899  0.4537  0.3161  0.2733  0.2553  0.1109

 Free energy of the ion-electron system (eV)
  ---------------------------------------------------
  alpha Z        PSCENC =      2023.78361127
  Ewald energy   TEWEN  =    124341.96180425
  -Hartree energ DENC   =   -175102.76834549
  -exchange      EXHF   =         0.00000000
  -V(xc)+E(xc)   XCENC  =       250.20737238
  PAW double counting   =     61044.67527539   -59448.20731462
  entropy T*S    EENTRO =         0.00000000
  eigenvalues    EBANDS =      -129.24475064
  atomic energy  EATOM  =     46688.37031544
  Solvation  Ediel_sol  =         0.00000000
  ---------------------------------------------------
  free energy    TOTEN  =      -331.22203202 eV

  energy without entropy =     -331.22203202  energy(sigma->0) =     -331.22203202


--------------------------------------------------------------------------------------------------------




--------------------------------------- Iteration      1(  15)  ---------------------------------------


    POTLOK:  cpu time    0.5002: real time    0.5014
    SETDIJ:  cpu time    0.0458: real time    0.0459
    EDDIAG:  cpu time    8.5429: real time    8.5690
  RMM-DIIS:  cpu time   32.8450: real time   32.9447
    ORTHCH:  cpu time    1.2575: real time    1.2611
 BZINTS: Fermi energy:  3.345122;642.000000 electrons
         Band energy:-134.272584;  BLOECHL correction: -0.130946
       DOS:  cpu time    0.0220: real time    0.0221
    CHARGE:  cpu time    2.5593: real time    2.5672
    MIXING:  cpu time    0.0155: real time    0.0156
    --------------------------------------------
      LOOP:  cpu time   45.7883: real time   45.9269

 eigenvalue-minimisations  :  7692
 total energy-change (2. order) :-0.1909325E+02  (-0.1080298E+01)
 number of electron     642.0000081 magnetization      22.2931937
 augmentation part      197.4602350 magnetization      11.5076094

 Broyden mixing:
  rms(total) = 0.11269E+01    rms(broyden)= 0.11269E+01
  rms(prec ) = 0.12477E+01
  weight for this iteration     100.00

 eigenvalues of (default mixing * dielectric matrix)
  average eigenvalue GAMMA=   0.9787
  3.6681  2.3033  0.9210  0.9210  0.6364  0.4228  0.1109  0.2839  0.2839  0.2356

 Free energy of the ion-electron system (eV)
  ---------------------------------------------------
  alpha Z        PSCENC =      2023.78361127
  Ewald energy   TEWEN  =    124341.96180425
  -Hartree energ DENC   =   -175101.20179891
  -exchange      EXHF   =         0.00000000
  -V(xc)+E(xc)   XCENC  =       237.61188528
  PAW double counting   =     60924.23204586   -59330.80055772
  entropy T*S    EENTRO =         0.00000000
  eigenvalues    EBANDS =      -134.27258367
  atomic energy  EATOM  =     46688.37031544
  Solvation  Ediel_sol  =         0.00000000
  ---------------------------------------------------
  free energy    TOTEN  =      -350.31527819 eV

  energy without entropy =     -350.31527819  energy(sigma->0) =     -350.31527819


--------------------------------------------------------------------------------------------------------




--------------------------------------- Iteration      1(  16)  ---------------------------------------


    POTLOK:  cpu time    0.4999: real time    0.5011
    SETDIJ:  cpu time    0.0458: real time    0.0459
    EDDIAG:  cpu time    8.1841: real time    8.2089
  RMM-DIIS:  cpu time   33.2085: real time   33.3096
    ORTHCH:  cpu time    1.2826: real time    1.2864
 BZINTS: Fermi energy:  3.281201;642.000000 electrons
         Band energy:-157.130101;  BLOECHL correction: -0.132466
       DOS:  cpu time    0.0222: real time    0.0222
    CHARGE:  cpu time    2.5479: real time    2.5558
    MIXING:  cpu time    0.0164: real time    0.0164
    --------------------------------------------
      LOOP:  cpu time   45.8073: real time   45.9464

 eigenvalue-minimisations  :  7702
 total energy-change (2. order) :-0.1407541E+02  (-0.1310091E+01)
 number of electron     642.0000081 magnetization      16.3377408
 augmentation part      197.2353592 magnetization       8.8419903

 Broyden mixing:
  rms(total) = 0.74626E+00    rms(broyden)= 0.74626E+00
  rms(prec ) = 0.85182E+00
  weight for this iteration     100.00

 eigenvalues of (default mixing * dielectric matrix)
  average eigenvalue GAMMA=   1.1172
  5.6908  2.2643  0.8387  0.8387  0.7725  0.6532  0.1109  0.3025  0.3025  0.2814
  0.2342

 Free energy of the ion-electron system (eV)
  ---------------------------------------------------
  alpha Z        PSCENC =      2023.78361127
  Ewald energy   TEWEN  =    124341.96180425
  -Hartree energ DENC   =   -175084.12753252
  -exchange      EXHF   =         0.00000000
  -V(xc)+E(xc)   XCENC  =       228.54268901
  PAW double counting   =     60664.40903997   -59070.20051858
  entropy T*S    EENTRO =         0.00000000
  eigenvalues    EBANDS =      -157.13010091
  atomic energy  EATOM  =     46688.37031544
  Solvation  Ediel_sol  =         0.00000000
  ---------------------------------------------------
  free energy    TOTEN  =      -364.39069206 eV

  energy without entropy =     -364.39069206  energy(sigma->0) =     -364.39069206


--------------------------------------------------------------------------------------------------------




--------------------------------------- Iteration      1(  17)  ---------------------------------------


    POTLOK:  cpu time    0.5199: real time    0.5212
    SETDIJ:  cpu time    0.0461: real time    0.0462
    EDDIAG:  cpu time    8.2610: real time    8.2866
  RMM-DIIS:  cpu time   33.0358: real time   33.1353
    ORTHCH:  cpu time    1.2711: real time    1.2748
 BZINTS: Fermi energy:  3.239941;642.000000 electrons
         Band energy:-178.163211;  BLOECHL correction: -0.130488
       DOS:  cpu time    0.0228: real time    0.0228
    CHARGE:  cpu time    2.5553: real time    2.5632
    MIXING:  cpu time    0.0172: real time    0.0172
    --------------------------------------------
      LOOP:  cpu time   45.7292: real time   45.8674

 eigenvalue-minimisations  :  7700
 total energy-change (2. order) :-0.3924177E+01  (-0.3898497E+00)
 number of electron     642.0000081 magnetization      14.1235964
 augmentation part      197.0298396 magnetization       7.7878204

 Broyden mixing:
  rms(total) = 0.59210E+00    rms(broyden)= 0.59210E+00
  rms(prec ) = 0.67563E+00
  weight for this iteration     100.00

 eigenvalues of (default mixing * dielectric matrix)
  average eigenvalue GAMMA=   1.1696
  6.8015  2.2767  1.0139  0.8681  0.8681  0.6430  0.1109  0.3859  0.2880  0.2880
  0.2305  0.2605

 Free energy of the ion-electron system (eV)
  ---------------------------------------------------
  alpha Z        PSCENC =      2023.78361127
  Ewald energy   TEWEN  =    124341.96180425
  -Hartree energ DENC   =   -175065.01912333
  -exchange      EXHF   =         0.00000000
  -V(xc)+E(xc)   XCENC  =       226.05822766
  PAW double counting   =     60558.60428178   -58963.91077451
  entropy T*S    EENTRO =         0.00000000
  eigenvalues    EBANDS =      -178.16321113
  atomic energy  EATOM  =     46688.37031544
  Solvation  Ediel_sol  =         0.00000000
  ---------------------------------------------------
  free energy    TOTEN  =      -368.31486857 eV

  energy without entropy =     -368.31486857  energy(sigma->0) =     -368.31486857


--------------------------------------------------------------------------------------------------------




--------------------------------------- Iteration      1(  18)  ---------------------------------------


    POTLOK:  cpu time    0.5008: real time    0.5020
    SETDIJ:  cpu time    0.0462: real time    0.0463
    EDDIAG:  cpu time    8.1518: real time    8.1763
  RMM-DIIS:  cpu time   33.1296: real time   33.2303
    ORTHCH:  cpu time    1.2903: real time    1.2946
 BZINTS: Fermi energy:  3.194398;642.000000 electrons
         Band energy:-205.745787;  BLOECHL correction: -0.065680
       DOS:  cpu time    0.0213: real time    0.0214
    CHARGE:  cpu time    2.6202: real time    2.6277
    MIXING:  cpu time    0.0195: real time    0.0196
    --------------------------------------------
      LOOP:  cpu time   45.7798: real time   45.9182

 eigenvalue-minimisations  :  7707
 total energy-change (2. order) :-0.1132377E+01  (-0.8909614E-01)
 number of electron     642.0000082 magnetization      12.7620623
 augmentation part      197.0814351 magnetization       7.4224393

 Broyden mixing:
  rms(total) = 0.48800E+00    rms(broyden)= 0.48800E+00
  rms(prec ) = 0.55466E+00
  weight for this iteration     100.00

 eigenvalues of (default mixing * dielectric matrix)
  average eigenvalue GAMMA=   1.1855
  7.4733  2.3092  1.0587  1.0587  0.9035  0.6568  0.4989  0.1109  0.3060  0.3060
  0.2814  0.2333  0.2146

 Free energy of the ion-electron system (eV)
  ---------------------------------------------------
  alpha Z        PSCENC =      2023.78361127
  Ewald energy   TEWEN  =    124341.96180425
  -Hartree energ DENC   =   -175037.89604174
  -exchange      EXHF   =         0.00000000
  -V(xc)+E(xc)   XCENC  =       225.06512148
  PAW double counting   =     60504.75728589   -58909.74355465
  entropy T*S    EENTRO =         0.00000000
  eigenvalues    EBANDS =      -205.74578728
  atomic energy  EATOM  =     46688.37031544
  Solvation  Ediel_sol  =         0.00000000
  ---------------------------------------------------
  free energy    TOTEN  =      -369.44724534 eV

  energy without entropy =     -369.44724534  energy(sigma->0) =     -369.44724534


--------------------------------------------------------------------------------------------------------




--------------------------------------- Iteration      1(  19)  ---------------------------------------


    POTLOK:  cpu time    0.6054: real time    0.6075
    SETDIJ:  cpu time    0.0675: real time    0.0677
    EDDIAG:  cpu time    8.3670: real time    8.3928
  RMM-DIIS:  cpu time   33.1235: real time   33.2238
    ORTHCH:  cpu time    1.2673: real time    1.2711
 BZINTS: Fermi energy:  3.133580;642.000000 electrons
         Band energy:-244.728760;  BLOECHL correction: -0.087711
       DOS:  cpu time    0.0221: real time    0.0222
    CHARGE:  cpu time    2.5469: real time    2.5548
    MIXING:  cpu time    0.0190: real time    0.0191
    --------------------------------------------
      LOOP:  cpu time   46.0188: real time   46.1589

 eigenvalue-minimisations  :  7703
 total energy-change (2. order) :-0.7493477E+00  (-0.4234890E-01)
 number of electron     642.0000081 magnetization      11.9049315
 augmentation part      197.1113823 magnetization       6.5935299

 Broyden mixing:
  rms(total) = 0.31231E+00    rms(broyden)= 0.31231E+00
  rms(prec ) = 0.35541E+00
  weight for this iteration     100.00

 eigenvalues of (default mixing * dielectric matrix)
  average eigenvalue GAMMA=   1.1843
  7.8873  2.3148  1.2281  1.2281  0.7045  0.7045  0.6814  0.4104  0.1109  0.2947
  0.2947  0.2847  0.2347  0.2011

 Free energy of the ion-electron system (eV)
  ---------------------------------------------------
  alpha Z        PSCENC =      2023.78361127
  Ewald energy   TEWEN  =    124341.96180425
  -Hartree energ DENC   =   -174999.58045463
  -exchange      EXHF   =         0.00000000
  -V(xc)+E(xc)   XCENC  =       224.24198517
  PAW double counting   =     60458.10508827   -58862.35018279
  entropy T*S    EENTRO =         0.00000000
  eigenvalues    EBANDS =      -244.72875999
  atomic energy  EATOM  =     46688.37031544
  Solvation  Ediel_sol  =         0.00000000
  ---------------------------------------------------
  free energy    TOTEN  =      -370.19659301 eV

  energy without entropy =     -370.19659301  energy(sigma->0) =     -370.19659301


[...]
 
   4 f/i=   12.956643 THz    81.408992 2PiTHz  432.187091 cm-1    53.584389 meV
             X         Y         Z           dx          dy          dz
     10.559976  0.000014  1.115846            0           0           0  
      2.635974  1.536674  3.589333            0           0           0  
      0.015204  3.045633  6.116491            0           0           0  
     -0.002305  0.004902  8.328721            0           0           0  
      9.239976  2.286321  1.115846            0           0           0  
      1.324996  3.807886  3.727131            0           0           0  
      1.328107  0.790720  6.004609            0           0           0  
      9.235638  2.283554  8.403593            0           0           0  
      1.319975  2.286321  1.115846            0           0           0  
     -1.300548  3.805500  3.564137            0           0           0  
      3.957247  0.768218  5.934067            0           0           0  
      1.307344  2.270260  8.762383            0           0           0  
      2.639975  0.000014  1.115846            0           0           0  
      0.014226  1.536459  3.593930            0           0           0  
      2.628213  3.056195  6.131771            0           0           0  
     -2.644587  9.143687  8.368561            0           0           0  
      5.279976  0.000014  1.115846            0           0           0  
      7.927624  1.524149  3.546793            0           0           0  
      5.273628  3.048375  5.928865            0           0           0  
     -0.000933  9.144529  8.361845            0           0           0  
      3.959975  2.286321  1.115846            0           0           0  
      6.601563  3.805188  3.517025            0           0           0  
      6.597756  0.763253  5.934927            0           0           0  
      3.958591  2.285374  8.376647            0           0           0  
      6.599975  2.286321  1.115846            0           0           0  
      3.947164  3.808359  3.587344            0           0           0  
      9.242522  0.764745  5.931741            0           0           0  
      6.598184  2.285001  8.360979            0           0           0  
      7.919975  0.000014  1.115846            0           0           0  
      5.276024  1.526566  3.535822            0           0           0  
      7.929098  3.044310  5.924635            0           0           0  
      7.915575  0.000881  8.364202            0           0           0  
      7.919976  4.572628  1.115846            0           0           0  
      0.014726  6.083411  3.565964            0           0           0  
     -2.634968  7.628854  5.868897            0           0           0  
      7.913556  4.573305  8.312266            0           0           0  
      6.599976  6.858935  1.115846            0           0           0  
     -1.314408  8.385226  3.522105            0           0           0  
     -1.298865  5.323385  5.928920            0           0           0  
      6.593829  6.860398  8.227951            0           0           0  
     -1.320025  6.858935  1.115846            0           0           0  
     -3.956960  8.395814  3.512460            0           0           0  
      1.329941  5.323385  6.120492            0           0           0  
     -1.325196  6.861498  8.320785            0           0           0  
     -0.000025  4.572628  1.115846            0           0           0  
     -2.631962  6.093307  3.493172            0           0           0  
      0.008318  7.615031  5.929004            0           0           0  
     -0.017881  4.580110  8.514366            0           0           0  
      2.639975  4.572628  1.115846            0           0           0  
      5.270168  6.088523  3.512379            0           0           0  
      2.639056  7.616944  5.937652            0           0           0  
      2.642924  4.587681  8.769558            0           0           0  
      1.319976  6.858935  1.115846            0           0           0  
      3.956977  8.384564  3.509693            0           0           0  
      3.938954  5.314837  6.008952            0           0           0  
      1.318864  6.860982  8.409246            0           0           0  
      3.959975  6.858935  1.115846            0           0           0  
      1.323817  8.376487  3.547741            0           0           0  
      6.596294  5.327403  5.863246            0           0           0  
      3.953203  6.855426  8.340672            0           0           0  
      5.279975  4.572628  1.115846            0           0           0  
      2.636405  6.078614  3.600133            0           0           0  
      5.271894  7.624802  5.855142            0           0           0  
      5.276444  4.574368  8.362016            0           0           0  
      1.633041  3.660794 10.417331     0.366746    0.630600    0.046146  
      2.333436  3.206033 10.421436     0.336178    0.593817    0.008780  
 
   5 f/i=   16.895144 THz   106.155318 2PiTHz  563.561309 cm-1    69.872722 meV
             X         Y         Z           dx          dy          dz
     10.559976  0.000014  1.115846            0           0           0  
      2.635974  1.536674  3.589333            0           0           0  
      0.015204  3.045633  6.116491            0           0           0  
     -0.002305  0.004902  8.328721            0           0           0  
      9.239976  2.286321  1.115846            0           0           0  
      1.324996  3.807886  3.727131            0           0           0  
      1.328107  0.790720  6.004609            0           0           0  
      9.235638  2.283554  8.403593            0           0           0  
      1.319975  2.286321  1.115846            0           0           0  
     -1.300548  3.805500  3.564137            0           0           0  
      3.957247  0.768218  5.934067            0           0           0  
      1.307344  2.270260  8.762383            0           0           0  
      2.639975  0.000014  1.115846            0           0           0  
      0.014226  1.536459  3.593930            0           0           0  
      2.628213  3.056195  6.131771            0           0           0  
     -2.644587  9.143687  8.368561            0           0           0  
      5.279976  0.000014  1.115846            0           0           0  
      7.927624  1.524149  3.546793            0           0           0  
      5.273628  3.048375  5.928865            0           0           0  
     -0.000933  9.144529  8.361845            0           0           0  
      3.959975  2.286321  1.115846            0           0           0  
      6.601563  3.805188  3.517025            0           0           0  
      6.597756  0.763253  5.934927            0           0           0  
      3.958591  2.285374  8.376647            0           0           0  
      6.599975  2.286321  1.115846            0           0           0  
      3.947164  3.808359  3.587344            0           0           0  
      9.242522  0.764745  5.931741            0           0           0  
      6.598184  2.285001  8.360979            0           0           0  
      7.919975  0.000014  1.115846            0           0           0  
      5.276024  1.526566  3.535822            0           0           0  
      7.929098  3.044310  5.924635            0           0           0  
      7.915575  0.000881  8.364202            0           0           0  
      7.919976  4.572628  1.115846            0           0           0  
      0.014726  6.083411  3.565964            0           0           0  
     -2.634968  7.628854  5.868897            0           0           0  
      7.913556  4.573305  8.312266            0           0           0  
      6.599976  6.858935  1.115846            0           0           0  
     -1.314408  8.385226  3.522105            0           0           0  
     -1.298865  5.323385  5.928920            0           0           0  
      6.593829  6.860398  8.227951            0           0           0  
     -1.320025  6.858935  1.115846            0           0           0  
     -3.956960  8.395814  3.512460            0           0           0  
      1.329941  5.323385  6.120492            0           0           0  
     -1.325196  6.861498  8.320785            0           0           0  
     -0.000025  4.572628  1.115846            0           0           0  
     -2.631962  6.093307  3.493172            0           0           0  
      0.008318  7.615031  5.929004            0           0           0  
     -0.017881  4.580110  8.514366            0           0           0  
      2.639975  4.572628  1.115846            0           0           0  
      5.270168  6.088523  3.512379            0           0           0  
      2.639056  7.616944  5.937652            0           0           0  
      2.642924  4.587681  8.769558            0           0           0  
      1.319976  6.858935  1.115846            0           0           0  
      3.956977  8.384564  3.509693            0           0           0  
      3.938954  5.314837  6.008952            0           0           0  
      1.318864  6.860982  8.409246            0           0           0  
      3.959975  6.858935  1.115846            0           0           0  
      1.323817  8.376487  3.547741            0           0           0  
      6.596294  5.327403  5.863246            0           0           0  
      3.953203  6.855426  8.340672            0           0           0  
      5.279975  4.572628  1.115846            0           0           0  
      2.636405  6.078614  3.600133            0           0           0  
      5.271894  7.624802  5.855142            0           0           0  
      5.276444  4.574368  8.362016            0           0           0  
      1.633041  3.660794 10.417331    -0.218853   -0.131368   -0.651827  
      2.333436  3.206033 10.421436     0.211018    0.215433   -0.647323  
 
   6 f/i=   18.804641 THz   118.153046 2PiTHz  627.255299 cm-1    77.769773 meV
             X         Y         Z           dx          dy          dz
     10.559976  0.000014  1.115846            0           0           0  
      2.635974  1.536674  3.589333            0           0           0  
      0.015204  3.045633  6.116491            0           0           0  
     -0.002305  0.004902  8.328721            0           0           0  
      9.239976  2.286321  1.115846            0           0           0  
      1.324996  3.807886  3.727131            0           0           0  
      1.328107  0.790720  6.004609            0           0           0  
      9.235638  2.283554  8.403593            0           0           0  
      1.319975  2.286321  1.115846            0           0           0  
     -1.300548  3.805500  3.564137            0           0           0  
      3.957247  0.768218  5.934067            0           0           0  
      1.307344  2.270260  8.762383            0           0           0  
      2.639975  0.000014  1.115846            0           0           0  
      0.014226  1.536459  3.593930            0           0           0  
      2.628213  3.056195  6.131771            0           0           0  
     -2.644587  9.143687  8.368561            0           0           0  
      5.279976  0.000014  1.115846            0           0           0  
      7.927624  1.524149  3.546793            0           0           0  
      5.273628  3.048375  5.928865            0           0           0  
     -0.000933  9.144529  8.361845            0           0           0  
      3.959975  2.286321  1.115846            0           0           0  
      6.601563  3.805188  3.517025            0           0           0  
      6.597756  0.763253  5.934927            0           0           0  
      3.958591  2.285374  8.376647            0           0           0  
      6.599975  2.286321  1.115846            0           0           0  
      3.947164  3.808359  3.587344            0           0           0  
      9.242522  0.764745  5.931741            0           0           0  
      6.598184  2.285001  8.360979            0           0           0  
      7.919975  0.000014  1.115846            0           0           0  
      5.276024  1.526566  3.535822            0           0           0  
      7.929098  3.044310  5.924635            0           0           0  
      7.915575  0.000881  8.364202            0           0           0  
      7.919976  4.572628  1.115846            0           0           0  
      0.014726  6.083411  3.565964            0           0           0  
     -2.634968  7.628854  5.868897            0           0           0  
      7.913556  4.573305  8.312266            0           0           0  
      6.599976  6.858935  1.115846            0           0           0  
     -1.314408  8.385226  3.522105            0           0           0  
     -1.298865  5.323385  5.928920            0           0           0  
      6.593829  6.860398  8.227951            0           0           0  
     -1.320025  6.858935  1.115846            0           0           0  
     -3.956960  8.395814  3.512460            0           0           0  
      1.329941  5.323385  6.120492            0           0           0  
     -1.325196  6.861498  8.320785            0           0           0  
     -0.000025  4.572628  1.115846            0           0           0  
     -2.631962  6.093307  3.493172            0           0           0  
      0.008318  7.615031  5.929004            0           0           0  
     -0.017881  4.580110  8.514366            0           0           0  
      2.639975  4.572628  1.115846            0           0           0  
      5.270168  6.088523  3.512379            0           0           0  
      2.639056  7.616944  5.937652            0           0           0  
      2.642924  4.587681  8.769558            0           0           0  
      1.319976  6.858935  1.115846            0           0           0  
      3.956977  8.384564  3.509693            0           0           0  
      3.938954  5.314837  6.008952            0           0           0  
      1.318864  6.860982  8.409246            0           0           0  
      3.959975  6.858935  1.115846            0           0           0  
      1.323817  8.376487  3.547741            0           0           0  
      6.596294  5.327403  5.863246            0           0           0  
      3.953203  6.855426  8.340672            0           0           0  
      5.279975  4.572628  1.115846            0           0           0  
      2.636405  6.078614  3.600133            0           0           0  
      5.271894  7.624802  5.855142            0           0           0  
      5.276444  4.574368  8.362016            0           0           0  
      1.633041  3.660794 10.417331     0.307654    0.567482   -0.252370  
      2.333436  3.206033 10.421436    -0.338593   -0.577386   -0.267587  
 
 Finite differences POTIM=  1.500000000000000E-002
  LATTYP: Found a hexagonal cell.
 ALAT       =    10.5600004196
 C/A-ratio  =     1.8939393187
  
  Lattice vectors:
  
 A1 = (  10.5600004196,   0.0000000000,   0.0000000000)
 A2 = (  -5.2800002098,   9.1452286274,   0.0000000000)
 A3 = (   0.0000000000,   0.0000000000,  20.0000000000)


Analysis of symmetry for initial positions (statically):
=====================================================================
 Subroutine PRICEL returns:
 Original cell was already a primitive cell.
 

 Routine SETGRP: Setting up the symmetry group for a 
 hexagonal supercell.


 Subroutine GETGRP returns: Found  1 space group operations
 (whereof  1 operations were pure point group operations)
 out of a pool of 24 trial point group operations.


The static configuration has the point symmetry C_1 .


Analysis of symmetry for dynamics (positions and initial velocities):
=====================================================================
 Subroutine PRICEL returns:
 Original cell was already a primitive cell.
 

 Routine SETGRP: Setting up the symmetry group for a 
 hexagonal supercell.


 Subroutine GETGRP returns: Found  1 space group operations
 (whereof  1 operations were pure point group operations)
 out of a pool of 24 trial point group operations.


The dynamic configuration has the point symmetry C_1 .


Analysis of constrained symmetry for selective dynamics:
=====================================================================
 Subroutine PRICEL returns:
 Original cell was already a primitive cell.
 

 Routine SETGRP: Setting up the symmetry group for a 
 hexagonal supercell.


 Subroutine GETGRP returns: Found  1 space group operations
 (whereof  1 operations were pure point group operations)
 out of a pool of 24 trial point group operations.


The constrained configuration has the point symmetry C_1 .


Analysis of structural, dynamic, and magnetic symmetry:
=====================================================================
 Subroutine PRICEL returns:
 Original cell was already a primitive cell.
 

 Routine SETGRP: Setting up the symmetry group for a 
 hexagonal supercell.


 Subroutine GETGRP returns: Found  1 space group operations
 (whereof  1 operations were pure point group operations)
 out of a pool of 24 trial point group operations.


The magnetic configuration has the point symmetry C_1 .


 Subroutine INISYM returns: Found  1 space group operations
 (whereof  1 operations are pure point group operations),
 and found     1 'primitive' translations

 
 KPOINTS: mesh auto                               

Automatic generation of k-mesh.
Space group operators:
 irot       det(A)        alpha          n_x          n_y          n_z        tau_x        tau_y        tau_z
    1     1.000000     0.000000     1.000000     0.000000     0.000000     0.000000     0.000000     0.000000
 
 Subroutine IBZKPT returns following result:
 ===========================================
 
 Found      4 irreducible k-points:
 
 Following reciprocal coordinates:
            Coordinates               Weight
  0.000000  0.000000  0.000000      1.000000
  0.500000 -0.000000  0.000000      1.000000
  0.000000  0.500000  0.000000      1.000000
  0.500000  0.500000  0.000000      1.000000
 
 Following cartesian coordinates:
            Coordinates               Weight
  0.000000  0.000000  0.000000      1.000000
  0.047348  0.027337  0.000000      1.000000
  0.000000  0.054673  0.000000      1.000000
  0.047348  0.082010  0.000000      1.000000
 
 TETIRR: Found     12 inequivalent tetrahedra from       24
     LOOP+:  cpu time  541.7310: real time  543.3070
    4ORBIT:  cpu time    0.0000: real time    0.0000
 BZINTS: Fermi energy:  2.779182;642.000000 electrons
         Band energy:-462.542074;  BLOECHL correction: -0.067827

 total amount of memory used by VASP MPI-rank0   335945. kBytes
=======================================================================

   base      :      30000. kBytes
   nonlr-proj:      89563. kBytes
   fftplans  :      13334. kBytes
   grid      :     112154. kBytes
   one-center:       2052. kBytes
   wavefun   :      88842. kBytes
 
  
  
 General timing and accounting informations for this job:
 ========================================================
  
                  Total CPU time used (sec):     7747.611
                            User time (sec):     7726.564
                          System time (sec):       21.048
                         Elapsed time (sec):     7772.819
  
                   Maximum memory used (kb):     1022128.
                   Average memory used (kb):           0.
  
                          Minor page faults:      2724438
                          Major page faults:            0
                 Voluntary context switches:         6301
