 vasp.5.4.4.18Apr17-6-g9f103f2a35 (build Nov 30 2020 22:55:02) complex          
  
 executed on             LinuxIFC date 2023.07.30  15:49:07
 running on   40 total cores
 distrk:  each k-point on   40 cores,    1 groups
 distr:  one band on NCORES_PER_BAND=   4 cores,   10 groups


--------------------------------------------------------------------------------------------------------


 INCAR:
 POTCAR:    PAW_PBE Pt 04Feb2005                  
 POTCAR:    PAW_PBE H 15Jun2001                   
 POTCAR:    PAW_PBE Pt 04Feb2005                  
   VRHFIN =Pt: s1d9                                                             
   LEXCH  = PE                                                                  
   EATOM  =   729.1176 eV,   53.5886 Ry                                         
                                                                                
   TITEL  = PAW_PBE Pt 04Feb2005                                                
   LULTRA =        F    use ultrasoft PP ?                                      
   IUNSCR =        1    unscreen: 0-lin 1-nonlin 2-no                           
   RPACOR =    2.330    partial core radius                                     
   POMASS =  195.080; ZVAL   =   10.000    mass and valenz                      
   RCORE  =    2.600    outmost cutoff radius                                   
   RWIGS  =    2.750; RWIGS  =    1.455    wigner-seitz radius (au A)           
   ENMAX  =  230.283; ENMIN  =  172.712 eV                                      
   ICORE  =        3    local potential                                         
   LCOR   =        T    correct aug charges                                     
   LPAW   =        T    paw PP                                                  
   EAUG   =  358.966                                                            
   DEXC   =    0.000                                                            
   RMAX   =    2.658    core radius for proj-oper                               
   RAUG   =    1.300    factor for augmentation sphere                          
   RDEP   =    2.761    radius for radial grids                                 
   RDEPT  =    2.203    core radius for aug-charge                              
                                                                                
   Atomic configuration                                                         
   16 entries                                                                   
     n  l   j            E        occ.                                          
     1  0  0.50    -78401.1885   2.0000                                         
     2  0  0.50    -13770.7750   2.0000                                         
     2  1  1.50    -11931.0468   6.0000                                         
     3  0  0.50     -3234.7234   2.0000                                         
     3  1  1.50     -2699.2216   6.0000                                         
     3  2  2.50     -2119.5714  10.0000                                         
     4  0  0.50      -695.1528   2.0000                                         
     4  1  1.50      -519.6034   6.0000                                         
     4  2  2.50      -306.6786  10.0000                                         
     4  3  3.50       -70.1041  14.0000                                         
     5  0  0.50      -101.7747   2.0000                                         
     5  1  1.50       -55.9873   6.0000                                         
     5  2  2.50        -6.1423   9.0000                                         
     6  0  0.50        -5.6573   1.0000                                         
     6  1  1.50        -6.8029   0.0000                                         
     5  3  2.50        -1.3606   0.0000                                         
   Description                                                                  
     l       E           TYP  RCUT    TYP  RCUT                                 
     2     -6.1423404     23  2.500                                             
     2     -7.5029230     23  2.500                                             
     0     -5.6573207     23  2.500                                             
     0      0.7416693     23  2.500                                             
     1     -2.7211652     23  2.600                                             
     1     20.4087390     23  2.600                                             
     3     -1.3605826     23  2.500                                             
  local pseudopotential read in
  partial core-charges read in
  partial kinetic energy density read in
  atomic valenz-charges read in
  non local Contribution for L=           2  read in
    real space projection operators read in
  non local Contribution for L=           2  read in
    real space projection operators read in
  non local Contribution for L=           0  read in
    real space projection operators read in
  non local Contribution for L=           0  read in
    real space projection operators read in
  non local Contribution for L=           1  read in
    real space projection operators read in
  non local Contribution for L=           1  read in
    real space projection operators read in
    PAW grid and wavefunctions read in
 
   number of l-projection  operators is LMAX  =           6
   number of lm-projection operators is LMMAX =          18
 
 POTCAR:    PAW_PBE H 15Jun2001                   
   VRHFIN =H: ultrasoft test                                                    
   LEXCH  = PE                                                                  
   EATOM  =    12.4884 eV,    0.9179 Ry                                         
                                                                                
   TITEL  = PAW_PBE H 15Jun2001                                                 
   LULTRA =        F    use ultrasoft PP ?                                      
   IUNSCR =        0    unscreen: 0-lin 1-nonlin 2-no                           
   RPACOR =    0.000    partial core radius                                     
   POMASS =    1.000; ZVAL   =    1.000    mass and valenz                      
   RCORE  =    1.100    outmost cutoff radius                                   
   RWIGS  =    0.700; RWIGS  =    0.370    wigner-seitz radius (au A)           
   ENMAX  =  250.000; ENMIN  =  200.000 eV                                      
   RCLOC  =    0.701    cutoff for local pot                                    
   LCOR   =        T    correct aug charges                                     
   LPAW   =        T    paw PP                                                  
   EAUG   =  400.000                                                            
   RMAX   =    1.123    core radius for proj-oper                               
   RAUG   =    1.200    factor for augmentation sphere                          
   RDEP   =    1.112    radius for radial grids                                 
   RDEPT  =    0.926    core radius for aug-charge                              
                                                                                
   Atomic configuration                                                         
    2 entries                                                                   
     n  l   j            E        occ.                                          
     1  0  0.50        -6.4927   1.0000                                         
     2  1  0.50        -3.4015   0.0000                                         
   Description                                                                  
     l       E           TYP  RCUT    TYP  RCUT                                 
     0     -6.4927494     23  1.100                                             
     0      6.8029130     23  1.100                                             
     1     -4.0817478     23  1.100                                             
  local pseudopotential read in
  atomic valenz-charges read in
  non local Contribution for L=           0  read in
    real space projection operators read in
  non local Contribution for L=           0  read in
    real space projection operators read in
  non local Contribution for L=           1  read in
    real space projection operators read in
    PAW grid and wavefunctions read in
 
   number of l-projection  operators is LMAX  =           3
   number of lm-projection operators is LMMAX =           5
 
 Optimization of the real space projectors (new method)

 maximal supplied QI-value         = 14.36
 optimisation between [QCUT,QGAM] = [ 11.92, 23.98] = [ 39.79,161.09] Ry 
 Optimized for a Real-space Cutoff    1.49 Angstroem

   l    n(q)    QCUT    max X(q) W(low)/X(q) W(high)/X(q)  e(spline) 
   2     10    11.920    66.195    0.79E-04    0.18E-03    0.24E-06
   2     10    11.920    64.643    0.81E-04    0.19E-03    0.24E-06
   0     11    11.920    95.520    0.28E-04    0.54E-04    0.18E-06
   0     11    11.920    63.403    0.27E-04    0.52E-04    0.17E-06
   1     10    11.920    19.961    0.18E-04    0.11E-03    0.23E-06
   1     10    11.920    13.289    0.25E-04    0.87E-04    0.19E-06
 Optimization of the real space projectors (new method)

 maximal supplied QI-value         = 34.20
 optimisation between [QCUT,QGAM] = [ 11.97, 23.94] = [ 40.13,160.53] Ry 
 Optimized for a Real-space Cutoff    1.18 Angstroem

   l    n(q)    QCUT    max X(q) W(low)/X(q) W(high)/X(q)  e(spline) 
   0      8    11.971    19.460    0.15E-03    0.31E-03    0.25E-06
   0      8    11.971    12.209    0.13E-03    0.29E-03    0.25E-06
   1      8    11.971     4.655    0.22E-03    0.24E-03    0.21E-06
  PAW_PBE Pt 04Feb2005                  :
 energy of atom  1       EATOM= -729.1176
 kinetic energy error for atom=    0.0021 (will be added to EATOM!!)
  PAW_PBE H 15Jun2001                   :
 energy of atom  2       EATOM=  -12.4884
 kinetic energy error for atom=    0.0008 (will be added to EATOM!!)
 
 
 POSCAR: Pt111\(1\1\1)\(2)                       
  positions in direct lattice
  velocities in cartesian coordinates
 exchange correlation table for  LEXCH =        8
   RHO(1)=    0.500       N(1)  =     2000
   RHO(2)=  100.500       N(2)  =     4000
 


--------------------------------------------------------------------------------------------------------


 ion  position               nearest neighbor table
   1  1.000  0.000  0.056-   5 2.64   9 2.64  13 2.64  29 2.64  57 2.64  37 2.64  42 2.87  14 2.87
                            54 2.87
   2  0.333  0.167  0.178-  30 2.64  26 2.64  38 2.64  42 2.64  14 2.64   6 2.64   7 2.84  15 2.84
                            11 2.84   9 2.87  21 2.87  13 2.87
   3  0.167  0.334  0.298-  39 2.64  43 2.64  31 2.64   7 2.64  27 2.64  15 2.64  10 2.84   6 2.84
                            14 2.85  12 2.86   8 2.87  48 2.89
   4  1.000  0.000  0.419-  16 2.64  12 2.64  60 2.64  40 2.64   8 2.64  32 2.64  27 2.86  63 2.87
                             7 2.87
   5  1.000  0.250  0.056-   1 2.64  45 2.64  33 2.64   9 2.64  29 2.64  25 2.64  14 2.87  10 2.87
                            18 2.87
   6  0.333  0.417  0.178-  26 2.64  62 2.64  10 2.64  34 2.64  14 2.64   2 2.64  15 2.84   3 2.84
                            43 2.85  45 2.87  49 2.87   9 2.87
   7  0.167  0.084  0.297-  35 2.64  11 2.64  15 2.64  63 2.64  27 2.64   3 2.64  14 2.84   2 2.84
                            42 2.84  12 2.86   4 2.87  16 2.90
   8  1.000  0.250  0.419-  36 2.64  48 2.64  12 2.64  28 2.64   4 2.64  32 2.64  27 2.87   3 2.87
                            31 2.87
   9  0.250  0.250  0.056-  21 2.64  13 2.64   1 2.64  49 2.64  45 2.64   5 2.64   2 2.87  14 2.87
                             6 2.87
  10  0.083  0.417  0.178-  34 2.64   6 2.64  46 2.64  14 2.64  18 2.64  22 2.64  31 2.84   3 2.84
                            39 2.84  33 2.87  45 2.87   5 2.87
  11  0.416  0.083  0.298-  15 2.64  35 2.64   7 2.64  47 2.64  19 2.64  23 2.64   2 2.84  38 2.84
                            30 2.85  20 2.86  24 2.88  16 2.90
  12  0.250  0.250  0.418-  16 2.64  52 2.64   4 2.64   8 2.64  24 2.64  48 2.64   3 2.86  15 2.86
                             7 2.86
  13  0.250  0.000  0.056-  21 2.64   9 2.64  17 2.64   1 2.64  37 2.64  41 2.64  38 2.87   2 2.87
                            42 2.87
  14  0.083  0.167  0.178-  42 2.64  54 2.64   6 2.64   2 2.64  10 2.64  18 2.64   7 2.84   3 2.85
                            27 2.85   5 2.87   1 2.87   9 2.87
  15  0.417  0.333  0.297-  11 2.64  19 2.64  55 2.64   7 2.64   3 2.64  43 2.65  26 2.84   2 2.84
                             6 2.84  52 2.86  12 2.86  24 2.88
  16  0.250  0.000  0.421-   4 2.64  12 2.64  24 2.64  40 2.64  20 2.64  44 2.64  35 2.89  11 2.90
                             7 2.90
  17  0.500  0.000  0.056-  29 2.64  25 2.64  13 2.64  21 2.64  41 2.64  53 2.64  58 2.87  30 2.87
                            38 2.87
  18  0.833  0.167  0.178-  54 2.64  58 2.64  22 2.64  10 2.64  30 2.64  14 2.64  31 2.84  23 2.85
                            27 2.85  25 2.87  29 2.87   5 2.87
  19  0.667  0.334  0.298-  15 2.64  59 2.64  55 2.64  31 2.64  11 2.64  23 2.64  26 2.84  22 2.84
                            30 2.85  28 2.86  24 2.88  64 2.89
  20  0.500  0.000  0.419-  24 2.64  28 2.64  44 2.64  32 2.64  56 2.64  16 2.64  23 2.86  11 2.86
                            47 2.87
  21  0.500  0.250  0.056-  25 2.64  61 2.64   9 2.64  13 2.64  49 2.64  17 2.64  30 2.87   2 2.87
                            26 2.87
  22  0.833  0.417  0.178-  50 2.64  26 2.64  30 2.64  18 2.64  46 2.64  10 2.64  31 2.84  19 2.84
                            59 2.85  61 2.87  25 2.87  33 2.87
  23  0.667  0.083  0.298-  51 2.64  27 2.64  31 2.64  47 2.64  19 2.64  11 2.64  18 2.85  58 2.85
                            30 2.85  28 2.86  20 2.86  32 2.90
  24  0.500  0.250  0.420-  28 2.64  20 2.64  64 2.64  16 2.64  12 2.64  52 2.64  15 2.88  19 2.88
                            11 2.88
  25  0.750  0.250  0.056-  17 2.64  21 2.64  29 2.64  61 2.64  33 2.64   5 2.64  18 2.87  22 2.87
                            30 2.87
  26  0.583  0.417  0.178-   6 2.64   2 2.64  22 2.64  30 2.64  62 2.64  50 2.64  55 2.84  15 2.84
                            19 2.84  49 2.87  61 2.87  21 2.87
  27  0.916  0.083  0.298-  23 2.64  51 2.64  63 2.64  31 2.64   7 2.64   3 2.64  18 2.85  54 2.85
                            14 2.85   4 2.86   8 2.87  32 2.90
  28  0.750  0.250  0.419-  24 2.64  20 2.64  36 2.64  32 2.64   8 2.64  64 2.64  23 2.86  19 2.86
                            31 2.87
  29  0.750  0.000  0.056-  17 2.64  25 2.64   5 2.64  53 2.64   1 2.64  57 2.64  54 2.87  18 2.87
                            58 2.87
  30  0.583  0.167  0.178-   2 2.64  38 2.64  58 2.64  26 2.64  22 2.64  18 2.64  11 2.85  19 2.85
                            23 2.85  21 2.87  17 2.87  25 2.87
  31  0.917  0.334  0.297-  39 2.64   3 2.64  19 2.64  59 2.64  27 2.64  23 2.64  22 2.84  10 2.84
                            18 2.84  36 2.87  28 2.87   8 2.87
  32  0.750  0.000  0.421-  20 2.64  28 2.64  60 2.64  56 2.64   8 2.64   4 2.64  23 2.90  51 2.90
                            27 2.90
  33  1.000  0.500  0.056-  37 2.64  41 2.64   5 2.64  45 2.64  25 2.64  61 2.64  10 2.87  46 2.87
                            22 2.87
  34  0.333  0.667  0.178-  62 2.64  10 2.64  58 2.64  46 2.64   6 2.64  38 2.64  47 2.84  43 2.84
                            39 2.84  41 2.87  45 2.87  53 2.87
  35  0.167  0.834  0.298-  11 2.64   7 2.64  47 2.64  63 2.64  59 2.64  39 2.64  42 2.84  38 2.85
                            46 2.85  44 2.86  40 2.87  16 2.89
  36  1.000  0.500  0.419-   8 2.64  48 2.64  28 2.64  40 2.64  64 2.64  44 2.64  59 2.86  39 2.87
                            31 2.87
  37  1.000  0.750  0.056-  33 2.64  41 2.64  61 2.64  57 2.64  13 2.64   1 2.64  46 2.87  50 2.87
                            42 2.87
  38  0.333  0.917  0.178-  58 2.64  30 2.64   2 2.64  42 2.64  34 2.64  46 2.64  47 2.84  11 2.84
                            35 2.85  13 2.87  17 2.87  41 2.87
  39  0.167  0.583  0.298-  43 2.64   3 2.64  31 2.64  47 2.64  59 2.64  35 2.64  46 2.84  34 2.84
                            10 2.84  36 2.87  44 2.87  48 2.89
  40  1.000  0.750  0.419-  36 2.64  44 2.64   4 2.64  64 2.64  16 2.64  60 2.64  35 2.87  59 2.87
                            63 2.87
  41  0.250  0.750  0.056-  45 2.64  33 2.64  37 2.64  53 2.64  17 2.64  13 2.64  34 2.87  46 2.87
                            38 2.87
  42  0.083  0.917  0.178-  14 2.64   2 2.64  38 2.64  46 2.64  50 2.64  54 2.64  63 2.84   7 2.84
                            35 2.84   1 2.87  13 2.87  37 2.87
  43  0.416  0.584  0.298-  39 2.64   3 2.64  47 2.64  51 2.64  55 2.64  15 2.65  34 2.84   6 2.85
                            62 2.85  52 2.86  56 2.87  48 2.90
  44  0.250  0.750  0.419-  56 2.64  48 2.64  40 2.64  20 2.64  16 2.64  36 2.64  35 2.86  39 2.87
                            47 2.87
  45  0.250  0.500  0.056-  41 2.64  53 2.64   5 2.64   9 2.64  49 2.64  33 2.64   6 2.87  10 2.87
                            34 2.87
  46  0.083  0.667  0.178-  34 2.64  50 2.64  10 2.64  42 2.64  22 2.64  38 2.64  39 2.84  59 2.85
                            35 2.85  37 2.87  33 2.87  41 2.87
  47  0.416  0.833  0.297-  43 2.64  39 2.64  11 2.64  35 2.64  51 2.64  23 2.64  38 2.84  34 2.84
                            58 2.84  44 2.87  20 2.87  56 2.88
  48  0.250  0.500  0.421-  56 2.64   8 2.64  44 2.64  36 2.64  52 2.64  12 2.64  39 2.89   3 2.89
                            43 2.90
  49  0.500  0.500  0.056-  61 2.64  53 2.64  57 2.64  21 2.64   9 2.64  45 2.64  26 2.87   6 2.87
                            62 2.87
  50  0.833  0.667  0.178-  22 2.64  46 2.64  26 2.64  42 2.64  54 2.64  62 2.64  55 2.84  63 2.84
                            59 2.84  57 2.87  61 2.87  37 2.87
  51  0.667  0.834  0.298-  23 2.64  27 2.64  63 2.64  47 2.64  55 2.64  43 2.64  58 2.85  54 2.85
                            62 2.85  60 2.86  56 2.87  32 2.90
  52  0.500  0.500  0.418-  64 2.64  12 2.64  60 2.64  56 2.64  48 2.64  24 2.64  43 2.86  15 2.86
                            55 2.86
  53  0.500  0.750  0.056-  49 2.64  57 2.64  45 2.64  41 2.64  29 2.64  17 2.64  62 2.87  34 2.87
                            58 2.87
  54  0.833  0.917  0.178-  18 2.64  14 2.64  50 2.64  58 2.64  42 2.64  62 2.64  63 2.84  51 2.85
                            27 2.85  29 2.87   1 2.87  57 2.87
  55  0.667  0.583  0.297-  59 2.64  15 2.64  19 2.64  63 2.64  51 2.64  43 2.64  62 2.84  26 2.84
                            50 2.84  52 2.86  60 2.87  64 2.90
  56  0.500  0.750  0.419-  44 2.64  48 2.64  52 2.64  20 2.64  60 2.64  32 2.64  51 2.87  43 2.87
                            47 2.88
  57  0.750  0.750  0.056-  61 2.64  49 2.64  53 2.64  37 2.64   1 2.64  29 2.64  50 2.87  62 2.87
                            54 2.87
  58  0.583  0.917  0.178-  38 2.64  30 2.64  18 2.64  34 2.64  62 2.64  54 2.64  47 2.84  51 2.85
                            23 2.85  17 2.87  29 2.87  53 2.87
  59  0.916  0.583  0.298-  19 2.64  55 2.64  31 2.64  63 2.64  35 2.64  39 2.64  50 2.84  22 2.85
                            46 2.85  36 2.86  40 2.87  64 2.89
  60  0.750  0.750  0.419-  64 2.64  52 2.64   4 2.64  32 2.64  40 2.64  56 2.64  51 2.86  63 2.87
                            55 2.87
  61  0.750  0.500  0.056-  49 2.64  57 2.64  21 2.64  25 2.64  37 2.64  33 2.64  22 2.87  26 2.87
                            50 2.87
  62  0.583  0.667  0.178-  34 2.64   6 2.64  26 2.64  58 2.64  54 2.64  50 2.64  55 2.84  43 2.85
                            51 2.85  53 2.87  49 2.87  57 2.87
  63  0.916  0.834  0.297-  51 2.64  27 2.64  35 2.64  55 2.64   7 2.64  59 2.64  54 2.84  42 2.84
                            50 2.84  60 2.87   4 2.87  40 2.87
  64  0.750  0.500  0.421-  52 2.64  60 2.64  24 2.64  40 2.64  28 2.64  36 2.64  59 2.89  19 2.89
                            55 2.90
  65  0.381  0.411  0.568-  66 0.75
  66  0.372  0.337  0.573-  65 0.75
 
  LATTYP: Found a hexagonal cell.
 ALAT       =    10.5600004196
 C/A-ratio  =     1.8939393187
  
  Lattice vectors:
  
 A1 = (  10.5600004196,   0.0000000000,   0.0000000000)
 A2 = (  -5.2800002098,   9.1452286274,   0.0000000000)
 A3 = (   0.0000000000,   0.0000000000,  20.0000000000)


Analysis of symmetry for initial positions (statically):
=====================================================================
 Subroutine PRICEL returns:
 Original cell was already a primitive cell.
 

 Routine SETGRP: Setting up the symmetry group for a 
 hexagonal supercell.


 Subroutine GETGRP returns: Found  1 space group operations
 (whereof  1 operations were pure point group operations)
 out of a pool of 24 trial point group operations.


The static configuration has the point symmetry C_1 .


Analysis of symmetry for dynamics (positions and initial velocities):
=====================================================================
 Subroutine PRICEL returns:
 Original cell was already a primitive cell.
 

 Routine SETGRP: Setting up the symmetry group for a 
 hexagonal supercell.


 Subroutine GETGRP returns: Found  1 space group operations
 (whereof  1 operations were pure point group operations)
 out of a pool of 24 trial point group operations.


The dynamic configuration has the point symmetry C_1 .


Analysis of constrained symmetry for selective dynamics:
=====================================================================
 Subroutine PRICEL returns:
 Original cell was already a primitive cell.
 

 Routine SETGRP: Setting up the symmetry group for a 
 hexagonal supercell.


 Subroutine GETGRP returns: Found  1 space group operations
 (whereof  1 operations were pure point group operations)
 out of a pool of 24 trial point group operations.


The constrained configuration has the point symmetry C_1 .


Analysis of structural, dynamic, and magnetic symmetry:
=====================================================================
 Subroutine PRICEL returns:
 Original cell was already a primitive cell.
 

 Routine SETGRP: Setting up the symmetry group for a 
 hexagonal supercell.


 Subroutine GETGRP returns: Found  1 space group operations
 (whereof  1 operations were pure point group operations)
 out of a pool of 24 trial point group operations.


The magnetic configuration has the point symmetry C_1 .


 Subroutine INISYM returns: Found  1 space group operations
 (whereof  1 operations are pure point group operations),
 and found     1 'primitive' translations

 
 
 KPOINTS: mesh auto                               

Automatic generation of k-mesh.
Space group operators:
 irot       det(A)        alpha          n_x          n_y          n_z        tau_x        tau_y        tau_z
    1     1.000000     0.000000     1.000000     0.000000     0.000000     0.000000     0.000000     0.000000
 
 Subroutine IBZKPT returns following result:
 ===========================================
 
 Found      4 irreducible k-points:
 
 Following reciprocal coordinates:
            Coordinates               Weight
  0.000000  0.000000  0.000000      1.000000
  0.500000 -0.000000  0.000000      1.000000
  0.000000  0.500000  0.000000      1.000000
  0.500000  0.500000  0.000000      1.000000
 
 Following cartesian coordinates:
            Coordinates               Weight
  0.000000  0.000000  0.000000      1.000000
  0.047348  0.027337  0.000000      1.000000
  0.000000  0.054673  0.000000      1.000000
  0.047348  0.082010  0.000000      1.000000
 


--------------------------------------------------------------------------------------------------------




 Dimension of arrays:
   k-points           NKPTS =      4   k-points in BZ     NKDIM =      4   number of bands    NBANDS=    420
   number of dos      NEDOS =    301   number of ions     NIONS =     66
   non local maximal  LDIM  =      6   non local SUM 2l+1 LMDIM =     18
   total plane-waves  NPLWV = ******
   max r-space proj   IRMAX =   8171   max aug-charges    IRDMAX=  35597
   dimension x,y,z NGX =    84 NGY =   84 NGZ =  160
   dimension x,y,z NGXF=   168 NGYF=  168 NGZF=  320
   support grid    NGXF=   168 NGYF=  168 NGZF=  320
   ions per type =              64   2
   NGX,Y,Z   is equivalent  to a cutoff of  13.22, 13.22, 13.30 a.u.
   NGXF,Y,Z  is equivalent  to a cutoff of  26.45, 26.45, 26.60 a.u.

 SYSTEM =  Pt111                                   
 POSCAR =  Pt111\(1\1\1)\(2)                       

 Startparameter for this run:
   NWRITE =      2    write-flag & timer
   PREC   = accura    normal or accurate (medium, high low for compatibility)
   ISTART =      0    job   : 0-new  1-cont  2-samecut
   ICHARG =      2    charge: 1-file 2-atom 10-const
   ISPIN  =      2    spin polarized calculation?
   LNONCOLLINEAR =      F non collinear calculations
   LSORBIT =      F    spin-orbit coupling
   INIWAV =      1    electr: 0-lowe 1-rand  2-diag
   LASPH  =      F    aspherical Exc in radial PAW
   METAGGA=      F    non-selfconsistent MetaGGA calc.

 Electronic Relaxation 1
   ENCUT  =  550.0 eV  40.42 Ry    6.36 a.u.  20.19 20.19 38.24*2*pi/ulx,y,z
   ENINI  =  550.0     initial cutoff
   ENAUG  =  400.0 eV  augmentation charge cutoff
   NELM   =    200;   NELMIN=  2; NELMDL= -5     # of ELM steps 
   EDIFF  = 0.1E-04   stopping-criterion for ELM
   LREAL  =      T    real-space projection
   NLSPLINE    = F    spline interpolate recip. space projectors
   LCOMPAT=      F    compatible to vasp.4.4
   GGA_COMPAT  = T    GGA compatible to vasp.4.4-vasp.4.6
   LMAXPAW     = -100 max onsite density
   LMAXMIX     =    2 max onsite mixed and CHGCAR
   VOSKOWN=      0    Vosko Wilk Nusair interpolation
   ROPT   =   -0.00025  -0.00025
 Ionic relaxation
   EDIFFG = -.5E-01   stopping-criterion for IOM
   NSW    =    300    number of steps for IOM
   NBLOCK =      1;   KBLOCK =    300    inner block; outer block 
   IBRION =      2    ionic relax: 0-MD 1-quasi-New 2-CG
   NFREE  =      1    steps in history (QN), initial steepest desc. (CG)
   ISIF   =      2    stress and relaxation
   IWAVPR =     11    prediction:  0-non 1-charg 2-wave 3-comb
   ISYM   =      2    0-nonsym 1-usesym 2-fastsym
   LCORR  =      T    Harris-Foulkes like correction to forces

   POTIM  = 0.5000    time-step for ionic-motion
   TEIN   =    0.0    initial temperature
   TEBEG  =    0.0;   TEEND  =   0.0 temperature during run
   SMASS  =  -3.00    Nose mass-parameter (am)
   estimated Nose-frequenzy (Omega)   =  0.10E-29 period in steps =****** mass=  -0.255E-26a.u.
   SCALEE = 1.0000    scale energy and forces
   NPACO  =    256;   APACO  = 16.0  distance and # of slots for P.C.
   PSTRESS=    0.0 pullay stress

  Mass of Ions in am
   POMASS = 195.08  1.00
  Ionic Valenz
   ZVAL   =  10.00  1.00
  Atomic Wigner-Seitz radii
   RWIGS  =  -1.00 -1.00
  virtual crystal weights 
   VCA    =   1.00  1.00
   NELECT =     642.0000    total number of electrons
   NUPDOWN=      -1.0000    fix difference up-down

 DOS related values:
   EMIN   =  10.00;   EMAX   =-10.00  energy-range for DOS
   EFERMI =   0.00
   ISMEAR =     1;   SIGMA  =   0.10  broadening in eV -4-tet -1-fermi 0-gaus

 Electronic relaxation 2 (details)
   IALGO  =     68    algorithm
   LDIAG  =      T    sub-space diagonalisation (order eigenvalues)
   LSUBROT=      F    optimize rotation matrix (better conditioning)
   TURBO    =      0    0=normal 1=particle mesh
   IRESTART =      0    0=no restart 2=restart with 2 vectors
   NREBOOT  =      0    no. of reboots
   NMIN     =      0    reboot dimension
   EREF     =   0.00    reference energy to select bands
   IMIX   =      4    mixing-type and parameters
     AMIX     =   0.40;   BMIX     =  1.00
     AMIX_MAG =   1.60;   BMIX_MAG =  1.00
     AMIN     =   0.10
     WC   =   100.;   INIMIX=   1;  MIXPRE=   1;  MAXMIX= -45

 Intra band minimization:
   WEIMIN = 0.0010     energy-eigenvalue tresh-hold
   EBREAK =  0.60E-08  absolut break condition
   DEPER  =   0.30     relativ break condition  

   TIME   =   0.40     timestep for ELM

  volume/ion in A,a.u.               =      29.26       197.49
  Fermi-wavevector in a.u.,A,eV,Ry     =   1.134028  2.143002 17.497349  1.286019
  Thomas-Fermi vector in A             =   2.270731
 
 Write flags
   LWAVE        =      F    write WAVECAR
   LDOWNSAMPLE  =      F    k-point downsampling of WAVECAR
   LCHARG       =      F    write CHGCAR
   LVTOT        =      F    write LOCPOT, total local potential
   LVHAR        =      F    write LOCPOT, Hartree potential only
   LELF         =      F    write electronic localiz. function (ELF)
   LORBIT       =      0    0 simple, 1 ext, 2 COOP (PROOUT), +10 PAW based schemes


 Dipole corrections
   LMONO  =      F    monopole corrections only (constant potential shift)
   LDIPOL =      F    correct potential (dipole corrections)
   IDIPOL =      0    1-x, 2-y, 3-z, 4-all directions 
   EPSILON=  1.0000000 bulk dielectric constant

 Exchange correlation treatment:
   GGA     =    --    GGA type
   LEXCH   =     8    internal setting for exchange type
   VOSKOWN=      0    Vosko Wilk Nusair interpolation
   LHFCALC =     F    Hartree Fock is set to
   LHFONE  =     F    Hartree Fock one center treatment
   AEXX    =    0.0000 exact exchange contribution

 Linear response parameters
   LEPSILON=     F    determine dielectric tensor
   LRPA    =     F    only Hartree local field effects (RPA)
   LNABLA  =     F    use nabla operator in PAW spheres
   LVEL    =     F    velocity operator in full k-point grid
   LINTERFAST=   F  fast interpolation
   KINTER  =     0    interpolate to denser k-point grid
   CSHIFT  =0.1000    complex shift for real part using Kramers Kronig
   OMEGAMAX=  -1.0    maximum frequency
   DEG_THRESHOLD= 0.2000000E-02 threshold for treating states as degnerate
   RTIME   =   -0.100 relaxation time in fs
  (WPLASMAI=    0.000 imaginary part of plasma frequency in eV, 0.658/RTIME)
   DFIELD  = 0.0000000 0.0000000 0.0000000 field for delta impulse in time
 
 Orbital magnetization related:
   ORBITALMAG=     F  switch on orbital magnetization
   LCHIMAG   =     F  perturbation theory with respect to B field
   DQ        =  0.001000  dq finite difference perturbation B field
   LLRAUG    =     F  two centre corrections for induced B field



--------------------------------------------------------------------------------------------------------


 conjugate gradient relaxation of ions
   using selective dynamics as specified on POSCAR
 charge density and potential will be updated during run
 spin polarized calculation
 RMM-DIIS sequential band-by-band and
  variant of blocked Davidson during initial phase
 perform sub-space diagonalisation
    before iterative eigenvector-optimisation
 modified Broyden-mixing scheme, WC =      100.0
 initial mixing is a Kerker type mixing with AMIX =  0.4000 and BMIX =      1.0000
 Hartree-type preconditioning will be used
 using additional bands           99
 real space projection scheme for non local part
 use partial core corrections
 calculate Harris-corrections to forces 
   (improved forces if not selfconsistent)
 use gradient corrections 
 use of overlap-Matrix (Vanderbilt PP)
 Methfessel and Paxton  Order N= 1 SIGMA  =   0.10


--------------------------------------------------------------------------------------------------------


  energy-cutoff  :      550.00
  volume of cell :     1931.47
      direct lattice vectors                 reciprocal lattice vectors
    10.560000420  0.000000000  0.000000000     0.094696966  0.054673319  0.000000000
    -5.280000210  9.145228627  0.000000000     0.000000000  0.109346638  0.000000000
     0.000000000  0.000000000 20.000000000     0.000000000  0.000000000  0.050000000

  length of vectors
    10.560000420 10.560000420 20.000000000     0.109346638  0.109346638  0.050000000


 
 k-points in units of 2pi/SCALE and weight: mesh auto                               
   0.00000000  0.00000000  0.00000000       0.250
   0.04734848  0.02733666  0.00000000       0.250
   0.00000000  0.05467332  0.00000000       0.250
   0.04734848  0.08200998  0.00000000       0.250
 
 k-points in reciprocal lattice and weights: mesh auto                               
   0.00000000  0.00000000  0.00000000       0.250
   0.50000000 -0.00000000  0.00000000       0.250
   0.00000000  0.50000000  0.00000000       0.250
   0.50000000  0.50000000  0.00000000       0.250
 
 position of ions in fractional coordinates (direct lattice) 
   0.99999844  0.00000156  0.05579229
   0.33333173  0.16666826  0.17752397
   0.16662721  0.33377828  0.29760320
   0.99984301  0.00032237  0.41878877
   0.99999844  0.25000155  0.05579229
   0.33333172  0.41666827  0.17752397
   0.16667514  0.08353727  0.29733601
   0.99983636  0.25040930  0.41917228
   0.24999844  0.25000155  0.05579229
   0.08333172  0.41666827  0.17752397
   0.41648905  0.08338698  0.29760565
   0.24983706  0.25034148  0.41836356
   0.24999844  0.00000156  0.05579229
   0.08333172  0.16666826  0.17752397
   0.41683321  0.33329116  0.29741059
   0.24977155  0.00043365  0.42068000
   0.49999844  0.00000156  0.05579229
   0.83333168  0.16666826  0.17752397
   0.66671828  0.33359337  0.29759297
   0.49983434  0.00043145  0.41887843
   0.49999843  0.25000155  0.05579229
   0.83333168  0.41666827  0.17752397
   0.66676172  0.08333491  0.29781276
   0.49990520  0.25026089  0.41960119
   0.74999841  0.25000155  0.05579229
   0.58333168  0.41666827  0.17752397
   0.91638425  0.08346213  0.29792330
   0.74970174  0.25028358  0.41887213
   0.74999842  0.00000156  0.05579229
   0.58333166  0.16666826  0.17752397
   0.91668334  0.33365994  0.29728126
   0.74977195  0.00031684  0.42135745
   0.99999844  0.50000154  0.05579229
   0.33333171  0.66666826  0.17752397
   0.16659978  0.83370324  0.29768132
   0.99970334  0.50022143  0.41888469
   0.99999843  0.75000151  0.05579229
   0.33333173  0.91666828  0.17752397
   0.16662563  0.58345020  0.29752708
   0.99983605  0.75027226  0.41916075
   0.24999843  0.75000151  0.05579229
   0.08333173  0.91666828  0.17752397
   0.41630455  0.58353933  0.29759428
   0.24988797  0.75037903  0.41888503
   0.24999844  0.50000154  0.05579229
   0.08333171  0.66666826  0.17752397
   0.41641583  0.83343056  0.29727494
   0.24972055  0.50037627  0.42068208
   0.49999844  0.50000154  0.05579229
   0.83333171  0.66666826  0.17752397
   0.66664577  0.83374098  0.29793349
   0.49976118  0.50030218  0.41835010
   0.49999843  0.75000151  0.05579229
   0.83333170  0.91666828  0.17752397
   0.66652699  0.58341277  0.29729564
   0.49966885  0.75027953  0.41924869
   0.74999841  0.75000151  0.05579229
   0.58333168  0.91666828  0.17752397
   0.91637659  0.58344451  0.29767451
   0.74977697  0.75030579  0.41876893
   0.74999839  0.50000154  0.05579229
   0.58333166  0.66666826  0.17752397
   0.91648308  0.83358199  0.29733129
   0.74964771  0.50036404  0.42062416
   0.38073423  0.41149828  0.56778846
   0.37201470  0.33703127  0.57340953
 
 position of ions in cartesian coordinates  (Angst):
  10.55997578  0.00001422  1.11584590
   2.63997474  1.52421935  3.55047947
  -0.00276598  3.05247866  5.95206399
  10.55664049  0.00294812  8.37577548
   9.23997574  2.28632132  1.11584590
   1.31997457  3.81052657  3.55047947
   1.31901270  0.76396743  5.94672017
   9.23611125  2.29005030  8.38344551
   1.31997542  2.28632132  1.11584590
  -1.32002553  3.81052657  3.55047947
   3.95784129  0.76259302  5.95211302
   1.31647640  2.28943004  8.36727124
   2.63997547  0.00001422  1.11584590
  -0.00002541  1.52421935  3.55047947
   2.64198153  3.04802382  5.94821177
   2.63529800  0.00396584  8.41360009
   5.27997557  0.00001422  1.11584590
   7.91997448  1.52421935  3.55047947
   5.27917229  3.05078764  5.95185940
   5.27597276  0.00394574  8.37756860
   3.95997540  2.28632132  1.11584590
   6.59997431  3.81052657  3.55047947
   6.60099574  0.76211680  5.95625524
   3.95762161  2.28869305  8.39202380
   6.59997527  2.28632132  1.11584590
   3.95997420  3.81052657  3.55047947
   9.23633804  0.76328023  5.95846595
   6.59535331  2.28890060  8.37744257
   7.91997543  0.00001422  1.11584590
   5.27997414  1.52421935  3.55047947
   7.91845189  3.05139641  5.94562528
   7.91591922  0.00289755  8.42714901
   7.91997567  4.57262842  1.11584590
  -0.00002559  6.09683366  3.55047947
  -2.64265959  7.62440675  5.95362630
   7.91569847  4.57463935  8.37769386
   6.59997574  6.85893527  1.11584590
  -1.32002553  8.38314100  3.55047947
  -1.32105044  5.33578547  5.95054153
   6.59683138  6.86141137  8.38321505
  -1.32002457  6.85893527  1.11584590
  -3.96002563  8.38314100  3.55047947
   1.31508842  5.33660061  5.95188562
  -1.32318435  6.86238783  8.37770054
  -0.00002464  4.57262842  1.11584590
  -2.64002570  6.09683366  3.55047947
  -0.00316217  7.62191303  5.94549878
  -0.00493771  4.57605541  8.41364153
   2.63997546  4.57262842  1.11584590
   5.27997462  6.09683366  3.55047947
   2.63762705  7.62475184  5.95866974
   2.63588271  4.57537779  8.36700194
   1.31997553  6.85893527  1.11584590
   3.95997444  8.38314100  3.55047947
   3.95810574  5.33544315  5.94591281
   1.31502716  6.86147782  8.38497384
   3.95997540  6.85893527  1.11584590
   1.31997410  8.38314100  3.55047947
   6.59635000  5.33573346  5.95349013
   3.95603040  6.86171795  8.37537869
   5.27997509  4.57262842  1.11584590
   2.63997404  6.09683366  3.55047947
   5.27674858  7.62329788  5.94662582
   5.27435787  4.57594355  8.41248311
   1.84784269  3.76324582 11.35576920
   2.14895022  3.08222804 11.46819060
 


--------------------------------------------------------------------------------------------------------


 k-point  1 :   0.0000 0.0000 0.0000  plane waves:   56579
 k-point  2 :   0.5000-0.0000 0.0000  plane waves:   56606
 k-point  3 :   0.0000 0.5000 0.0000  plane waves:   56606
 k-point  4 :   0.5000 0.5000 0.0000  plane waves:   56606

 maximum and minimum number of plane-waves per node :     14185    14108

 maximum number of plane-waves:     56606
 maximum index in each direction: 
   IXMAX=   20   IYMAX=   20   IZMAX=   38
   IXMIN=  -20   IYMIN=  -20   IZMIN=  -38


 real space projection operators:
  total allocation   :      71361.37 KBytes
  max/ min on nodes  :      17848.36      17834.06


 parallel 3D FFT for wavefunctions:
    minimum data exchange during FFTs selected (reduces bandwidth)
 parallel 3D FFT for charge:
    minimum data exchange during FFTs selected (reduces bandwidth)


 total amount of memory used by VASP MPI-rank0   200784. kBytes
=======================================================================

   base      :      30000. kBytes
   nonlr-proj:      31126. kBytes
   fftplans  :      17093. kBytes
   grid      :      44247. kBytes
   one-center:        528. kBytes
   wavefun   :      77790. kBytes
 
     INWAV:  cpu time    0.0000: real time    0.0000
 Broyden mixing: mesh for mixing (old mesh)
   NGX = 41   NGY = 41   NGZ = 77
  (NGX  =168   NGY  =168   NGZ  =320)
  gives a total of 129437 points

 initial charge density was supplied:
 charge density of overlapping atoms calculated
 number of electron     642.0000000 magnetization      66.0000000
 keeping initial charge density in first step


--------------------------------------------------------------------------------------------------------


 Maximum index for non-local projection operator         2015
 Maximum index for augmentation-charges         2179 (set IRDMAX)


--------------------------------------------------------------------------------------------------------


 First call to EWALD:  gamma=   0.142
 Maximum number of real-space cells 4x 4x 2
 Maximum number of reciprocal cells 2x 2x 4

    FEWALD:  cpu time    0.0041: real time    0.0041


--------------------------------------- Iteration      1(   1)  ---------------------------------------


    POTLOK:  cpu time    0.3969: real time    0.4255
    SETDIJ:  cpu time    0.0329: real time    0.0333
     EDDAV:  cpu time   43.2116: real time   43.6017
       DOS:  cpu time    0.0027: real time    0.0027
    --------------------------------------------
      LOOP:  cpu time   43.6441: real time   44.0633

 eigenvalue-minimisations  :  6720
 total energy-change (2. order) : 0.4498606E+04  (-0.3125363E+05)
 number of electron     642.0000000 magnetization      66.0000000
 augmentation part      642.0000000 magnetization      66.0000000

 Free energy of the ion-electron system (eV)
  ---------------------------------------------------
  alpha Z        PSCENC =      2023.78361127
  Ewald energy   TEWEN  =    124891.99671899
  -Hartree energ DENC   =   -176005.96352598
  -exchange      EXHF   =         0.00000000
  -V(xc)+E(xc)   XCENC  =       247.23427813
  PAW double counting   =     44550.55032729   -42740.70693553
  entropy T*S    EENTRO =         0.00120919
  eigenvalues    EBANDS =      4843.34026643
  atomic energy  EATOM  =     46688.37031544
  Solvation  Ediel_sol  =         0.00000000
  ---------------------------------------------------
  free energy    TOTEN  =      4498.60626523 eV

  energy without entropy =     4498.60505604  energy(sigma->0) =     4498.60586216


--------------------------------------------------------------------------------------------------------




--------------------------------------- Iteration      1(   2)  ---------------------------------------


     EDDAV:  cpu time   47.3431: real time   47.4740
       DOS:  cpu time    0.0016: real time    0.0016
    --------------------------------------------
      LOOP:  cpu time   47.3448: real time   47.4756

 eigenvalue-minimisations  :  7510
 total energy-change (2. order) :-0.4631064E+04  (-0.4245651E+04)
 number of electron     642.0000000 magnetization      66.0000000
 augmentation part      642.0000000 magnetization      66.0000000

 Free energy of the ion-electron system (eV)
  ---------------------------------------------------
  alpha Z        PSCENC =      2023.78361127
  Ewald energy   TEWEN  =    124891.99671899
  -Hartree energ DENC   =   -176005.96352598
  -exchange      EXHF   =         0.00000000
  -V(xc)+E(xc)   XCENC  =       247.23427813
  PAW double counting   =     44550.55032729   -42740.70693553
  entropy T*S    EENTRO =        -0.00075287
  eigenvalues    EBANDS =       212.27872430
  atomic energy  EATOM  =     46688.37031544
  Solvation  Ediel_sol  =         0.00000000
  ---------------------------------------------------
  free energy    TOTEN  =      -132.45723895 eV

  energy without entropy =     -132.45648608  energy(sigma->0) =     -132.45698800


--------------------------------------------------------------------------------------------------------




--------------------------------------- Iteration      1(   3)  ---------------------------------------


     EDDAV:  cpu time   47.8693: real time   48.0019
       DOS:  cpu time    0.0019: real time    0.0019
    --------------------------------------------
      LOOP:  cpu time   47.8712: real time   48.0038

 eigenvalue-minimisations  :  7620
 total energy-change (2. order) :-0.2474759E+03  (-0.2286853E+03)
 number of electron     642.0000000 magnetization      66.0000000
 augmentation part      642.0000000 magnetization      66.0000000

 Free energy of the ion-electron system (eV)
  ---------------------------------------------------
  alpha Z        PSCENC =      2023.78361127
  Ewald energy   TEWEN  =    124891.99671899
  -Hartree energ DENC   =   -176005.96352598
  -exchange      EXHF   =         0.00000000
  -V(xc)+E(xc)   XCENC  =       247.23427813
  PAW double counting   =     44550.55032729   -42740.70693553
  entropy T*S    EENTRO =         0.00918852
  eigenvalues    EBANDS =       -35.20707294
  atomic energy  EATOM  =     46688.37031544
  Solvation  Ediel_sol  =         0.00000000
  ---------------------------------------------------
  free energy    TOTEN  =      -379.93309480 eV

  energy without entropy =     -379.94228333  energy(sigma->0) =     -379.93615764


--------------------------------------------------------------------------------------------------------




--------------------------------------- Iteration      1(   4)  ---------------------------------------


     EDDAV:  cpu time   49.3526: real time   49.4994
       DOS:  cpu time    0.0024: real time    0.0024
    --------------------------------------------
      LOOP:  cpu time   49.3550: real time   49.5018

 eigenvalue-minimisations  :  7930
 total energy-change (2. order) :-0.6560094E+01  (-0.6493140E+01)
 number of electron     642.0000000 magnetization      66.0000000
 augmentation part      642.0000000 magnetization      66.0000000

 Free energy of the ion-electron system (eV)
  ---------------------------------------------------
  alpha Z        PSCENC =      2023.78361127
  Ewald energy   TEWEN  =    124891.99671899
  -Hartree energ DENC   =   -176005.96352598
  -exchange      EXHF   =         0.00000000
  -V(xc)+E(xc)   XCENC  =       247.23427813
  PAW double counting   =     44550.55032729   -42740.70693553
  entropy T*S    EENTRO =         0.00707386
  eigenvalues    EBANDS =       -41.76505205
  atomic energy  EATOM  =     46688.37031544
  Solvation  Ediel_sol  =         0.00000000
  ---------------------------------------------------
  free energy    TOTEN  =      -386.49318858 eV

  energy without entropy =     -386.50026244  energy(sigma->0) =     -386.49554653


--------------------------------------------------------------------------------------------------------




--------------------------------------- Iteration      1(   5)  ---------------------------------------


     EDDAV:  cpu time   49.0831: real time   49.2135
       DOS:  cpu time    0.0016: real time    0.0016
    CHARGE:  cpu time    3.1434: real time    3.1523
    MIXING:  cpu time    0.0101: real time    0.0107
    --------------------------------------------
      LOOP:  cpu time   52.2383: real time   52.3782

 eigenvalue-minimisations  :  8090
 total energy-change (2. order) :-0.2354819E+00  (-0.2349469E+00)
 number of electron     642.0000102 magnetization      59.6639995
 augmentation part      186.0253508 magnetization      47.5890036

 Broyden mixing:
  rms(total) = 0.10530E+02    rms(broyden)= 0.10530E+02
  rms(prec ) = 0.10631E+02
  weight for this iteration     100.00

 Free energy of the ion-electron system (eV)
  ---------------------------------------------------
  alpha Z        PSCENC =      2023.78361127
  Ewald energy   TEWEN  =    124891.99671899
  -Hartree energ DENC   =   -176005.96352598
  -exchange      EXHF   =         0.00000000
  -V(xc)+E(xc)   XCENC  =       247.23427813
  PAW double counting   =     44550.55032729   -42740.70693553
  entropy T*S    EENTRO =         0.00738599
  eigenvalues    EBANDS =       -42.00084607
  atomic energy  EATOM  =     46688.37031544
  Solvation  Ediel_sol  =         0.00000000
  ---------------------------------------------------
  free energy    TOTEN  =      -386.72867047 eV

  energy without entropy =     -386.73605646  energy(sigma->0) =     -386.73113246


--------------------------------------------------------------------------------------------------------




--------------------------------------- Iteration      1(   6)  ---------------------------------------


    POTLOK:  cpu time    0.3811: real time    0.3820
    SETDIJ:  cpu time    0.0323: real time    0.0324
    EDDIAG:  cpu time    7.5511: real time    7.5729
  RMM-DIIS:  cpu time   27.6390: real time   27.7307
    ORTHCH:  cpu time    0.6442: real time    0.6457
       DOS:  cpu time    0.0017: real time    0.0017
    CHARGE:  cpu time    3.1138: real time    3.1223
    MIXING:  cpu time    0.0108: real time    0.0110
    --------------------------------------------
      LOOP:  cpu time   39.3739: real time   39.4988

 eigenvalue-minimisations  :  6762
 total energy-change (2. order) : 0.2398932E+02  (-0.7656658E+01)
 number of electron     642.0000108 magnetization      51.5897266
 augmentation part      194.9295500 magnetization      38.5535763

 Broyden mixing:
  rms(total) = 0.66923E+01    rms(broyden)= 0.66923E+01
  rms(prec ) = 0.69504E+01
  weight for this iteration     100.00

 eigenvalues of (default mixing * dielectric matrix)
  average eigenvalue GAMMA=   1.2871
  1.2871

 Free energy of the ion-electron system (eV)
  ---------------------------------------------------
  alpha Z        PSCENC =      2023.78361127
  Ewald energy   TEWEN  =    124891.99671899
  -Hartree energ DENC   =   -175388.23656649
  -exchange      EXHF   =         0.00000000
  -V(xc)+E(xc)   XCENC  =       238.19060064
  PAW double counting   =     50903.55824638   -49200.62963657
  entropy T*S    EENTRO =        -0.05194098
  eigenvalues    EBANDS =      -519.72069466
  atomic energy  EATOM  =     46688.37031544
  Solvation  Ediel_sol  =         0.00000000
  ---------------------------------------------------
  free energy    TOTEN  =      -362.73934598 eV

  energy without entropy =     -362.68740500  energy(sigma->0) =     -362.72203232


--------------------------------------------------------------------------------------------------------




--------------------------------------- Iteration      1(   7)  ---------------------------------------


    POTLOK:  cpu time    0.3788: real time    0.3799
    SETDIJ:  cpu time    0.0325: real time    0.0326
    EDDIAG:  cpu time    7.5289: real time    7.5496
  RMM-DIIS:  cpu time   27.3568: real time   27.4331
    ORTHCH:  cpu time    0.6592: real time    0.6607
       DOS:  cpu time    0.0016: real time    0.0016
    CHARGE:  cpu time    3.2246: real time    3.2338
    MIXING:  cpu time    0.0106: real time    0.0106
    --------------------------------------------
      LOOP:  cpu time   39.1930: real time   39.3020

 eigenvalue-minimisations  :  6737
 total energy-change (2. order) :-0.1031666E+03  (-0.1215269E+02)
 number of electron     642.0000114 magnetization      45.9882559
 augmentation part      192.9633848 magnetization      34.6628844

 Broyden mixing:
  rms(total) = 0.93024E+01    rms(broyden)= 0.93024E+01
  rms(prec ) = 0.11557E+02
  weight for this iteration     100.00

 eigenvalues of (default mixing * dielectric matrix)
  average eigenvalue GAMMA=   1.0668
  1.7898  0.3439

 Free energy of the ion-electron system (eV)
  ---------------------------------------------------
  alpha Z        PSCENC =      2023.78361127
  Ewald energy   TEWEN  =    124891.99671899
  -Hartree energ DENC   =   -175885.56552895
  -exchange      EXHF   =         0.00000000
  -V(xc)+E(xc)   XCENC  =       233.28097368
  PAW double counting   =     56634.11468694   -54995.85432421
  entropy T*S    EENTRO =        -0.01064142
  eigenvalues    EBANDS =       -56.02178924
  atomic energy  EATOM  =     46688.37031544
  Solvation  Ediel_sol  =         0.00000000
  ---------------------------------------------------
  free energy    TOTEN  =      -465.90597749 eV

  energy without entropy =     -465.89533608  energy(sigma->0) =     -465.90243036


--------------------------------------------------------------------------------------------------------




--------------------------------------- Iteration      1(   8)  ---------------------------------------


    POTLOK:  cpu time    0.3849: real time    0.3858
    SETDIJ:  cpu time    0.0331: real time    0.0332
    EDDIAG:  cpu time    7.5992: real time    7.6205
  RMM-DIIS:  cpu time   27.4175: real time   27.4936
    ORTHCH:  cpu time    0.6450: real time    0.6469
       DOS:  cpu time    0.0016: real time    0.0016
    CHARGE:  cpu time    3.0699: real time    3.0783
    MIXING:  cpu time    0.0106: real time    0.0107
    --------------------------------------------
      LOOP:  cpu time   39.1618: real time   39.2706

 eigenvalue-minimisations  :  6758
 total energy-change (2. order) : 0.1092765E+03  (-0.5097962E+01)
 number of electron     642.0000111 magnetization      43.5041285
 augmentation part      198.6494955 magnetization      31.1502876

 Broyden mixing:
  rms(total) = 0.31732E+01    rms(broyden)= 0.31732E+01
  rms(prec ) = 0.38896E+01
  weight for this iteration     100.00

 eigenvalues of (default mixing * dielectric matrix)
  average eigenvalue GAMMA=   0.9931
  2.1096  0.5493  0.3205

 Free energy of the ion-electron system (eV)
  ---------------------------------------------------
  alpha Z        PSCENC =      2023.78361127
  Ewald energy   TEWEN  =    124891.99671899
  -Hartree energ DENC   =   -175351.51675233
  -exchange      EXHF   =         0.00000000
  -V(xc)+E(xc)   XCENC  =       235.13322894
  PAW double counting   =     59874.28865553   -58275.79289058
  entropy T*S    EENTRO =        -0.10798505
  eigenvalues    EBANDS =      -442.78433944
  atomic energy  EATOM  =     46688.37031544
  Solvation  Ediel_sol  =         0.00000000
  ---------------------------------------------------
  free energy    TOTEN  =      -356.62943722 eV

  energy without entropy =     -356.52145218  energy(sigma->0) =     -356.59344221


--------------------------------------------------------------------------------------------------------




--------------------------------------- Iteration      1(   9)  ---------------------------------------


    POTLOK:  cpu time    0.3795: real time    0.3804
    SETDIJ:  cpu time    0.0322: real time    0.0323
    EDDIAG:  cpu time    7.5331: real time    7.5545
  RMM-DIIS:  cpu time   27.7321: real time   27.8094
    ORTHCH:  cpu time    0.6543: real time    0.6559
       DOS:  cpu time    0.0017: real time    0.0017
    CHARGE:  cpu time    3.1632: real time    3.1722
    MIXING:  cpu time    0.0113: real time    0.0113
    --------------------------------------------
      LOOP:  cpu time   39.5074: real time   39.6177

 eigenvalue-minimisations  :  6740
 total energy-change (2. order) :-0.2629288E+02  (-0.2370044E+01)
 number of electron     642.0000114 magnetization      41.0595301
 augmentation part      198.1940040 magnetization      33.6332384

 Broyden mixing:
  rms(total) = 0.53335E+01    rms(broyden)= 0.53335E+01
  rms(prec ) = 0.80019E+01
  weight for this iteration     100.00

 eigenvalues of (default mixing * dielectric matrix)
  average eigenvalue GAMMA=   0.8554
  2.2482  0.6787  0.3247  0.1700

 Free energy of the ion-electron system (eV)
  ---------------------------------------------------
  alpha Z        PSCENC =      2023.78361127
  Ewald energy   TEWEN  =    124891.99671899
  -Hartree energ DENC   =   -175317.84296132
  -exchange      EXHF   =         0.00000000
  -V(xc)+E(xc)   XCENC  =       233.42162851
  PAW double counting   =     60377.45472461   -58781.26292586
  entropy T*S    EENTRO =         0.00101769
  eigenvalues    EBANDS =      -498.84444490
  atomic energy  EATOM  =     46688.37031544
  Solvation  Ediel_sol  =         0.00000000
  ---------------------------------------------------
  free energy    TOTEN  =      -382.92231558 eV

  energy without entropy =     -382.92333327  energy(sigma->0) =     -382.92265481


--------------------------------------------------------------------------------------------------------




--------------------------------------- Iteration      1(  10)  ---------------------------------------


    POTLOK:  cpu time    0.3841: real time    0.3850
    SETDIJ:  cpu time    0.0339: real time    0.0340
    EDDIAG:  cpu time    7.6411: real time    7.6622
  RMM-DIIS:  cpu time   27.9067: real time   27.9845
    ORTHCH:  cpu time    0.6574: real time    0.6590
       DOS:  cpu time    0.0016: real time    0.0016
    CHARGE:  cpu time    3.1523: real time    3.1610
    MIXING:  cpu time    0.0115: real time    0.0115
    --------------------------------------------
      LOOP:  cpu time   39.7886: real time   39.8988

 eigenvalue-minimisations  :  6759
 total energy-change (2. order) : 0.1690317E+02  (-0.8628779E+00)
 number of electron     642.0000109 magnetization      39.0496822
 augmentation part      197.6513824 magnetization      30.3961645

 Broyden mixing:
  rms(total) = 0.33410E+01    rms(broyden)= 0.33410E+01
  rms(prec ) = 0.42783E+01
  weight for this iteration     100.00

 eigenvalues of (default mixing * dielectric matrix)
  average eigenvalue GAMMA=   0.7533
  2.2861  0.7510  0.3002  0.3002  0.1291

 Free energy of the ion-electron system (eV)
  ---------------------------------------------------
  alpha Z        PSCENC =      2023.78361127
  Ewald energy   TEWEN  =    124891.99671899
  -Hartree energ DENC   =   -175379.10364918
  -exchange      EXHF   =         0.00000000
  -V(xc)+E(xc)   XCENC  =       232.78128418
  PAW double counting   =     60771.60996369   -59176.87359710
  entropy T*S    EENTRO =         0.10041253
  eigenvalues    EBANDS =      -418.68420875
  atomic energy  EATOM  =     46688.37031544
  Solvation  Ediel_sol  =         0.00000000
  ---------------------------------------------------
  free energy    TOTEN  =      -366.01914894 eV

  energy without entropy =     -366.11956146  energy(sigma->0) =     -366.05261978


--------------------------------------------------------------------------------------------------------




--------------------------------------- Iteration      1(  11)  ---------------------------------------


    POTLOK:  cpu time    0.3842: real time    0.3855
    SETDIJ:  cpu time    0.0328: real time    0.0329
    EDDIAG:  cpu time    7.6387: real time    7.6598
  RMM-DIIS:  cpu time   27.9276: real time   28.0050
    ORTHCH:  cpu time    0.6525: real time    0.6541
       DOS:  cpu time    0.0015: real time    0.0015
    CHARGE:  cpu time    3.1321: real time    3.1406
    MIXING:  cpu time    0.0115: real time    0.0115
    --------------------------------------------
      LOOP:  cpu time   39.7808: real time   39.8908

 eigenvalue-minimisations  :  6746
 total energy-change (2. order) : 0.8824463E+01  (-0.3603232E+00)
 number of electron     642.0000108 magnetization      37.3040302
 augmentation part      197.6117208 magnetization      26.8542527

 Broyden mixing:
  rms(total) = 0.14378E+01    rms(broyden)= 0.14378E+01
  rms(prec ) = 0.15760E+01
  weight for this iteration     100.00

 eigenvalues of (default mixing * dielectric matrix)
  average eigenvalue GAMMA=   0.7212
  2.2160  0.6885  0.6885  0.3071  0.3071  0.1198

 Free energy of the ion-electron system (eV)
  ---------------------------------------------------
  alpha Z        PSCENC =      2023.78361127
  Ewald energy   TEWEN  =    124891.99671899
  -Hartree energ DENC   =   -175388.87307491
  -exchange      EXHF   =         0.00000000
  -V(xc)+E(xc)   XCENC  =       232.19814240
  PAW double counting   =     60954.39740831   -59360.82894826
  entropy T*S    EENTRO =         0.02603502
  eigenvalues    EBANDS =      -398.26489464
  atomic energy  EATOM  =     46688.37031544
  Solvation  Ediel_sol  =         0.00000000
  ---------------------------------------------------
  free energy    TOTEN  =      -357.19468638 eV

  energy without entropy =     -357.22072140  energy(sigma->0) =     -357.20336472


--------------------------------------------------------------------------------------------------------




--------------------------------------- Iteration      1(  12)  ---------------------------------------


    POTLOK:  cpu time    0.3859: real time    0.3871
    SETDIJ:  cpu time    0.0327: real time    0.0328
    EDDIAG:  cpu time    7.6429: real time    7.6637
  RMM-DIIS:  cpu time   27.4277: real time   27.5042
    ORTHCH:  cpu time    0.6456: real time    0.6474
       DOS:  cpu time    0.0017: real time    0.0017
    CHARGE:  cpu time    3.0904: real time    3.0990
    MIXING:  cpu time    0.0106: real time    0.0106
    --------------------------------------------
      LOOP:  cpu time   39.2375: real time   39.3466

 eigenvalue-minimisations  :  6764
 total energy-change (2. order) :-0.1543262E+01  (-0.1516674E+00)
 number of electron     642.0000108 magnetization      34.4469404
 augmentation part      197.4630990 magnetization      24.4002572

 Broyden mixing:
  rms(total) = 0.10193E+01    rms(broyden)= 0.10193E+01
  rms(prec ) = 0.10792E+01
  weight for this iteration     100.00

 eigenvalues of (default mixing * dielectric matrix)
  average eigenvalue GAMMA=   0.7246
  2.2163  0.8529  0.6294  0.6294  0.3118  0.3118  0.1203

 Free energy of the ion-electron system (eV)
  ---------------------------------------------------
  alpha Z        PSCENC =      2023.78361127
  Ewald energy   TEWEN  =    124891.99671899
  -Hartree energ DENC   =   -175387.83227055
  -exchange      EXHF   =         0.00000000
  -V(xc)+E(xc)   XCENC  =       231.26169654
  PAW double counting   =     60710.56887883   -59114.94576617
  entropy T*S    EENTRO =         0.03640198
  eigenvalues    EBANDS =      -401.97753493
  atomic energy  EATOM  =     46688.37031544
  Solvation  Ediel_sol  =         0.00000000
  ---------------------------------------------------
  free energy    TOTEN  =      -358.73794860 eV

  energy without entropy =     -358.77435058  energy(sigma->0) =     -358.75008259


--------------------------------------------------------------------------------------------------------




--------------------------------------- Iteration      1(  13)  ---------------------------------------


    POTLOK:  cpu time    0.3852: real time    0.3861
    SETDIJ:  cpu time    0.0320: real time    0.0320
    EDDIAG:  cpu time    7.5271: real time    7.5482
  RMM-DIIS:  cpu time   27.4745: real time   27.5507
    ORTHCH:  cpu time    0.6432: real time    0.6451
       DOS:  cpu time    0.0018: real time    0.0018
    CHARGE:  cpu time    3.0802: real time    3.0887
    MIXING:  cpu time    0.0108: real time    0.0108
    --------------------------------------------
      LOOP:  cpu time   39.1546: real time   39.2635

 eigenvalue-minimisations  :  6772
 total energy-change (2. order) :-0.1663273E+01  (-0.5375177E-01)
 number of electron     642.0000108 magnetization      31.0530984
 augmentation part      197.3163315 magnetization      20.9621384

 Broyden mixing:
  rms(total) = 0.81675E+00    rms(broyden)= 0.81675E+00
  rms(prec ) = 0.87019E+00
  weight for this iteration     100.00

 eigenvalues of (default mixing * dielectric matrix)
  average eigenvalue GAMMA=   0.7531
  2.2179  1.0036  0.7958  0.7958  0.4579  0.3167  0.3167  0.1204

 Free energy of the ion-electron system (eV)
  ---------------------------------------------------
  alpha Z        PSCENC =      2023.78361127
  Ewald energy   TEWEN  =    124891.99671899
  -Hartree energ DENC   =   -175401.20319084
  -exchange      EXHF   =         0.00000000
  -V(xc)+E(xc)   XCENC  =       230.29233151
  PAW double counting   =     60747.76849930   -59152.54766408
  entropy T*S    EENTRO =         0.00955854
  eigenvalues    EBANDS =      -388.87140128
  atomic energy  EATOM  =     46688.37031544
  Solvation  Ediel_sol  =         0.00000000
  ---------------------------------------------------
  free energy    TOTEN  =      -360.40122115 eV

  energy without entropy =     -360.41077969  energy(sigma->0) =     -360.40440733


--------------------------------------------------------------------------------------------------------




--------------------------------------- Iteration      1(  14)  ---------------------------------------


    POTLOK:  cpu time    0.3838: real time    0.3847
    SETDIJ:  cpu time    0.0318: real time    0.0318
    EDDIAG:  cpu time    7.5226: real time    7.5440
  RMM-DIIS:  cpu time   27.4721: real time   27.5483
    ORTHCH:  cpu time    0.6494: real time    0.6513
       DOS:  cpu time    0.0017: real time    0.0017
    CHARGE:  cpu time    3.1392: real time    3.1478
    MIXING:  cpu time    0.0118: real time    0.0119
    --------------------------------------------
      LOOP:  cpu time   39.2126: real time   39.3217

 eigenvalue-minimisations  :  6756
 total energy-change (2. order) :-0.2801496E+01  (-0.1002350E+00)
 number of electron     642.0000108 magnetization      26.5491041
 augmentation part      197.1843106 magnetization      16.4400060

 Broyden mixing:
  rms(total) = 0.84899E+00    rms(broyden)= 0.84899E+00
  rms(prec ) = 0.94803E+00
  weight for this iteration     100.00

 eigenvalues of (default mixing * dielectric matrix)
  average eigenvalue GAMMA=   0.7799
  2.0492  1.9029  0.8911  0.5923  0.5923  0.1203  0.3117  0.3117  0.2474

 Free energy of the ion-electron system (eV)
  ---------------------------------------------------
  alpha Z        PSCENC =      2023.78361127
  Ewald energy   TEWEN  =    124891.99671899
  -Hartree energ DENC   =   -175410.53846061
  -exchange      EXHF   =         0.00000000
  -V(xc)+E(xc)   XCENC  =       228.72163538
  PAW double counting   =     60739.03498039   -59143.94021066
  entropy T*S    EENTRO =         0.01029645
  eigenvalues    EBANDS =      -380.64160344
  atomic energy  EATOM  =     46688.37031544
  Solvation  Ediel_sol  =         0.00000000
  ---------------------------------------------------
  free energy    TOTEN  =      -363.20271680 eV

  energy without entropy =     -363.21301325  energy(sigma->0) =     -363.20614895


--------------------------------------------------------------------------------------------------------




--------------------------------------- Iteration      1(  15)  ---------------------------------------


    POTLOK:  cpu time    0.3802: real time    0.3815
    SETDIJ:  cpu time    0.0319: real time    0.0320
    EDDIAG:  cpu time    7.5241: real time    7.5448
  RMM-DIIS:  cpu time   27.9618: real time   28.0394
    ORTHCH:  cpu time    0.6554: real time    0.6573
       DOS:  cpu time    0.0017: real time    0.0017
    CHARGE:  cpu time    3.1411: real time    3.1497
    MIXING:  cpu time    0.0134: real time    0.0134
    --------------------------------------------
      LOOP:  cpu time   39.7095: real time   39.8197

 eigenvalue-minimisations  :  6756
 total energy-change (2. order) :-0.3570875E+01  (-0.1650371E+00)
 number of electron     642.0000108 magnetization      23.9976911
 augmentation part      197.0908351 magnetization      14.0952180

 Broyden mixing:
  rms(total) = 0.50431E+00    rms(broyden)= 0.50431E+00
  rms(prec ) = 0.55621E+00
  weight for this iteration     100.00

 eigenvalues of (default mixing * dielectric matrix)
  average eigenvalue GAMMA=   0.8189
  2.2776  2.2776  0.8218  0.6043  0.6043  0.6249  0.3155  0.3155  0.1203  0.2271

 Free energy of the ion-electron system (eV)
  ---------------------------------------------------
  alpha Z        PSCENC =      2023.78361127
  Ewald energy   TEWEN  =    124891.99671899
  -Hartree energ DENC   =   -175414.77928733
  -exchange      EXHF   =         0.00000000
  -V(xc)+E(xc)   XCENC  =       226.46687184
  PAW double counting   =     60645.95123864   -59050.32557831
  entropy T*S    EENTRO =        -0.00366681
  eigenvalues    EBANDS =      -378.23381594
  atomic energy  EATOM  =     46688.37031544
  Solvation  Ediel_sol  =         0.00000000
  ---------------------------------------------------
  free energy    TOTEN  =      -366.77359221 eV

  energy without entropy =     -366.76992540  energy(sigma->0) =     -366.77236994


--------------------------------------------------------------------------------------------------------




--------------------------------------- Iteration      1(  16)  ---------------------------------------


    POTLOK:  cpu time    0.3847: real time    0.3856
    SETDIJ:  cpu time    0.0326: real time    0.0329
    EDDIAG:  cpu time    7.6304: real time    7.6514
  RMM-DIIS:  cpu time   28.0312: real time   28.1089
    ORTHCH:  cpu time    0.6483: real time    0.6502
       DOS:  cpu time    0.0017: real time    0.0017
    CHARGE:  cpu time    3.1417: real time    3.1503
    MIXING:  cpu time    0.0138: real time    0.0138
    --------------------------------------------
      LOOP:  cpu time   39.8844: real time   39.9949

 eigenvalue-minimisations  :  6753
 total energy-change (2. order) :-0.2642144E+01  (-0.1340230E+00)
 number of electron     642.0000108 magnetization      21.7979293
 augmentation part      197.0499758 magnetization      12.6071288

 Broyden mixing:
  rms(total) = 0.39421E+00    rms(broyden)= 0.39421E+00
  rms(prec ) = 0.42519E+00
  weight for this iteration     100.00

 eigenvalues of (default mixing * dielectric matrix)
  average eigenvalue GAMMA=   0.8725
  2.5777  2.5777  0.9379  0.9379  0.6207  0.6207  0.1203  0.3207  0.3207  0.3399
  0.2231

 Free energy of the ion-electron system (eV)
  ---------------------------------------------------
  alpha Z        PSCENC =      2023.78361127
  Ewald energy   TEWEN  =    124891.99671899
  -Hartree energ DENC   =   -175405.07244674
  -exchange      EXHF   =         0.00000000
  -V(xc)+E(xc)   XCENC  =       224.76539599
  PAW double counting   =     60546.40135685   -58949.93532187
  entropy T*S    EENTRO =         0.01360380
  eigenvalues    EBANDS =      -389.73897039
  atomic energy  EATOM  =     46688.37031544
  Solvation  Ediel_sol  =         0.00000000
  ---------------------------------------------------
  free energy    TOTEN  =      -369.41573666 eV

  energy without entropy =     -369.42934046  energy(sigma->0) =     -369.42027126


--------------------------------------------------------------------------------------------------------




--------------------------------------- Iteration      1(  17)  ---------------------------------------


    POTLOK:  cpu time    0.3863: real time    0.3873
    SETDIJ:  cpu time    0.0330: real time    0.0331
    EDDIAG:  cpu time    7.6348: real time    7.6563
  RMM-DIIS:  cpu time   27.9704: real time   28.0478
    ORTHCH:  cpu time    0.6478: real time    0.6498
       DOS:  cpu time    0.0016: real time    0.0016
    CHARGE:  cpu time    3.1408: real time    3.1495
    MIXING:  cpu time    0.0132: real time    0.0132
    --------------------------------------------
      LOOP:  cpu time   39.8280: real time   39.9386

 eigenvalue-minimisations  :  6743
 total energy-change (2. order) :-0.1812312E+01  (-0.9349648E-01)
 number of electron     642.0000108 magnetization      20.2290423
 augmentation part      197.0549345 magnetization      11.6584620

 Broyden mixing:
  rms(total) = 0.32535E+00    rms(broyden)= 0.32535E+00
  rms(prec ) = 0.34913E+00
  weight for this iteration     100.00

 eigenvalues of (default mixing * dielectric matrix)
  average eigenvalue GAMMA=   0.8935
  3.2177  2.3333  1.0921  1.0921  0.6330  0.6330  0.1203  0.4143  0.3188  0.3188
  0.3247  0.2242

 Free energy of the ion-electron system (eV)
  ---------------------------------------------------
  alpha Z        PSCENC =      2023.78361127
  Ewald energy   TEWEN  =    124891.99671899
  -Hartree energ DENC   =   -175390.82674017
  -exchange      EXHF   =         0.00000000
  -V(xc)+E(xc)   XCENC  =       223.38677355
  PAW double counting   =     60526.38803558   -58929.83126201
  entropy T*S    EENTRO =         0.03070075
  eigenvalues    EBANDS =      -404.52620236
  atomic energy  EATOM  =     46688.37031544
  Solvation  Ediel_sol  =         0.00000000
  ---------------------------------------------------
  free energy    TOTEN  =      -371.22804895 eV

  energy without entropy =     -371.25874970  energy(sigma->0) =     -371.23828253


--------------------------------------------------------------------------------------------------------




--------------------------------------- Iteration      1(  18)  ---------------------------------------


    POTLOK:  cpu time    0.3857: real time    0.3866
    SETDIJ:  cpu time    0.0334: real time    0.0335
    EDDIAG:  cpu time    7.6263: real time    7.6480
  RMM-DIIS:  cpu time   27.9637: real time   28.0414
    ORTHCH:  cpu time    0.6501: real time    0.6521
       DOS:  cpu time    0.0017: real time    0.0017
    CHARGE:  cpu time    3.1361: real time    3.1447
    MIXING:  cpu time    0.0143: real time    0.0143
    --------------------------------------------
      LOOP:  cpu time   39.8113: real time   39.9223

 eigenvalue-minimisations  :  6753
 total energy-change (2. order) :-0.6993958E+00  (-0.3256278E-01)
 number of electron     642.0000108 magnetization      18.0636320
 augmentation part      197.0907949 magnetization       9.6187193

 Broyden mixing:
  rms(total) = 0.22926E+00    rms(broyden)= 0.22926E+00
  rms(prec ) = 0.24629E+00
  weight for this iteration     100.00

 eigenvalues of (default mixing * dielectric matrix)
  average eigenvalue GAMMA=   0.9473
  4.1691  2.1458  1.1508  1.1508  0.7608  0.6232  0.6232  0.1203  0.4293  0.3168
  0.3168  0.2832  0.2245

 Free energy of the ion-electron system (eV)
  ---------------------------------------------------
  alpha Z        PSCENC =      2023.78361127
  Ewald energy   TEWEN  =    124891.99671899
  -Hartree energ DENC   =   -175379.60349105
  -exchange      EXHF   =         0.00000000
  -V(xc)+E(xc)   XCENC  =       222.69862121
  PAW double counting   =     60563.03655157   -58967.00024960
  entropy T*S    EENTRO =         0.02753104
  eigenvalues    EBANDS =      -415.23705363
  atomic energy  EATOM  =     46688.37031544
  Solvation  Ediel_sol  =         0.00000000
  ---------------------------------------------------
  free energy    TOTEN  =      -371.92744476 eV

  energy without entropy =     -371.95497580  energy(sigma->0) =     -371.93662178


--------------------------------------------------------------------------------------------------------




--------------------------------------- Iteration      1(  19)  ---------------------------------------


    POTLOK:  cpu time    0.3859: real time    0.3868
    SETDIJ:  cpu time    0.0330: real time    0.0331
    EDDIAG:  cpu time    7.6357: real time    7.6574
  RMM-DIIS:  cpu time   27.9579: real time   28.0352
    ORTHCH:  cpu time    0.6505: real time    0.6523
       DOS:  cpu time    0.0017: real time    0.0017
    CHARGE:  cpu time    3.1411: real time    3.1497
    MIXING:  cpu time    0.0149: real time    0.0150
    --------------------------------------------
      LOOP:  cpu time   39.8207: real time   39.9312

 eigenvalue-minimisations  :  6738
 total energy-change (2. order) :-0.5468578E+00  (-0.2823698E-01)
 number of electron     642.0000108 magnetization      16.9815268
 augmentation part      197.1657378 magnetization       8.5784525

 Broyden mixing:
  rms(total) = 0.25589E+00    rms(broyden)= 0.25589E+00
  rms(prec ) = 0.28736E+00
  weight for this iteration     100.00

 eigenvalues of (default mixing * dielectric matrix)
  average eigenvalue GAMMA=   0.9891
  5.0378  2.1694  1.2164  1.2164  0.9185  0.6366  0.6366  0.1203  0.3871  0.3871
  0.3136  0.3136  0.2240  0.2703

 Free energy of the ion-electron system (eV)
  ---------------------------------------------------
  alpha Z        PSCENC =      2023.78361127
  Ewald energy   TEWEN  =    124891.99671899
  -Hartree energ DENC   =   -175363.84840283
  -exchange      EXHF   =         0.00000000
  -V(xc)+E(xc)   XCENC  =       222.04494745
  PAW double counting   =     60596.41919214   -59000.91107470
  entropy T*S    EENTRO =        -0.00074222
  eigenvalues    EBANDS =      -430.32886811
  atomic energy  EATOM  =     46688.37031544
  Solvation  Ediel_sol  =         0.00000000
  ---------------------------------------------------
  free energy    TOTEN  =      -372.47430257 eV

  energy without entropy =     -372.47356035  energy(sigma->0) =     -372.47405516


--------------------------------------------------------------------------------------------------------




--------------------------------------- Iteration      1(  20)  ---------------------------------------


    POTLOK:  cpu time    0.3720: real time    0.3729
    SETDIJ:  cpu time    0.0329: real time    0.0330
    EDDIAG:  cpu time    7.6252: real time    7.6466
  RMM-DIIS:  cpu time   28.0374: real time   28.1149
    ORTHCH:  cpu time    0.6478: real time    0.6497
       DOS:  cpu time    0.0018: real time    0.0018
    CHARGE:  cpu time    3.1358: real time    3.1446
    MIXING:  cpu time    0.0146: real time    0.0146
    --------------------------------------------
      LOOP:  cpu time   39.8675: real time   39.9780

 eigenvalue-minimisations  :  6760
 total energy-change (2. order) :-0.1645064E+00  (-0.9239255E-02)
 number of electron     642.0000108 magnetization      16.5215488
 augmentation part      197.1825916 magnetization       8.4263401

 Broyden mixing:
  rms(total) = 0.20007E+00    rms(broyden)= 0.20007E+00
  rms(prec ) = 0.21917E+00
  weight for this iteration     100.00

 eigenvalues of (default mixing * dielectric matrix)
  average eigenvalue GAMMA=   1.0060
  5.5765  2.2029  1.3231  1.3231  0.8514  0.6934  0.6934  0.4503  0.4503  0.1203
  0.3160  0.3160  0.2986  0.2241  0.2500

 Free energy of the ion-electron system (eV)
  ---------------------------------------------------
  alpha Z        PSCENC =      2023.78361127
  Ewald energy   TEWEN  =    124891.99671899
  -Hartree energ DENC   =   -175353.67802232
  -exchange      EXHF   =         0.00000000
  -V(xc)+E(xc)   XCENC  =       221.81972477
  PAW double counting   =     60578.73783166   -58982.93921753
  entropy T*S    EENTRO =        -0.00644054
  eigenvalues    EBANDS =      -440.72333068
  atomic energy  EATOM  =     46688.37031544
  Solvation  Ediel_sol  =         0.00000000
  ---------------------------------------------------
  free energy    TOTEN  =      -372.63880893 eV

  energy without entropy =     -372.63236840  energy(sigma->0) =     -372.63666209


--------------------------------------------------------------------------------------------------------




--------------------------------------- Iteration      1(  21)  ---------------------------------------


    POTLOK:  cpu time    0.3850: real time    0.3859
    SETDIJ:  cpu time    0.0339: real time    0.0340
    EDDIAG:  cpu time    7.6439: real time    7.6651
  RMM-DIIS:  cpu time   28.0638: real time   28.1349
    ORTHCH:  cpu time    0.6464: real time    0.6480
       DOS:  cpu time    0.0018: real time    0.0018
    CHARGE:  cpu time    3.1225: real time    3.1304
    MIXING:  cpu time    0.0154: real time    0.0154
    --------------------------------------------
      LOOP:  cpu time   39.9127: real time   40.0154

 eigenvalue-minimisations  :  6761
 total energy-change (2. order) :-0.5065271E-01  (-0.2882448E-02)
 number of electron     642.0000108 magnetization      15.9791691
 augmentation part      197.1721206 magnetization       8.0766376

 Broyden mixing:
  rms(total) = 0.14121E+00    rms(broyden)= 0.14121E+00
  rms(prec ) = 0.15325E+00
  weight for this iteration     100.00

 eigenvalues of (default mixing * dielectric matrix)
  average eigenvalue GAMMA=   1.0139
  6.0394  2.2000  1.4627  1.4627  0.7395  0.7395  0.7178  0.5237  0.5237  0.1203
  0.3479  0.3156  0.3156  0.2765  0.2239  0.2129

 Free energy of the ion-electron system (eV)
  ---------------------------------------------------
  alpha Z        PSCENC =      2023.78361127
  Ewald energy   TEWEN  =    124891.99671899
  -Hartree energ DENC   =   -175348.08543205
  -exchange      EXHF   =         0.00000000
  -V(xc)+E(xc)   XCENC  =       221.74163043
  PAW double counting   =     60567.56960647   -58971.47643320
  entropy T*S    EENTRO =        -0.00238107
  eigenvalues    EBANDS =      -446.58709792
  atomic energy  EATOM  =     46688.37031544
  Solvation  Ediel_sol  =         0.00000000
  ---------------------------------------------------
  free energy    TOTEN  =      -372.68946164 eV

  energy without entropy =     -372.68708057  energy(sigma->0) =     -372.68866795


--------------------------------------------------------------------------------------------------------




--------------------------------------- Iteration      1(  22)  ---------------------------------------


    POTLOK:  cpu time    0.3695: real time    0.3704
    SETDIJ:  cpu time    0.0342: real time    0.0342
    EDDIAG:  cpu time    7.6043: real time    7.6237
[...]
 -0.000   0.000   0.000   0.000  -0.000   0.000   0.000  -0.000  -0.000   0.000   0.000   0.000  -0.000  -0.000   0.000   0.000


------------------------ aborting loop because EDIFF is reached ----------------------------------------


    CHARGE:  cpu time    3.1200: real time    3.1280
    FORLOC:  cpu time    0.0707: real time    0.0709
    FORNL :  cpu time   12.5236: real time   12.5557
    STRESS:  cpu time   37.5451: real time   37.6397
    FORCOR:  cpu time    0.4243: real time    0.4254
    FORHAR:  cpu time    0.1044: real time    0.1050
    MIXING:  cpu time    0.0241: real time    0.0242
    OFIELD:  cpu time    0.0001: real time    0.0003

 ---------------------------------------------------------------------------------------------

         DFTD3 V3.0 Rev 1        
 IVDW         = 11
 DF pbe       
 parameters
 VDW_S6       =    1.0000
 VDW_S8       =    0.7220
 VDW_SR       =    1.2170
 rs18     =    1.0000
 alpha6   =   14.0000
 alpha8   =   16.0000
 k1-k3    =   16.0000    1.3333   -4.0000
 VDW_RADIUS   =   50.2022 A
 VDW_CNRADIUS =   21.1671 A
 Edisp (eV)  -38.78645

 E6    (eV) :   -14.3151
 E8    (eV) :   -24.4714
 % E8        : 63.09
    FORVDW:  cpu time    0.3289: real time    0.3309

  FORCE on cell =-STRESS in cart. coord.  units (eV):
  Direction    XX          YY          ZZ          XY          YZ          ZX
  --------------------------------------------------------------------------------------
  Alpha Z  2023.78361  2023.78361  2023.78361
  Ewald  162033.92996162044.78799************    -7.87582    -3.62321     2.51153
  Hartree172967.07232172968.02479************    -1.16429    -0.54989     0.45584
  E(xc)   -2862.08350 -2861.95260 -2887.64156    -0.08858    -0.04123     0.02716
  Local  ************************357112.48349     5.97451     2.76638    -2.04509
  n-local   572.89329   572.12389   307.75312     0.24590     0.11549    -0.04159
  augment  3252.85359  3253.00494  3534.37566     0.14862     0.14072    -0.17408
  Kinetic  9169.98551  9165.77881  9763.93355     2.83495     1.23039    -0.77403
  Fock        0.00000     0.00000     0.00000     0.00000     0.00000     0.00000
  vdW       -53.65664   -53.60890   -29.09552     0.00699    -0.01075     0.00551
  -------------------------------------------------------------------------------------
  Total      82.06870    82.16839    -0.86739     0.08228     0.02791    -0.03476
  in kB      68.07688    68.15957    -0.71951     0.06825     0.02315    -0.02884
  external pressure =       45.17 kB  Pullay stress =        0.00 kB


 VOLUME and BASIS-vectors are now :
 -----------------------------------------------------------------------------
  energy-cutoff  :      550.00
  volume of cell :     1931.47
      direct lattice vectors                 reciprocal lattice vectors
    10.560000420  0.000000000  0.000000000     0.094696966  0.054673319  0.000000000
    -5.280000210  9.145228627  0.000000000     0.000000000  0.109346638  0.000000000
     0.000000000  0.000000000 20.000000000     0.000000000  0.000000000  0.050000000

  length of vectors
    10.560000420 10.560000420 20.000000000     0.109346638  0.109346638  0.050000000


 FORCES acting on ions
    electron-ion (+dipol)            ewald-force                    non-local-force                 convergence-correction
 -----------------------------------------------------------------------------------------------
   0.176E+00 0.659E-01 0.231E+04   -.174E+00 -.721E-01 -.231E+04   -.913E-03 0.154E-02 -.941E-01   0.142E-02 0.239E-02 0.663E-02
   -.362E+00 0.472E+00 0.784E+03   0.367E+00 -.478E+00 -.783E+03   0.101E-02 0.218E-03 -.422E+00   0.136E-02 -.870E-03 0.654E-02
   0.163E+01 -.228E+00 -.770E+03   -.165E+01 0.246E+00 0.769E+03   0.282E-01 -.264E-01 0.395E+00   -.114E-02 0.124E-02 0.156E-02
   0.166E+01 0.415E+01 -.230E+04   -.167E+01 -.414E+01 0.230E+04   0.827E-03 -.162E-01 0.723E-01   -.392E-02 0.180E-02 -.477E-03
   0.168E+00 0.162E+00 0.231E+04   -.168E+00 -.161E+00 -.231E+04   0.778E-03 -.107E-02 -.108E+00   -.996E-03 0.508E-03 0.438E-02
   0.320E+00 -.159E+00 0.783E+03   -.332E+00 0.164E+00 -.783E+03   0.420E-02 -.120E-02 -.389E+00   0.197E-02 -.285E-03 0.738E-02
   -.411E+00 0.265E+01 -.768E+03   0.417E+00 -.267E+01 0.768E+03   -.530E-02 0.778E-02 0.435E+00   -.518E-03 -.127E-02 -.274E-02
   0.558E+01 0.191E+01 -.230E+04   -.559E+01 -.192E+01 0.230E+04   -.968E-02 -.756E-02 0.938E-01   0.513E-03 -.420E-03 -.177E-03
   0.122E+00 0.119E+00 0.231E+04   -.113E+00 -.113E+00 -.231E+04   -.823E-02 -.589E-02 -.125E+00   0.309E-02 0.131E-02 0.545E-02
   0.855E-01 0.170E+00 0.783E+03   -.770E-01 -.174E+00 -.783E+03   0.265E-02 0.244E-02 -.406E+00   -.109E-02 0.221E-02 0.963E-02
   -.412E+00 0.125E+01 -.772E+03   0.412E+00 -.126E+01 0.772E+03   -.141E-02 0.238E-01 0.423E+00   0.226E-02 -.204E-02 -.418E-02
   0.436E+01 0.720E+01 -.228E+04   -.438E+01 -.726E+01 0.228E+04   0.198E-01 0.444E-01 0.244E+00   -.262E-02 0.423E-02 -.699E-03
   -.368E-01 0.138E+00 0.231E+04   0.356E-01 -.140E+00 -.231E+04   -.137E-02 -.897E-03 -.112E+00   0.279E-02 0.323E-02 0.762E-02
   0.116E+01 0.389E+00 0.782E+03   -.117E+01 -.392E+00 -.782E+03   -.704E-02 0.306E-02 -.345E+00   0.242E-02 -.752E-03 0.865E-02
   -.620E+00 0.429E+00 -.765E+03   0.645E+00 -.442E+00 0.765E+03   -.544E-01 0.280E-01 0.346E+00   -.179E-03 0.144E-02 -.107E-02
   -.719E+00 0.651E+01 -.231E+04   0.725E+00 -.650E+01 0.231E+04   0.900E-02 -.253E-01 0.120E+00   -.989E-03 0.492E-03 -.875E-03
   -.163E+00 -.331E-02 0.231E+04   0.164E+00 -.397E-02 -.231E+04   -.192E-02 0.201E-02 -.977E-01   -.253E-03 0.348E-02 0.558E-02
   0.565E-01 0.111E+01 0.782E+03   -.513E-01 -.113E+01 -.782E+03   -.560E-03 -.716E-04 -.382E+00   -.232E-02 0.323E-03 0.930E-02
   -.125E+01 -.180E+00 -.772E+03   0.126E+01 0.186E+00 0.772E+03   -.219E-01 -.104E-01 0.422E+00   0.157E-02 -.435E-03 -.334E-02
   -.142E+01 0.229E+01 -.230E+04   0.141E+01 -.226E+01 0.230E+04   0.317E-02 -.435E-01 0.608E-01   0.525E-02 -.232E-02 -.174E-02
   -.205E+00 0.128E+00 0.231E+04   0.192E+00 -.120E+00 -.231E+04   0.848E-02 -.496E-02 -.122E+00   0.636E-03 -.629E-03 0.598E-02
   0.134E+00 -.171E-02 0.783E+03   -.132E+00 0.497E-02 -.783E+03   -.789E-02 0.104E-03 -.382E+00   -.157E-02 0.197E-02 0.884E-02
   -.138E+01 0.843E+00 -.774E+03   0.140E+01 -.856E+00 0.774E+03   -.277E-01 0.166E-01 0.376E+00   0.112E-02 -.223E-02 -.391E-04
   -.707E+01 0.398E+01 -.229E+04   0.711E+01 -.400E+01 0.229E+04   -.426E-01 0.233E-01 0.101E+00   -.166E-02 0.218E-02 -.133E-02
   -.822E-01 0.149E+00 0.231E+04   0.888E-01 -.146E+00 -.231E+04   -.283E-02 0.852E-03 -.977E-01   -.273E-02 -.162E-02 0.500E-02
   -.565E+00 0.151E+00 0.784E+03   0.572E+00 -.153E+00 -.783E+03   0.878E-03 -.833E-03 -.423E+00   0.696E-03 -.280E-03 0.709E-02
   0.235E+01 0.933E+00 -.775E+03   -.238E+01 -.940E+00 0.775E+03   0.166E-01 0.156E-01 0.371E+00   -.285E-02 -.138E-02 0.132E-02
   -.275E+01 -.395E-01 -.230E+04   0.273E+01 0.311E-01 0.230E+04   0.370E-01 0.208E-01 0.638E-01   0.381E-02 -.269E-02 -.101E-02
   0.292E-01 -.205E-01 0.231E+04   -.251E-01 0.172E-01 -.231E+04   0.437E-03 -.163E-03 -.137E+00   -.395E-02 0.274E-02 0.466E-02
   -.782E+00 0.491E+00 0.782E+03   0.787E+00 -.493E+00 -.782E+03   0.114E-02 -.391E-03 -.333E+00   -.146E-02 0.424E-04 0.698E-02
   0.582E+00 0.111E+01 -.768E+03   -.593E+00 -.111E+01 0.767E+03   0.273E-02 -.196E-01 0.380E+00   -.254E-03 -.391E-03 -.244E-03
   0.253E+00 -.332E+00 -.232E+04   -.255E+00 0.332E+00 0.232E+04   0.429E-02 0.160E-02 0.161E+00   -.315E-03 -.786E-03 -.952E-03
   0.665E-01 -.477E-02 0.231E+04   -.591E-01 -.299E-02 -.231E+04   -.357E-02 0.534E-02 -.891E-01   -.890E-03 -.203E-02 0.688E-02
   -.692E-01 -.184E+00 0.783E+03   0.762E-01 0.177E+00 -.783E+03   -.985E-03 -.262E-02 -.407E+00   -.174E-02 0.970E-03 0.109E-01
   0.593E+00 -.286E+00 -.774E+03   -.600E+00 0.295E+00 0.774E+03   -.700E-02 -.113E-01 0.374E+00   0.104E-02 -.204E-02 -.552E-02
   0.219E+01 -.111E+01 -.230E+04   -.220E+01 0.112E+01 0.230E+04   -.394E-02 0.104E-01 0.666E-01   0.317E-02 -.154E-02 -.110E-02
   -.136E-01 -.145E-02 0.231E+04   0.352E-02 0.678E-02 -.231E+04   0.443E-02 -.234E-02 -.940E-01   0.127E-02 -.406E-03 0.952E-02
   0.110E+00 -.154E+00 0.783E+03   -.114E+00 0.151E+00 -.783E+03   -.451E-02 0.809E-02 -.380E+00   -.183E-02 0.486E-04 0.950E-02
   0.741E+00 -.443E+00 -.772E+03   -.739E+00 0.442E+00 0.771E+03   -.138E-01 0.739E-02 0.407E+00   -.148E-03 0.162E-02 -.144E-02
   -.219E+00 0.248E+00 -.230E+04   0.234E+00 -.253E+00 0.230E+04   -.232E-01 0.116E-01 0.915E-01   -.103E-02 -.575E-03 -.941E-03
   0.415E-01 -.628E-01 0.231E+04   -.307E-01 0.593E-01 -.231E+04   -.658E-02 0.905E-03 -.890E-01   0.873E-03 0.190E-02 0.739E-02
   -.820E-01 0.416E+00 0.783E+03   0.875E-01 -.419E+00 -.783E+03   -.934E-03 0.854E-02 -.393E+00   0.222E-02 -.248E-02 0.103E-01
   0.940E+00 -.128E+01 -.770E+03   -.967E+00 0.129E+01 0.769E+03   0.447E-01 -.183E-01 0.401E+00   -.396E-03 0.266E-02 0.170E-02
   0.222E+01 -.127E+01 -.230E+04   -.223E+01 0.128E+01 0.230E+04   -.146E-01 0.848E-03 0.617E-01   0.376E-02 -.268E-02 -.180E-02
   0.113E+00 -.608E-01 0.231E+04   -.118E+00 0.640E-01 -.231E+04   0.715E-03 -.236E-03 -.127E+00   0.182E-02 -.149E-02 0.532E-02
   0.349E+00 -.241E+00 0.782E+03   -.350E+00 0.240E+00 -.782E+03   0.782E-03 -.255E-04 -.321E+00   -.201E-02 0.191E-02 0.113E-01
   -.669E+00 -.109E+01 -.768E+03   0.664E+00 0.110E+01 0.767E+03   0.189E-01 0.816E-02 0.382E+00   0.145E-02 -.246E-03 -.975E-03
   0.790E+01 -.424E+01 -.230E+04   -.792E+01 0.425E+01 0.230E+04   0.166E-01 -.145E-01 0.149E+00   0.257E-02 -.453E-03 -.955E-03
   -.333E-01 -.158E+00 0.231E+04   0.329E-01 0.146E+00 -.231E+04   0.927E-03 0.105E-01 -.123E+00   0.203E-03 -.387E-02 0.579E-02
   -.462E+00 -.209E+00 0.783E+03   0.468E+00 0.205E+00 -.783E+03   -.625E-02 -.282E-02 -.394E+00   0.251E-02 -.285E-03 0.109E-01
   0.483E+00 -.246E+01 -.775E+03   -.489E+00 0.249E+01 0.775E+03   -.833E-02 -.242E-01 0.371E+00   -.162E-02 0.957E-03 0.139E-02
   -.439E+01 -.718E+01 -.228E+04   0.441E+01 0.723E+01 0.228E+04   -.152E-01 -.458E-01 0.221E+00   -.392E-02 0.183E-02 -.133E-02
   -.494E-01 -.232E+00 0.231E+04   0.493E-01 0.231E+00 -.231E+04   0.132E-02 0.139E-03 -.108E+00   -.113E-02 0.703E-03 0.526E-02
   0.104E+01 -.622E+00 0.782E+03   -.105E+01 0.628E+00 -.782E+03   -.942E-02 0.607E-02 -.368E+00   0.166E-02 -.184E-02 0.118E-01
   -.247E+01 -.103E+01 -.768E+03   0.249E+01 0.104E+01 0.767E+03   -.635E-02 0.274E-02 0.435E+00   -.639E-03 0.195E-02 -.180E-02
   0.108E+01 -.592E+01 -.230E+04   -.108E+01 0.593E+01 0.230E+04   0.483E-02 0.130E-01 0.790E-01   0.174E-02 -.932E-03 -.158E-02
   0.276E-01 -.198E+00 0.231E+04   -.224E-01 0.199E+00 -.231E+04   -.159E-02 0.267E-03 -.936E-01   -.102E-02 -.196E-02 0.699E-02
   -.929E+00 -.618E+00 0.782E+03   0.945E+00 0.622E+00 -.782E+03   0.200E-03 0.157E-02 -.382E+00   -.205E-02 0.660E-03 0.106E-01
   0.558E+00 -.492E+00 -.774E+03   -.566E+00 0.493E+00 0.774E+03   0.214E-02 0.160E-01 0.374E+00   0.119E-02 0.101E-02 -.471E-02
   -.298E+01 -.339E+01 -.230E+04   0.297E+01 0.340E+01 0.230E+04   0.194E-01 0.100E-02 0.713E-01   -.446E-02 0.761E-03 -.113E-02
   -.143E+00 -.354E-01 0.231E+04   0.144E+00 0.374E-01 -.231E+04   0.503E-03 0.180E-02 -.113E+00   -.114E-02 -.426E-02 0.741E-02
   0.290E+00 -.126E+01 0.782E+03   -.292E+00 0.127E+01 -.782E+03   -.665E-02 0.574E-02 -.345E+00   0.124E-02 -.133E-02 0.106E-01
   -.633E+00 0.333E+00 -.768E+03   0.638E+00 -.335E+00 0.768E+03   0.153E-01 -.688E-02 0.362E+00   -.877E-03 -.842E-03 -.341E-02
   -.605E+01 -.261E+01 -.231E+04   0.604E+01 0.260E+01 0.231E+04   0.301E-01 0.394E-02 0.132E+00   -.184E-02 0.109E-02 -.812E-03
   0.814E+01 -.184E+02 -.200E+03   -.101E+02 0.228E+02 0.200E+03   0.201E+01 -.454E+01 0.743E+00   -.161E-03 0.267E-03 -.151E-02
   -.816E+01 0.184E+02 -.200E+03   0.101E+02 -.229E+02 0.200E+03   -.201E+01 0.454E+01 -.750E+00   -.292E-05 -.123E-03 -.144E-02
 -----------------------------------------------------------------------------------------------
   -.125E-01 0.658E-02 -.438E+00   0.169E-12 0.917E-12 0.296E-11   -.234E-01 0.212E-01 0.231E+00   -.113E-03 0.128E-03 0.207E+00
 
 
 POSITION                                       TOTAL-FORCE (eV/Angst)
 -----------------------------------------------------------------------------------
     10.55998      0.00001      1.11585         0.002900     -0.002653     -0.006423
      2.63997      1.52422      3.55048         0.006784     -0.006014     -0.002349
     -0.00277      3.05248      5.95206         0.009518     -0.008125     -0.003735
     10.55664      0.00295      8.37578        -0.010796     -0.002992      0.008007
      9.23998      2.28632      1.11585         0.000242     -0.000045     -0.004730
      1.31997      3.81053      3.55048        -0.005542      0.002840     -0.004277
      1.31901      0.76397      5.94672         0.001554     -0.018517      0.019980
      9.23611      2.29005      8.38345        -0.014360     -0.013852      0.005601
      1.31998      2.28632      1.11585         0.005011      0.000843     -0.005812
     -1.32003      3.81053      3.55048         0.010025     -0.000414      0.002684
      3.95784      0.76259      5.95211         0.001971      0.006046      0.017767
      1.31648      2.28943      8.36727        -0.004227     -0.004298      0.007460
      2.63998      0.00001      1.11585         0.000750     -0.000789     -0.014654
     -0.00003      1.52422      3.55048        -0.013144     -0.000685     -0.011213
      2.64198      3.04802      5.94821        -0.029065      0.015613     -0.007825
      2.63530      0.00397      8.41360         0.013348     -0.010228     -0.016247
      5.27998      0.00001      1.11585        -0.000539     -0.002236     -0.006348
      7.91997      1.52422      3.55048         0.002844     -0.015425      0.029442
      5.27917      3.05079      5.95186        -0.006692     -0.005958      0.018601
      5.27597      0.00395      8.37757         0.001628     -0.019944      0.001318
      3.95998      2.28632      1.11585        -0.003303      0.001697     -0.008583
      6.59997      3.81053      3.55048        -0.006503      0.004045     -0.003096
      6.60100      0.76212      5.95626        -0.001952      0.000891     -0.005726
      3.95762      2.28869      8.39202        -0.013661      0.004679     -0.024958
      6.59998      2.28632      1.11585         0.001525      0.001418     -0.006287
      3.95997      3.81053      3.55048         0.007964     -0.004181     -0.004435
      9.23634      0.76328      5.95847        -0.010844      0.006963     -0.012137
      6.59535      2.28890      8.37744         0.015926      0.009217      0.001317
      7.91998      0.00001      1.11585         0.001135     -0.001119     -0.016875
      5.27997      1.52422      3.55048         0.005207     -0.003171      0.001704
      7.91845      3.05140      5.94563        -0.007608     -0.021759      0.009455
      7.91592      0.00290      8.42715         0.002500      0.000222     -0.017411
      7.91998      4.57263      1.11585         0.003473     -0.004860     -0.004567
     -0.00003      6.09683      3.55048         0.005129     -0.008418      0.002394
     -2.64266      7.62441      5.95363        -0.011808     -0.004304     -0.000260
      7.91570      4.57464      8.37769        -0.005566      0.012713      0.000198
      6.59998      6.85894      1.11585        -0.003832      0.002164      0.001949
     -1.32003      8.38314      3.55048        -0.008283      0.004755     -0.002136
     -1.32105      5.33579      5.95054        -0.011236      0.006673      0.012258
      6.59683      6.86141      8.38322        -0.008863      0.004778      0.003241
     -1.32002      6.85894      1.11585         0.005645     -0.001146     -0.003963
     -3.96003      8.38314      3.55048         0.006637      0.003577      0.006182
      1.31509      5.33660      5.95189         0.018112     -0.007224     -0.001591
     -1.32318      6.86239      8.37770        -0.015813      0.002323     -0.000668
     -0.00002      4.57263      1.11585        -0.002307      0.001094     -0.016518
     -2.64003      6.09683      3.55048        -0.001555      0.000755     -0.001615
     -0.00316      7.62191      5.94550         0.016075      0.018998      0.011926
     -0.00494      4.57606      8.41364         0.004007     -0.002919     -0.011570
      2.63998      4.57263      1.11585         0.001347     -0.005195     -0.006092
      5.27997      6.09683      3.55048         0.002294     -0.006640      0.003418
      2.63763      7.62475      5.95867        -0.015127      0.004023     -0.011498
      2.63588      4.57538      8.36700         0.003437      0.003617      0.007311
      1.31998      6.85894      1.11585         0.000651     -0.000919     -0.005171
      3.95997      8.38314      3.55048        -0.017092      0.010464      0.027406
      3.95811      5.33544      5.94591         0.017094      0.010663      0.021849
      1.31503      6.86148      8.38497         0.007528      0.019914      0.003075
      3.95998      6.85894      1.11585         0.003178     -0.001420     -0.005999
      1.31997      8.38314      3.55048         0.015014      0.005365      0.030418
      6.59635      5.33573      5.95349        -0.003805      0.017081     -0.000512
      3.95603      6.86172      8.37538         0.000008      0.008172      0.007967
      5.27998      4.57263      1.11585         0.000874     -0.000871     -0.014166
      2.63997      6.09683      3.55048        -0.006705      0.012367     -0.010809
      5.27675      7.62330      5.94663         0.019453     -0.010252     -0.000741
      5.27436      4.57594      8.41248         0.019074     -0.005607     -0.017379
      1.84784      3.76325     11.35577         0.006503     -0.018508      0.015418
      2.14895      3.08223     11.46819        -0.006138      0.016716      0.020031
 -----------------------------------------------------------------------------------
    total drift:                               -0.036057      0.027860      0.000135


--------------------------------------------------------------------------------------------------------



  FREE ENERGIE OF THE ION-ELECTRON SYSTEM (eV)
  ---------------------------------------------------
  free  energy   TOTEN  =      -411.95035009 eV

  energy  without entropy=     -411.92931254  energy(sigma->0) =     -411.94333757
 


--------------------------------------------------------------------------------------------------------


    POTLOK:  cpu time    0.4136: real time    0.4146


--------------------------------------------------------------------------------------------------------




--------------------------------------------------------------------------------------------------------


  
 reached required accuracy - stopping structural energy minimisation
     LOOP+:  cpu time 1465.5740: real time 1469.9694
    4ORBIT:  cpu time    0.0000: real time    0.0000

 total amount of memory used by VASP MPI-rank0   200784. kBytes
=======================================================================

   base      :      30000. kBytes
   nonlr-proj:      31126. kBytes
   fftplans  :      17093. kBytes
   grid      :      44247. kBytes
   one-center:        528. kBytes
   wavefun   :      77790. kBytes
 
  
  
 General timing and accounting informations for this job:
 ========================================================
  
                  Total CPU time used (sec):     1481.430
                            User time (sec):     1478.018
                          System time (sec):        3.412
                         Elapsed time (sec):     1488.513
  
                   Maximum memory used (kb):      553224.
                   Average memory used (kb):           0.
  
                          Minor page faults:       648125
                          Major page faults:            0
                 Voluntary context switches:         4100
