 vasp.5.4.4.18Apr17-6-g9f103f2a35 (build Nov 30 2020 22:55:02) complex          
  
 executed on             LinuxIFC date 2023.09.08  21:30:49
 running on   40 total cores
 distrk:  each k-point on   40 cores,    1 groups
 distr:  one band on NCORES_PER_BAND=   4 cores,   10 groups


--------------------------------------------------------------------------------------------------------


 INCAR:
 POTCAR:    PAW_PBE Pt 04Feb2005                  
 POTCAR:    PAW_PBE Pt 04Feb2005                  
   VRHFIN =Pt: s1d9                                                             
   LEXCH  = PE                                                                  
   EATOM  =   729.1176 eV,   53.5886 Ry                                         
                                                                                
   TITEL  = PAW_PBE Pt 04Feb2005                                                
   LULTRA =        F    use ultrasoft PP ?                                      
   IUNSCR =        1    unscreen: 0-lin 1-nonlin 2-no                           
   RPACOR =    2.330    partial core radius                                     
   POMASS =  195.080; ZVAL   =   10.000    mass and valenz                      
   RCORE  =    2.600    outmost cutoff radius                                   
   RWIGS  =    2.750; RWIGS  =    1.455    wigner-seitz radius (au A)           
   ENMAX  =  230.283; ENMIN  =  172.712 eV                                      
   ICORE  =        3    local potential                                         
   LCOR   =        T    correct aug charges                                     
   LPAW   =        T    paw PP                                                  
   EAUG   =  358.966                                                            
   DEXC   =    0.000                                                            
   RMAX   =    2.658    core radius for proj-oper                               
   RAUG   =    1.300    factor for augmentation sphere                          
   RDEP   =    2.761    radius for radial grids                                 
   RDEPT  =    2.203    core radius for aug-charge                              
                                                                                
   Atomic configuration                                                         
   16 entries                                                                   
     n  l   j            E        occ.                                          
     1  0  0.50    -78401.1885   2.0000                                         
     2  0  0.50    -13770.7750   2.0000                                         
     2  1  1.50    -11931.0468   6.0000                                         
     3  0  0.50     -3234.7234   2.0000                                         
     3  1  1.50     -2699.2216   6.0000                                         
     3  2  2.50     -2119.5714  10.0000                                         
     4  0  0.50      -695.1528   2.0000                                         
     4  1  1.50      -519.6034   6.0000                                         
     4  2  2.50      -306.6786  10.0000                                         
     4  3  3.50       -70.1041  14.0000                                         
     5  0  0.50      -101.7747   2.0000                                         
     5  1  1.50       -55.9873   6.0000                                         
     5  2  2.50        -6.1423   9.0000                                         
     6  0  0.50        -5.6573   1.0000                                         
     6  1  1.50        -6.8029   0.0000                                         
     5  3  2.50        -1.3606   0.0000                                         
   Description                                                                  
     l       E           TYP  RCUT    TYP  RCUT                                 
     2     -6.1423404     23  2.500                                             
     2     -7.5029230     23  2.500                                             
     0     -5.6573207     23  2.500                                             
     0      0.7416693     23  2.500                                             
     1     -2.7211652     23  2.600                                             
     1     20.4087390     23  2.600                                             
     3     -1.3605826     23  2.500                                             
  local pseudopotential read in
  partial core-charges read in
  partial kinetic energy density read in
  atomic valenz-charges read in
  non local Contribution for L=           2  read in
    real space projection operators read in
  non local Contribution for L=           2  read in
    real space projection operators read in
  non local Contribution for L=           0  read in
    real space projection operators read in
  non local Contribution for L=           0  read in
    real space projection operators read in
  non local Contribution for L=           1  read in
    real space projection operators read in
  non local Contribution for L=           1  read in
    real space projection operators read in
    PAW grid and wavefunctions read in
 
   number of l-projection  operators is LMAX  =           6
   number of lm-projection operators is LMMAX =          18
 
 Optimization of the real space projectors (new method)

 maximal supplied QI-value         = 14.36
 optimisation between [QCUT,QGAM] = [ 11.92, 23.98] = [ 39.79,161.09] Ry 
 Optimized for a Real-space Cutoff    1.49 Angstroem

   l    n(q)    QCUT    max X(q) W(low)/X(q) W(high)/X(q)  e(spline) 
   2     10    11.920    66.195    0.79E-04    0.18E-03    0.24E-06
   2     10    11.920    64.643    0.81E-04    0.19E-03    0.24E-06
   0     11    11.920    95.520    0.28E-04    0.54E-04    0.18E-06
   0     11    11.920    63.403    0.27E-04    0.52E-04    0.17E-06
   1     10    11.920    19.961    0.18E-04    0.11E-03    0.23E-06
   1     10    11.920    13.289    0.25E-04    0.87E-04    0.19E-06
  PAW_PBE Pt 04Feb2005                  :
 energy of atom  1       EATOM= -729.1176
 kinetic energy error for atom=    0.0021 (will be added to EATOM!!)
 
 
 POSCAR: Pt111                                   
  positions in direct lattice
  velocities in cartesian coordinates
 exchange correlation table for  LEXCH =        8
   RHO(1)=    0.500       N(1)  =     2000
   RHO(2)=  100.500       N(2)  =     4000
 


--------------------------------------------------------------------------------------------------------


 ion  position               nearest neighbor table
   1  0.784  0.869  0.327-  71 2.74  20 2.74  55 2.74  27 2.78  35 2.78  34 2.79  43 2.80  56 2.80
                             3 2.80  73 2.80   2 2.81  72 2.81
   2  0.034  0.870  0.327-  55 2.74  65 2.74  68 2.74  29 2.78  39 2.78  27 2.78  72 2.80   3 2.80
                            57 2.81  23 2.81  47 2.81   1 2.81
   3  0.034  0.620  0.327-  12 2.73  55 2.74  76 2.74  39 2.78  28 2.78  35 2.79   9 2.80   1 2.80
                             2 2.80  56 2.81  57 2.81  15 2.81
   4  0.788  0.867  0.023-  21 2.78  78 2.78  19 2.79   6 2.80  58 2.81   5 2.81  75 2.81  44 2.81
                            74 2.81
   5  0.037  0.868  0.023-  49 2.78  70 2.78  78 2.79  74 2.80  24 2.81   4 2.81  59 2.81  48 2.81
                             6 2.81
   6  0.037  0.617  0.024-  46 2.78  70 2.78  21 2.79   4 2.80  18 2.80  59 2.80  10 2.80  58 2.81
                             5 2.81
   7  0.620  0.202  0.126-  71 2.73  79 2.74  80 2.75  42 2.78  44 2.78  74 2.79  53 2.80  78 2.81
                            22 2.81  19 2.81  61 2.81  11 2.81
   8  0.370  0.952  0.126-  66 2.73  69 2.74  26 2.74  16 2.78  24 2.78  75 2.80  25 2.80  19 2.80
                            49 2.80  54 2.81  60 2.81  53 2.81
   9  0.035  0.370  0.327-  12 2.74  77 2.74  62 2.74  33 2.78  28 2.78  30 2.78   3 2.80  15 2.81
                            13 2.81  56 2.81  63 2.81  47 2.81
  10  0.037  0.368  0.024-  54 2.78  46 2.78  45 2.79  48 2.80   6 2.80  18 2.81  58 2.81  64 2.81
                            16 2.81
  11  0.870  0.202  0.126-  65 2.73  77 2.74  79 2.74  64 2.78  74 2.79  48 2.79  45 2.80  49 2.81
                            54 2.81   7 2.81  22 2.81  78 2.81
  12  0.952  0.536  0.227-  21 2.73   3 2.73   9 2.74  45 2.74  46 2.74  56 2.74  77 2.80  55 2.80
                            76 2.80  20 2.81  67 2.81  62 2.81
  13  0.285  0.119  0.327-  62 2.74  26 2.74  69 2.74  31 2.78  36 2.78  33 2.79  73 2.80  43 2.80
                            23 2.81  47 2.81   9 2.81  15 2.81
  14  0.534  0.619  0.327-  51 2.74  66 2.74  67 2.74  52 2.78  38 2.78  37 2.79  41 2.80  57 2.80
                            73 2.80  56 2.80  23 2.81  63 2.81
  15  0.285  0.370  0.327-  76 2.73  62 2.74  80 2.74  50 2.78  36 2.78  28 2.79  41 2.80  57 2.80
                             9 2.81  43 2.81  13 2.81   3 2.81
  16  0.288  0.118  0.023-   8 2.78  53 2.78  54 2.79  44 2.80  18 2.80  75 2.80  48 2.81  24 2.81
                            10 2.81
  17  0.537  0.617  0.023-  22 2.78  25 2.78  60 2.79  59 2.80  24 2.80  42 2.80  64 2.81  58 2.81
                            75 2.81
  18  0.287  0.368  0.024-  53 2.78  61 2.78  46 2.79  59 2.80   6 2.80  16 2.80  10 2.81  42 2.81
                            44 2.81
  19  0.620  0.952  0.126-  20 2.73  71 2.74  69 2.75  44 2.78  75 2.78   4 2.79  21 2.80   8 2.80
                            53 2.81  78 2.81  25 2.81   7 2.81
  20  0.701  0.786  0.226-  19 2.73  25 2.74   1 2.74  56 2.74  21 2.74  73 2.74  67 2.80  69 2.80
                            12 2.81  66 2.81  55 2.81  71 2.81
  21  0.869  0.702  0.126-  12 2.73  55 2.74  20 2.74   4 2.78  58 2.78   6 2.79  45 2.80  19 2.80
                            46 2.81  70 2.81  78 2.81  25 2.81
  22  0.619  0.452  0.126-  79 2.73  67 2.74  51 2.75  17 2.78  42 2.78  64 2.79  25 2.80  61 2.80
                            60 2.81   7 2.81  45 2.81  11 2.81
  23  0.284  0.870  0.327-  68 2.74  26 2.74  66 2.74  31 2.78  37 2.78  29 2.79  73 2.80  57 2.80
                            47 2.80  14 2.81   2 2.81  13 2.81
  24  0.287  0.868  0.023-  60 2.78   8 2.78  49 2.79  48 2.80  17 2.80   5 2.81  75 2.81  16 2.81
                            59 2.81
  25  0.619  0.702  0.126-  20 2.74  67 2.74  66 2.75  17 2.78  75 2.78  58 2.79  22 2.80   8 2.80
                            60 2.80  45 2.81  19 2.81  21 2.81
  26  0.202  0.036  0.227-  54 2.73  23 2.74  49 2.74  13 2.74  47 2.74   8 2.74  66 2.80  69 2.80
                            77 2.81  65 2.81  62 2.81  68 2.81
  27  0.867  0.953  0.430-   1 2.78  72 2.78   2 2.78  40 2.80  29 2.80  34 2.80  39 2.81  35 2.81
                            32 2.81
  28  0.118  0.453  0.430-   3 2.78   9 2.78  15 2.79  39 2.80  50 2.80  36 2.81  35 2.81  30 2.81
                            33 2.81
  29  0.117  0.953  0.430-   2 2.78  47 2.78  23 2.79  32 2.80  39 2.80  27 2.80  31 2.81  37 2.81
                            33 2.81
  30  0.868  0.453  0.430-  63 2.78   9 2.78  56 2.78  33 2.80  35 2.80  32 2.81  38 2.81  28 2.81
                            52 2.81
  31  0.367  0.953  0.430-  13 2.78  23 2.78  73 2.79  33 2.80  37 2.80  29 2.81  36 2.81  34 2.81
                            52 2.81
  32  0.867  0.203  0.430-  63 2.78  72 2.78  47 2.79  29 2.80  38 2.80  30 2.81  40 2.81  27 2.81
                            33 2.81
  33  0.117  0.203  0.430-   9 2.78  47 2.79  13 2.79  30 2.80  31 2.80  36 2.81  32 2.81  28 2.81
                            29 2.81
  34  0.617  0.953  0.430-  43 2.78  73 2.78   1 2.79  35 2.80  36 2.80  27 2.80  52 2.81  31 2.81
                            40 2.81
  35  0.867  0.703  0.430-  56 2.78   1 2.78   3 2.79  52 2.80  34 2.80  30 2.80  27 2.81  28 2.81
                            39 2.81
  36  0.367  0.203  0.430-  13 2.78  15 2.78  43 2.79  40 2.80  34 2.80  33 2.81  31 2.81  28 2.81
                            50 2.81
  37  0.367  0.703  0.430-  57 2.78  23 2.78  14 2.79  31 2.80  52 2.80  50 2.80  39 2.81  29 2.81
                            38 2.81
  38  0.618  0.453  0.430-  41 2.78  14 2.78  63 2.79  32 2.80  52 2.80  50 2.80  40 2.81  30 2.81
                            37 2.81
  39  0.117  0.703  0.430-   3 2.78   2 2.78  57 2.79  28 2.80  29 2.80  27 2.81  37 2.81  50 2.81
                            35 2.81
  40  0.617  0.203  0.430-  43 2.78  41 2.78  72 2.79  27 2.80  36 2.80  32 2.81  38 2.81  34 2.81
                            50 2.81
  41  0.535  0.370  0.327-  51 2.74  80 2.74  79 2.75  38 2.78  40 2.78  50 2.79  14 2.80  15 2.80
                            63 2.80  72 2.80  57 2.81  43 2.81
  42  0.537  0.367  0.023-   7 2.78  22 2.78  61 2.80  44 2.80  17 2.80  18 2.81  64 2.81  74 2.81
                            59 2.81
  43  0.535  0.119  0.327-  69 2.74  80 2.74  71 2.74  40 2.78  34 2.78  36 2.79   1 2.80  13 2.80
                            72 2.80  73 2.81  15 2.81  41 2.81
  44  0.538  0.117  0.023-  19 2.78   7 2.78  53 2.80  16 2.80  42 2.80  75 2.80  74 2.81   4 2.81
                            18 2.81
  45  0.869  0.452  0.126-  77 2.73  12 2.74  67 2.74  58 2.78  64 2.79  10 2.79  11 2.80  21 2.80
                            25 2.81  22 2.81  46 2.81  54 2.81
  46  0.119  0.452  0.127-  62 2.73  76 2.74  12 2.74   6 2.78  10 2.78  18 2.79  54 2.80  70 2.80
                            61 2.80  21 2.81  45 2.81  53 2.81
  47  0.035  0.120  0.327-  77 2.73  65 2.74  26 2.74  29 2.78  33 2.79  32 2.79  23 2.80  63 2.81
                            72 2.81   2 2.81  13 2.81   9 2.81
  48  0.038  0.118  0.023-  49 2.78  54 2.78  11 2.79  10 2.80  24 2.80  16 2.81  74 2.81   5 2.81
                            64 2.81
  49  0.120  0.952  0.126-  68 2.73  26 2.74  65 2.74  48 2.78   5 2.78  24 2.79  60 2.80   8 2.80
                            11 2.81  54 2.81  78 2.81  70 2.81
  50  0.367  0.453  0.430-  15 2.78  57 2.78  41 2.79  28 2.80  37 2.80  38 2.80  39 2.81  40 2.81
                            36 2.81
  51  0.452  0.536  0.227-  61 2.73  14 2.74  41 2.74  60 2.74  57 2.74  22 2.75  66 2.80  80 2.80
                            67 2.80  76 2.81  68 2.81  79 2.81
  52  0.617  0.703  0.430-  14 2.78  73 2.78  56 2.79  35 2.80  37 2.80  38 2.80  34 2.81  30 2.81
                            31 2.81
  53  0.370  0.202  0.127-  69 2.73  80 2.73  62 2.74  18 2.78  16 2.78  44 2.80   7 2.80  61 2.80
                            54 2.80  19 2.81  46 2.81   8 2.81
  54  0.120  0.202  0.126-  26 2.73  62 2.74  77 2.74  10 2.78  48 2.78  16 2.79  46 2.80  53 2.80
                             8 2.81  11 2.81  49 2.81  45 2.81
  55  0.951  0.786  0.227-  78 2.73  21 2.74   3 2.74   2 2.74   1 2.74  70 2.74  71 2.80  12 2.80
                            68 2.81  20 2.81  76 2.81  65 2.81
  56  0.784  0.620  0.327-  67 2.74  20 2.74  12 2.74  35 2.78  30 2.78  52 2.79  63 2.80   1 2.80
                            73 2.80  14 2.80   3 2.81   9 2.81
  57  0.284  0.620  0.327-  76 2.74  68 2.74  51 2.74  50 2.78  37 2.78  39 2.79  14 2.80  23 2.80
                            15 2.80   2 2.81  41 2.81   3 2.81
  58  0.787  0.617  0.023-  45 2.78  21 2.78  25 2.79  75 2.80  64 2.80   4 2.81  10 2.81   6 2.81
                            17 2.81
  59  0.287  0.617  0.023-  60 2.78  61 2.78  70 2.79  18 2.80  17 2.80   6 2.80   5 2.81  42 2.81
                            24 2.81
  60  0.369  0.702  0.126-  66 2.73  51 2.74  68 2.74  59 2.78  24 2.78  17 2.79  49 2.80  25 2.80
                            61 2.80  70 2.80  22 2.81   8 2.81
  61  0.369  0.452  0.127-  80 2.73  51 2.73  76 2.75  59 2.78  18 2.78  42 2.80  53 2.80  22 2.80
                            60 2.80  46 2.80  70 2.81   7 2.81
  62  0.202  0.286  0.227-  46 2.73  13 2.74  15 2.74  54 2.74   9 2.74  53 2.74  76 2.80  80 2.80
                            69 2.80  26 2.81  77 2.81  12 2.81
  63  0.785  0.370  0.327-  67 2.73  79 2.74  77 2.74  30 2.78  32 2.78  38 2.79  56 2.80  41 2.80
                            47 2.81  72 2.81  14 2.81   9 2.81
  64  0.787  0.367  0.023-  11 2.78  45 2.79  22 2.79  74 2.80  58 2.80  42 2.81  10 2.81  48 2.81
                            17 2.81
  65  0.952  0.036  0.227-  11 2.73  78 2.74  47 2.74   2 2.74  49 2.74  72 2.74  68 2.80  79 2.80
                            26 2.81  77 2.81  71 2.81  55 2.81
  66  0.451  0.786  0.227-  60 2.73   8 2.73  73 2.74  14 2.74  23 2.74  25 2.75  51 2.80  26 2.80
                            68 2.80  20 2.81  67 2.81  69 2.81
  67  0.702  0.536  0.227-  63 2.73  56 2.74  22 2.74  25 2.74  45 2.74  14 2.74  79 2.80  20 2.80
                            51 2.80  66 2.81  77 2.81  12 2.81
  68  0.201  0.786  0.227-  49 2.73  70 2.74  23 2.74  57 2.74   2 2.74  60 2.74  65 2.80  66 2.80
                            76 2.81  55 2.81  51 2.81  26 2.81
  69  0.452  0.036  0.227-  53 2.73  43 2.74   8 2.74  73 2.74  13 2.74  19 2.75  20 2.80  26 2.80
                            62 2.80  71 2.81  80 2.81  66 2.81
  70  0.119  0.702  0.126-  68 2.74  76 2.74  55 2.74   6 2.78   5 2.78  59 2.79  78 2.80  46 2.80
                            60 2.80  61 2.81  21 2.81  49 2.81
  71  0.702  0.035  0.226-   7 2.73  19 2.74   1 2.74  72 2.74  78 2.74  43 2.74  55 2.80  80 2.80
                            69 2.81  65 2.81  20 2.81  79 2.81
  72  0.784  0.120  0.327-  79 2.74  71 2.74  65 2.74  32 2.78  27 2.78  40 2.79   2 2.80  43 2.80
                            41 2.80  47 2.81  63 2.81   1 2.81
  73  0.534  0.869  0.327-  69 2.74  66 2.74  20 2.74  34 2.78  52 2.78  31 2.79  56 2.80  14 2.80
                            13 2.80  23 2.80   1 2.80  43 2.81
  74  0.788  0.117  0.023-  78 2.78  11 2.79   7 2.79   5 2.80  64 2.80  48 2.81  42 2.81  44 2.81
                             4 2.81
  75  0.538  0.868  0.023-  25 2.78  19 2.78   8 2.80  58 2.80  16 2.80  44 2.80  24 2.81   4 2.81
                            17 2.81
  76  0.202  0.536  0.227-  15 2.73  57 2.74  46 2.74  70 2.74   3 2.74  61 2.75  62 2.80  12 2.80
                            51 2.81  68 2.81  55 2.81  80 2.81
  77  0.952  0.286  0.227-  45 2.73  47 2.73  11 2.74   9 2.74  63 2.74  54 2.74  12 2.80  26 2.81
                            79 2.81  62 2.81  67 2.81  65 2.81
  78  0.870  0.952  0.126-  55 2.73  65 2.74  71 2.74  74 2.78   4 2.78   5 2.79  70 2.80   7 2.81
                            19 2.81  21 2.81  49 2.81  11 2.81
  79  0.702  0.286  0.226-  22 2.73  72 2.74   7 2.74  63 2.74  11 2.74  41 2.75  67 2.80  65 2.80
                            80 2.81  77 2.81  51 2.81  71 2.81
  80  0.452  0.286  0.227-  61 2.73  53 2.73  43 2.74  41 2.74  15 2.74   7 2.75  62 2.80  71 2.80
                            51 2.80  79 2.81  69 2.81  76 2.81
 
  LATTYP: Found a hexagonal cell.
 ALAT       =    11.2227001190
 C/A-ratio  =     1.9603125600
  
  Lattice vectors:
  
 A1 = (   5.6113500595,  -9.7191434021,   0.0000000000)
 A2 = ( -11.2227001190,   0.0000000000,   0.0000000000)
 A3 = (   0.0000000000,   0.0000000000, -22.0000000000)


Analysis of symmetry for initial positions (statically):
=====================================================================
 Subroutine PRICEL returns:
 Original cell was already a primitive cell.
 

 Routine SETGRP: Setting up the symmetry group for a 
 hexagonal supercell.


 Subroutine GETGRP returns: Found  1 space group operations
 (whereof  1 operations were pure point group operations)
 out of a pool of 24 trial point group operations.


The static configuration has the point symmetry C_1 .


Analysis of symmetry for dynamics (positions and initial velocities):
=====================================================================
 Subroutine PRICEL returns:
 Original cell was already a primitive cell.
 

 Routine SETGRP: Setting up the symmetry group for a 
 hexagonal supercell.


 Subroutine GETGRP returns: Found  1 space group operations
 (whereof  1 operations were pure point group operations)
 out of a pool of 24 trial point group operations.


The dynamic configuration has the point symmetry C_1 .


 Subroutine INISYM returns: Found  1 space group operations
 (whereof  1 operations are pure point group operations),
 and found     1 'primitive' translations

 
 
 KPOINTS: mesh auto                               

Automatic generation of k-mesh.
Space group operators:
 irot       det(A)        alpha          n_x          n_y          n_z        tau_x        tau_y        tau_z
    1     1.000000     0.000000     1.000000     0.000000     0.000000     0.000000     0.000000     0.000000
 
 Subroutine IBZKPT returns following result:
 ===========================================
 
 Found      4 irreducible k-points:
 
 Following reciprocal coordinates:
            Coordinates               Weight
  0.000000  0.000000  0.000000      1.000000
  0.500000  0.000000  0.000000      1.000000
  0.000000  0.500000  0.000000      1.000000
  0.500000  0.500000  0.000000      1.000000
 
 Following cartesian coordinates:
            Coordinates               Weight
  0.000000  0.000000  0.000000      1.000000
  0.044553 -0.025722  0.000000      1.000000
  0.000000  0.051445  0.000000      1.000000
  0.044553  0.025722  0.000000      1.000000
 


--------------------------------------------------------------------------------------------------------




 Dimension of arrays:
   k-points           NKPTS =      4   k-points in BZ     NKDIM =      4   number of bands    NBANDS=    480
   number of dos      NEDOS =    301   number of ions     NIONS =     80
   non local maximal  LDIM  =      6   non local SUM 2l+1 LMDIM =     18
   total plane-waves  NPLWV = ******
   max r-space proj   IRMAX =   7929   max aug-charges    IRDMAX=  34542
   dimension x,y,z NGX =    90 NGY =   90 NGZ =  168
   dimension x,y,z NGXF=   180 NGYF=  180 NGZF=  336
   support grid    NGXF=   180 NGYF=  180 NGZF=  336
   ions per type =              80
   NGX,Y,Z   is equivalent  to a cutoff of  13.33, 13.33, 12.70 a.u.
   NGXF,Y,Z  is equivalent  to a cutoff of  26.66, 26.66, 25.39 a.u.

 SYSTEM =  Pt111                                   
 POSCAR =  Pt111                                   

 Startparameter for this run:
   NWRITE =      2    write-flag & timer
   PREC   = accura    normal or accurate (medium, high low for compatibility)
   ISTART =      0    job   : 0-new  1-cont  2-samecut
   ICHARG =      2    charge: 1-file 2-atom 10-const
   ISPIN  =      1    spin polarized calculation?
   LNONCOLLINEAR =      F non collinear calculations
   LSORBIT =      F    spin-orbit coupling
   INIWAV =      1    electr: 0-lowe 1-rand  2-diag
   LASPH  =      F    aspherical Exc in radial PAW
   METAGGA=      F    non-selfconsistent MetaGGA calc.

 Electronic Relaxation 1
   ENCUT  =  550.0 eV  40.42 Ry    6.36 a.u.  21.46 21.46 42.07*2*pi/ulx,y,z
   ENINI  =  550.0     initial cutoff
   ENAUG  =  359.0 eV  augmentation charge cutoff
   NELM   =    200;   NELMIN=  2; NELMDL= -5     # of ELM steps 
   EDIFF  = 0.1E-04   stopping-criterion for ELM
   LREAL  =      T    real-space projection
   NLSPLINE    = F    spline interpolate recip. space projectors
   LCOMPAT=      F    compatible to vasp.4.4
   GGA_COMPAT  = T    GGA compatible to vasp.4.4-vasp.4.6
   LMAXPAW     = -100 max onsite density
   LMAXMIX     =    2 max onsite mixed and CHGCAR
   VOSKOWN=      0    Vosko Wilk Nusair interpolation
   ROPT   =   -0.00025
 Ionic relaxation
   EDIFFG = -.5E-01   stopping-criterion for IOM
   NSW    =    300    number of steps for IOM
   NBLOCK =      1;   KBLOCK =    300    inner block; outer block 
   IBRION =      2    ionic relax: 0-MD 1-quasi-New 2-CG
   NFREE  =      1    steps in history (QN), initial steepest desc. (CG)
   ISIF   =      2    stress and relaxation
   IWAVPR =     11    prediction:  0-non 1-charg 2-wave 3-comb
   ISYM   =      2    0-nonsym 1-usesym 2-fastsym
   LCORR  =      T    Harris-Foulkes like correction to forces

   POTIM  = 0.5000    time-step for ionic-motion
   TEIN   =    0.0    initial temperature
   TEBEG  =    0.0;   TEEND  =   0.0 temperature during run
   SMASS  =  -3.00    Nose mass-parameter (am)
   estimated Nose-frequenzy (Omega)   =  0.10E-29 period in steps =****** mass=  -0.288E-26a.u.
   SCALEE = 1.0000    scale energy and forces
   NPACO  =    256;   APACO  = 16.0  distance and # of slots for P.C.
   PSTRESS=    0.0 pullay stress

  Mass of Ions in am
   POMASS = 195.08
  Ionic Valenz
   ZVAL   =  10.00
  Atomic Wigner-Seitz radii
   RWIGS  =  -1.00
  virtual crystal weights 
   VCA    =   1.00
   NELECT =     800.0000    total number of electrons
   NUPDOWN=      -1.0000    fix difference up-down

 DOS related values:
   EMIN   =  10.00;   EMAX   =-10.00  energy-range for DOS
   EFERMI =   0.00
   ISMEAR =     1;   SIGMA  =   0.10  broadening in eV -4-tet -1-fermi 0-gaus

 Electronic relaxation 2 (details)
   IALGO  =     68    algorithm
   LDIAG  =      T    sub-space diagonalisation (order eigenvalues)
   LSUBROT=      F    optimize rotation matrix (better conditioning)
   TURBO    =      0    0=normal 1=particle mesh
   IRESTART =      0    0=no restart 2=restart with 2 vectors
   NREBOOT  =      0    no. of reboots
   NMIN     =      0    reboot dimension
   EREF     =   0.00    reference energy to select bands
   IMIX   =      4    mixing-type and parameters
     AMIX     =   0.40;   BMIX     =  1.00
     AMIX_MAG =   1.60;   BMIX_MAG =  1.00
     AMIN     =   0.10
     WC   =   100.;   INIMIX=   1;  MIXPRE=   1;  MAXMIX= -45

 Intra band minimization:
   WEIMIN = 0.0010     energy-eigenvalue tresh-hold
   EBREAK =  0.52E-08  absolut break condition
   DEPER  =   0.30     relativ break condition  

   TIME   =   0.40     timestep for ELM

  volume/ion in A,a.u.               =      30.00       202.42
  Fermi-wavevector in a.u.,A,eV,Ry     =   1.135156  2.145133 17.532178  1.288579
  Thomas-Fermi vector in A             =   2.271860
 
 Write flags
   LWAVE        =      F    write WAVECAR
   LDOWNSAMPLE  =      F    k-point downsampling of WAVECAR
   LCHARG       =      F    write CHGCAR
   LVTOT        =      F    write LOCPOT, total local potential
   LVHAR        =      F    write LOCPOT, Hartree potential only
   LELF         =      F    write electronic localiz. function (ELF)
   LORBIT       =      0    0 simple, 1 ext, 2 COOP (PROOUT), +10 PAW based schemes


 Dipole corrections
   LMONO  =      F    monopole corrections only (constant potential shift)
   LDIPOL =      F    correct potential (dipole corrections)
   IDIPOL =      0    1-x, 2-y, 3-z, 4-all directions 
   EPSILON=  1.0000000 bulk dielectric constant

 Exchange correlation treatment:
   GGA     =    --    GGA type
   LEXCH   =     8    internal setting for exchange type
   VOSKOWN=      0    Vosko Wilk Nusair interpolation
   LHFCALC =     F    Hartree Fock is set to
   LHFONE  =     F    Hartree Fock one center treatment
   AEXX    =    0.0000 exact exchange contribution

 Linear response parameters
   LEPSILON=     F    determine dielectric tensor
   LRPA    =     F    only Hartree local field effects (RPA)
   LNABLA  =     F    use nabla operator in PAW spheres
   LVEL    =     F    velocity operator in full k-point grid
   LINTERFAST=   F  fast interpolation
   KINTER  =     0    interpolate to denser k-point grid
   CSHIFT  =0.1000    complex shift for real part using Kramers Kronig
   OMEGAMAX=  -1.0    maximum frequency
   DEG_THRESHOLD= 0.2000000E-02 threshold for treating states as degnerate
   RTIME   =   -0.100 relaxation time in fs
  (WPLASMAI=    0.000 imaginary part of plasma frequency in eV, 0.658/RTIME)
   DFIELD  = 0.0000000 0.0000000 0.0000000 field for delta impulse in time
 
 Orbital magnetization related:
   ORBITALMAG=     F  switch on orbital magnetization
   LCHIMAG   =     F  perturbation theory with respect to B field
   DQ        =  0.001000  dq finite difference perturbation B field
   LLRAUG    =     F  two centre corrections for induced B field



--------------------------------------------------------------------------------------------------------


 conjugate gradient relaxation of ions
 charge density and potential will be updated during run
 non-spin polarized calculation
 RMM-DIIS sequential band-by-band and
  variant of blocked Davidson during initial phase
 perform sub-space diagonalisation
    before iterative eigenvector-optimisation
 modified Broyden-mixing scheme, WC =      100.0
 initial mixing is a Kerker type mixing with AMIX =  0.4000 and BMIX =      1.0000
 Hartree-type preconditioning will be used
 using additional bands           80
 real space projection scheme for non local part
 use partial core corrections
 calculate Harris-corrections to forces 
   (improved forces if not selfconsistent)
 use gradient corrections 
 use of overlap-Matrix (Vanderbilt PP)
 Methfessel and Paxton  Order N= 1 SIGMA  =   0.10


--------------------------------------------------------------------------------------------------------


  energy-cutoff  :      550.00
  volume of cell :     2399.65
      direct lattice vectors                 reciprocal lattice vectors
    11.222700119  0.000000000  0.000000000     0.089105116 -0.051444863  0.000000000
     5.611350060  9.719143402  0.000000000     0.000000000  0.102889726  0.000000000
     0.000000000  0.000000000 22.000000000     0.000000000  0.000000000  0.045454545

  length of vectors
    11.222700119 11.222700119 22.000000000     0.102889726  0.102889726  0.045454545


 
 k-points in units of 2pi/SCALE and weight: mesh auto                               
   0.00000000  0.00000000  0.00000000       0.250
   0.04455256 -0.02572243  0.00000000       0.250
   0.00000000  0.05144486  0.00000000       0.250
   0.04455256  0.02572243  0.00000000       0.250
 
 k-points in reciprocal lattice and weights: mesh auto                               
   0.00000000  0.00000000  0.00000000       0.250
   0.50000000  0.00000000  0.00000000       0.250
   0.00000000  0.50000000  0.00000000       0.250
   0.50000000  0.50000000  0.00000000       0.250
 
 position of ions in fractional coordinates (direct lattice) 
   0.78390011  0.86932118  0.32687432
   0.03411128  0.86959463  0.32701204
   0.03393528  0.61978790  0.32710507
   0.78778234  0.86708081  0.02322838
   0.03741891  0.86782571  0.02343044
   0.03733223  0.61744215  0.02358518
   0.61967002  0.20167069  0.12620282
   0.36966679  0.95165476  0.12629235
   0.03479551  0.36972208  0.32712007
   0.03726394  0.36764546  0.02367965
   0.86975264  0.20201185  0.12632517
   0.95166515  0.53591541  0.22677767
   0.28481926  0.11934560  0.32716511
   0.53414422  0.61942680  0.32712921
   0.28493290  0.36956012  0.32720185
   0.28790237  0.11758341  0.02349269
   0.53686476  0.61741667  0.02320581
   0.28715680  0.36776859  0.02360717
   0.61950132  0.95151513  0.12618906
   0.70137820  0.78552678  0.22647760
   0.86911134  0.70165331  0.12633239
   0.61906014  0.45203508  0.12627515
   0.28423052  0.86953165  0.32708724
   0.28745236  0.86772760  0.02328729
   0.61884343  0.70163225  0.12615123
   0.20204472  0.03585587  0.22670231
   0.86680159  0.95303643  0.42975136
   0.11756517  0.45342606  0.43007460
   0.11654819  0.95336097  0.42989985
   0.86768032  0.45272449  0.42989560
   0.36658436  0.95327045  0.43012796
   0.86729089  0.20295485  0.42978672
   0.11729154  0.20330212  0.42992902
   0.61700318  0.95277769  0.42993188
   0.86673143  0.70299521  0.42994645
   0.36743094  0.20295835  0.43008280
   0.36708301  0.70334397  0.43019211
   0.61757419  0.45270731  0.42999123
   0.11693467  0.70328473  0.42999993
   0.61735857  0.20278118  0.42984102
   0.53468031  0.36957150  0.32707277
   0.53742047  0.36722028  0.02336212
   0.53482013  0.11904635  0.32698150
   0.53766488  0.11740608  0.02331284
   0.86924553  0.45187393  0.12639505
   0.11943584  0.45183688  0.12660821
   0.03455656  0.11952612  0.32688753
   0.03779183  0.11775766  0.02349972
   0.11970360  0.95181534  0.12632195
   0.36736713  0.45328417  0.43016686
   0.45156792  0.53588251  0.22677243
   0.61714655  0.70273227  0.43006385
   0.36984651  0.20182574  0.12650961
   0.11990143  0.20189339  0.12646702
   0.95131260  0.78589820  0.22662316
   0.78403078  0.61950185  0.32699221
   0.28429132  0.61971323  0.32717795
   0.78711333  0.61745470  0.02326990
   0.28710245  0.61747126  0.02341798
   0.36896035  0.70187635  0.12632636
   0.36933633  0.45184057  0.12653267
   0.20230622  0.28580151  0.22691051
   0.78456135  0.36959506  0.32692421
   0.78728009  0.36748931  0.02331929
   0.95200966  0.03579245  0.22651180
   0.45124749  0.78564809  0.22661611
   0.70157588  0.53572841  0.22666457
   0.20137029  0.78598451  0.22672967
   0.45195945  0.03559717  0.22667971
   0.11913336  0.70182942  0.12644307
   0.70198869  0.03545283  0.22645696
   0.78448779  0.11953890  0.32676575
   0.53418014  0.86917045  0.32702159
   0.78789222  0.11733673  0.02331081
   0.53753409  0.86754281  0.02310566
   0.20162058  0.53586832  0.22694428
   0.95211592  0.28592828  0.22667525
   0.86956192  0.95163725  0.12625087
   0.70215136  0.28578467  0.22644873
   0.45230178  0.28559222  0.22672169
 
 position of ions in cartesian coordinates  (Angst):
  13.67554130  8.44905719  7.19123508
   5.26242053  8.45171488  7.19426478
   3.85869228  6.02380746  7.19631147
  13.70653898  8.42728275  0.51102426
   5.28961512  8.43452255  0.51546971
   3.88365249  6.00100876  0.51887389
   8.08601566  1.96006637  2.77646198
   9.48872753  9.24926909  2.77843175
   2.46513960  3.59338192  7.19664150
   2.48118936  3.57319895  0.52095234
  10.89453224  1.96338215  2.77915380
  13.68746152  5.20863870  4.98910878
   3.86613113  1.15993699  7.19763237
   9.47036100  6.02029794  7.19684271
   5.27144775  3.59180785  7.19844069
   3.89084360  1.14280999  0.51683913
   9.48961321  6.00076111  0.51052791
   5.28635297  3.57439564  0.51935764
  12.29176199  9.24791202  2.77615936
  12.27922293  7.63464741  4.98250717
  13.69099830  6.81946911  2.77931268
   9.48405336  4.39339375  2.77805329
   8.06908037  8.45110278  7.19591930
   8.09511497  8.43356894  0.51232039
  10.88219843  6.81926446  2.77532713
   2.46868715  0.34848836  4.98745082
  15.07567528  9.26269773  9.45452993
   3.86373098  4.40691289  9.46164131
   6.65762754  9.26585199  9.45779668
  12.27811159  4.40009422  9.45770330
   9.46320049  9.26497217  9.46281519
  10.87219622  1.97254724  9.45530780
   2.45712717  1.97592247  9.45843853
  12.27081084  9.26018303  9.45850136
  13.67181916  6.83251127  9.45882186
   5.26243765  1.97258132  9.46182149
   8.06637177  6.83590095  9.46422637
   9.47114918  4.39992727  9.45980700
   5.25869953  6.83532511  9.45999843
   8.06630635  1.97085940  9.45650240
   8.07435182  3.59191845  7.19560097
   8.09191031  3.56906652  0.51396658
   6.67013664  1.15702854  7.19359305
   6.69285830  1.14108654  0.51288257
  12.29090474  4.39182748  2.78069118
   3.87580752  4.39146745  2.78538061
   1.05852083  1.16169153  7.19152563
   1.08490582  1.14450361  0.51699391
   6.68436665  9.25082981  2.77908294
   6.66638728  4.40553385  9.46367093
   8.07483570  5.20831897  4.98899345
  10.86932746  6.82995574  9.46140468
   5.28319127  1.96157326  2.78321139
   2.47851226  1.96223083  2.78227450
  15.08624593  7.63825735  4.98570950
  12.27518405  6.02102730  7.19382866
   6.66794404  6.02308173  7.19791493
  12.29829137  6.00113077  0.51193787
   6.68691212  6.00129172  0.51519546
   8.07920524  6.82163686  2.77917997
   6.68038646  4.39150330  2.78371868
   3.87415438  2.77774591  4.99203129
  10.87882398  3.59214736  7.19233255
  10.89751950  3.57168134  0.51302436
  10.88496295  0.34787197  4.98325968
   9.47276178  7.63582650  4.98555448
  10.87973540  5.20682128  4.98662063
   6.67035262  7.63909615  4.98805274
   5.27195355  0.34597398  4.98695355
   5.27520854  6.82118073  2.78174761
   8.07714686  0.34457119  4.98205315
   9.47484580  1.16181574  7.18884648
  10.87216315  8.44759220  7.19447509
   9.50069554  1.14041251  0.51283775
  10.90067030  8.43177300  0.50832443
   5.26967209  5.20818107  4.99277417
  12.28975508  2.77897791  4.98685556
  15.09880243  9.24909887  2.77751917
   9.48367198  2.77758223  4.98187207
   6.67860512  2.77571176  4.98787725
 


--------------------------------------------------------------------------------------------------------


 k-point  1 :   0.0000 0.0000 0.0000  plane waves:   70321
 k-point  2 :   0.5000 0.0000 0.0000  plane waves:   70264
 k-point  3 :   0.0000 0.5000 0.0000  plane waves:   70264
 k-point  4 :   0.5000 0.5000 0.0000  plane waves:   70264

 maximum and minimum number of plane-waves per node :     17611    17530

 maximum number of plane-waves:     70321
 maximum index in each direction: 
   IXMAX=   21   IYMAX=   21   IZMAX=   42
   IXMIN=  -21   IYMIN=  -21   IZMIN=  -42


 real space projection operators:
  total allocation   :      86021.72 KBytes
  max/ min on nodes  :      21982.22      21032.30


 parallel 3D FFT for wavefunctions:
    minimum data exchange during FFTs selected (reduces bandwidth)
 parallel 3D FFT for charge:
    minimum data exchange during FFTs selected (reduces bandwidth)


 total amount of memory used by VASP MPI-rank0   171993. kBytes
=======================================================================

   base      :      30000. kBytes
   nonlr-proj:      37799. kBytes
   fftplans  :      20287. kBytes
   grid      :      28516. kBytes
   one-center:        311. kBytes
   wavefun   :      55080. kBytes
 
     INWAV:  cpu time    0.0000: real time    0.0000
 Broyden mixing: mesh for mixing (old mesh)
   NGX = 43   NGY = 43   NGZ = 85
  (NGX  =180   NGY  =180   NGZ  =336)
  gives a total of 157165 points

 initial charge density was supplied:
 charge density of overlapping atoms calculated
 number of electron     800.0000000 magnetization 
 keeping initial charge density in first step


--------------------------------------------------------------------------------------------------------


 Maximum index for non-local projection operator         2105
 Maximum index for augmentation-charges         1781 (set IRDMAX)


--------------------------------------------------------------------------------------------------------


 First call to EWALD:  gamma=   0.132
 Maximum number of real-space cells 4x 4x 2
 Maximum number of reciprocal cells 2x 2x 4

    FEWALD:  cpu time    0.0040: real time    0.0040


--------------------------------------- Iteration      1(   1)  ---------------------------------------


    POTLOK:  cpu time    0.2117: real time    0.2146
    SETDIJ:  cpu time    0.0207: real time    0.0211
     EDDAV:  cpu time   30.4509: real time   30.5444
       DOS:  cpu time    0.0011: real time    0.0012
    --------------------------------------------
      LOOP:  cpu time   30.6844: real time   30.7813

 eigenvalue-minimisations  :  3840
 total energy-change (2. order) : 0.5611079E+04  (-0.3901347E+05)
 number of electron     800.0000000 magnetization 
 augmentation part      800.0000000 magnetization 

 Free energy of the ion-electron system (eV)
  ---------------------------------------------------
  alpha Z        PSCENC =      2535.25610547
  Ewald energy   TEWEN  =    179283.31460367
  -Hartree energ DENC   =   -243331.64869104
  -exchange      EXHF   =         0.00000000
  -V(xc)+E(xc)   XCENC  =       279.76660731
  PAW double counting   =     55689.88283425   -53427.22359852
  entropy T*S    EENTRO =        -0.00956493
  eigenvalues    EBANDS =      6252.49687395
  atomic energy  EATOM  =     58329.24398462
  Solvation  Ediel_sol  =         0.00000000
  ---------------------------------------------------
  free energy    TOTEN  =      5611.07915477 eV

  energy without entropy =     5611.08871970  energy(sigma->0) =     5611.08234308


--------------------------------------------------------------------------------------------------------




--------------------------------------- Iteration      1(   2)  ---------------------------------------


     EDDAV:  cpu time   33.3091: real time   33.4006
       DOS:  cpu time    0.0012: real time    0.0041
    --------------------------------------------
      LOOP:  cpu time   33.3103: real time   33.4047

 eigenvalue-minimisations  :  4310
 total energy-change (2. order) :-0.5748577E+04  (-0.5345168E+04)
 number of electron     800.0000000 magnetization 
 augmentation part      800.0000000 magnetization 

 Free energy of the ion-electron system (eV)
  ---------------------------------------------------
  alpha Z        PSCENC =      2535.25610547
  Ewald energy   TEWEN  =    179283.31460367
  -Hartree energ DENC   =   -243331.64869104
  -exchange      EXHF   =         0.00000000
  -V(xc)+E(xc)   XCENC  =       279.76660731
  PAW double counting   =     55689.88283425   -53427.22359852
  entropy T*S    EENTRO =        -0.01624052
  eigenvalues    EBANDS =       503.92669038
  atomic energy  EATOM  =     58329.24398462
  Solvation  Ediel_sol  =         0.00000000
  ---------------------------------------------------
  free energy    TOTEN  =      -137.49770438 eV

  energy without entropy =     -137.48146387  energy(sigma->0) =     -137.49229088


--------------------------------------------------------------------------------------------------------




--------------------------------------- Iteration      1(   3)  ---------------------------------------


     EDDAV:  cpu time   34.7539: real time   34.8532
       DOS:  cpu time    0.0010: real time    0.0010
    --------------------------------------------
      LOOP:  cpu time   34.7549: real time   34.8542

 eigenvalue-minimisations  :  4570
 total energy-change (2. order) :-0.3423085E+03  (-0.3059703E+03)
 number of electron     800.0000000 magnetization 
 augmentation part      800.0000000 magnetization 

 Free energy of the ion-electron system (eV)
  ---------------------------------------------------
  alpha Z        PSCENC =      2535.25610547
  Ewald energy   TEWEN  =    179283.31460367
  -Hartree energ DENC   =   -243331.64869104
  -exchange      EXHF   =         0.00000000
  -V(xc)+E(xc)   XCENC  =       279.76660731
  PAW double counting   =     55689.88283425   -53427.22359852
  entropy T*S    EENTRO =        -0.07439141
  eigenvalues    EBANDS =       161.67632883
  atomic energy  EATOM  =     58329.24398462
  Solvation  Ediel_sol  =         0.00000000
  ---------------------------------------------------
  free energy    TOTEN  =      -479.80621682 eV

  energy without entropy =     -479.73182541  energy(sigma->0) =     -479.78141968


--------------------------------------------------------------------------------------------------------




--------------------------------------- Iteration      1(   4)  ---------------------------------------


     EDDAV:  cpu time   37.4913: real time   37.5853
       DOS:  cpu time    0.0013: real time    0.0013
    --------------------------------------------
      LOOP:  cpu time   37.4926: real time   37.5866

 eigenvalue-minimisations  :  4970
 total energy-change (2. order) :-0.1662272E+02  (-0.1579368E+02)
 number of electron     800.0000000 magnetization 
 augmentation part      800.0000000 magnetization 

 Free energy of the ion-electron system (eV)
  ---------------------------------------------------
  alpha Z        PSCENC =      2535.25610547
  Ewald energy   TEWEN  =    179283.31460367
  -Hartree energ DENC   =   -243331.64869104
  -exchange      EXHF   =         0.00000000
  -V(xc)+E(xc)   XCENC  =       279.76660731
  PAW double counting   =     55689.88283425   -53427.22359852
  entropy T*S    EENTRO =        -0.05948967
  eigenvalues    EBANDS =       145.03870927
  atomic energy  EATOM  =     58329.24398462
  Solvation  Ediel_sol  =         0.00000000
  ---------------------------------------------------
  free energy    TOTEN  =      -496.42893464 eV

  energy without entropy =     -496.36944497  energy(sigma->0) =     -496.40910475


--------------------------------------------------------------------------------------------------------




--------------------------------------- Iteration      1(   5)  ---------------------------------------


     EDDAV:  cpu time   36.3016: real time   36.3945
       DOS:  cpu time    0.0011: real time    0.0011
    CHARGE:  cpu time    2.5142: real time    2.5212
    MIXING:  cpu time    0.0071: real time    0.0078
    --------------------------------------------
      LOOP:  cpu time   38.8241: real time   38.9246

 eigenvalue-minimisations  :  4810
 total energy-change (2. order) :-0.4121550E+00  (-0.4101295E+00)
 number of electron     799.9999993 magnetization 
 augmentation part      232.3339441 magnetization 

 Broyden mixing:
  rms(total) = 0.99064E+01    rms(broyden)= 0.99064E+01
  rms(prec ) = 0.10085E+02
  weight for this iteration     100.00

 Free energy of the ion-electron system (eV)
  ---------------------------------------------------
  alpha Z        PSCENC =      2535.25610547
  Ewald energy   TEWEN  =    179283.31460367
  -Hartree energ DENC   =   -243331.64869104
  -exchange      EXHF   =         0.00000000
  -V(xc)+E(xc)   XCENC  =       279.76660731
  PAW double counting   =     55689.88283425   -53427.22359852
  entropy T*S    EENTRO =        -0.05959786
  eigenvalues    EBANDS =       144.62666242
  atomic energy  EATOM  =     58329.24398462
  Solvation  Ediel_sol  =         0.00000000
  ---------------------------------------------------
  free energy    TOTEN  =      -496.84108967 eV

  energy without entropy =     -496.78149182  energy(sigma->0) =     -496.82122372


--------------------------------------------------------------------------------------------------------




--------------------------------------- Iteration      1(   6)  ---------------------------------------


    POTLOK:  cpu time    0.1970: real time    0.1975
    SETDIJ:  cpu time    0.0160: real time    0.0160
    EDDIAG:  cpu time    5.3415: real time    5.3569
  RMM-DIIS:  cpu time   19.1845: real time   19.2371
    ORTHCH:  cpu time    0.4854: real time    0.4866
       DOS:  cpu time    0.0011: real time    0.0011
    CHARGE:  cpu time    2.4927: real time    2.4997
    MIXING:  cpu time    0.0072: real time    0.0075
    --------------------------------------------
      LOOP:  cpu time   27.7254: real time   27.8024

 eigenvalue-minimisations  :  3869
 total energy-change (2. order) :-0.1604201E+02  (-0.1031666E+02)
 number of electron     799.9999990 magnetization 
 augmentation part      245.4026918 magnetization 

 Broyden mixing:
  rms(total) = 0.90912E+01    rms(broyden)= 0.90912E+01
  rms(prec ) = 0.10320E+02
  weight for this iteration     100.00

 eigenvalues of (default mixing * dielectric matrix)
  average eigenvalue GAMMA=   0.7123
  0.7123

 Free energy of the ion-electron system (eV)
  ---------------------------------------------------
  alpha Z        PSCENC =      2535.25610547
  Ewald energy   TEWEN  =    179283.31460367
  -Hartree energ DENC   =   -242207.15103553
  -exchange      EXHF   =         0.00000000
  -V(xc)+E(xc)   XCENC  =       258.98102326
  PAW double counting   =     61925.59866527   -59785.43798761
  entropy T*S    EENTRO =         0.02943867
  eigenvalues    EBANDS =      -852.71789651
  atomic energy  EATOM  =     58329.24398462
  Solvation  Ediel_sol  =         0.00000000
  ---------------------------------------------------
  free energy    TOTEN  =      -512.88309868 eV

  energy without entropy =     -512.91253735  energy(sigma->0) =     -512.89291157


--------------------------------------------------------------------------------------------------------




--------------------------------------- Iteration      1(   7)  ---------------------------------------


    POTLOK:  cpu time    0.1910: real time    0.1915
    SETDIJ:  cpu time    0.0161: real time    0.0161
    EDDIAG:  cpu time    5.3362: real time    5.3513
  RMM-DIIS:  cpu time   18.9156: real time   18.9671
    ORTHCH:  cpu time    0.4817: real time    0.4829
       DOS:  cpu time    0.0011: real time    0.0011
    CHARGE:  cpu time    2.5161: real time    2.5231
    MIXING:  cpu time    0.0070: real time    0.0071
    --------------------------------------------
      LOOP:  cpu time   27.4648: real time   27.5400

 eigenvalue-minimisations  :  3848
 total energy-change (2. order) :-0.1132511E+02  (-0.1156294E+02)
 number of electron     799.9999995 magnetization 
 augmentation part      242.1835949 magnetization 

 Broyden mixing:
  rms(total) = 0.70730E+01    rms(broyden)= 0.70730E+01
  rms(prec ) = 0.88450E+01
  weight for this iteration     100.00

 eigenvalues of (default mixing * dielectric matrix)
  average eigenvalue GAMMA=   1.1904
  2.1580  0.2227

 Free energy of the ion-electron system (eV)
  ---------------------------------------------------
  alpha Z        PSCENC =      2535.25610547
  Ewald energy   TEWEN  =    179283.31460367
  -Hartree energ DENC   =   -243026.21395279
  -exchange      EXHF   =         0.00000000
  -V(xc)+E(xc)   XCENC  =       255.53984756
  PAW double counting   =     64125.42976250   -62010.09300743
  entropy T*S    EENTRO =        -0.23215046
  eigenvalues    EBANDS =       -16.45340441
  atomic energy  EATOM  =     58329.24398462
  Solvation  Ediel_sol  =         0.00000000
  ---------------------------------------------------
  free energy    TOTEN  =      -524.20821127 eV

  energy without entropy =     -523.97606082  energy(sigma->0) =     -524.13082779


--------------------------------------------------------------------------------------------------------




--------------------------------------- Iteration      1(   8)  ---------------------------------------


    POTLOK:  cpu time    0.1910: real time    0.1914
    SETDIJ:  cpu time    0.0158: real time    0.0159
    EDDIAG:  cpu time    5.3430: real time    5.3574
  RMM-DIIS:  cpu time   19.1695: real time   19.2220
    ORTHCH:  cpu time    0.4836: real time    0.4850
       DOS:  cpu time    0.0011: real time    0.0011
    CHARGE:  cpu time    2.5151: real time    2.5219
    MIXING:  cpu time    0.0073: real time    0.0073
    --------------------------------------------
      LOOP:  cpu time   27.7266: real time   27.8021

 eigenvalue-minimisations  :  3867
 total energy-change (2. order) : 0.4161206E+02  (-0.3760690E+01)
 number of electron     799.9999994 magnetization 
 augmentation part      249.8416939 magnetization 

 Broyden mixing:
  rms(total) = 0.35364E+01    rms(broyden)= 0.35364E+01
  rms(prec ) = 0.41276E+01
  weight for this iteration     100.00

 eigenvalues of (default mixing * dielectric matrix)
  average eigenvalue GAMMA=   0.9611
  2.1210  0.5332  0.2291

 Free energy of the ion-electron system (eV)
  ---------------------------------------------------
  alpha Z        PSCENC =      2535.25610547
  Ewald energy   TEWEN  =    179283.31460367
  -Hartree energ DENC   =   -242391.27160468
  -exchange      EXHF   =         0.00000000
  -V(xc)+E(xc)   XCENC  =       246.71199838
  PAW double counting   =     71287.45410650   -69265.13779107
  entropy T*S    EENTRO =         0.02632694
  eigenvalues    EBANDS =      -508.19388521
  atomic energy  EATOM  =     58329.24398462
  Solvation  Ediel_sol  =         0.00000000
  ---------------------------------------------------
  free energy    TOTEN  =      -482.59615537 eV

  energy without entropy =     -482.62248232  energy(sigma->0) =     -482.60493102


--------------------------------------------------------------------------------------------------------




--------------------------------------- Iteration      1(   9)  ---------------------------------------


    POTLOK:  cpu time    0.1962: real time    0.1970
    SETDIJ:  cpu time    0.0162: real time    0.0162
    EDDIAG:  cpu time    5.3428: real time    5.3574
  RMM-DIIS:  cpu time   18.9951: real time   19.0472
    ORTHCH:  cpu time    0.4830: real time    0.4842
       DOS:  cpu time    0.0011: real time    0.0011
    CHARGE:  cpu time    2.5495: real time    2.5566
    MIXING:  cpu time    0.0073: real time    0.0074
    --------------------------------------------
      LOOP:  cpu time   27.5913: real time   27.6670

 eigenvalue-minimisations  :  3860
 total energy-change (2. order) : 0.5838657E+01  (-0.3869523E+01)
 number of electron     799.9999989 magnetization 
 augmentation part      249.8119971 magnetization 

 Broyden mixing:
  rms(total) = 0.34668E+01    rms(broyden)= 0.34668E+01
  rms(prec ) = 0.52079E+01
  weight for this iteration     100.00

 eigenvalues of (default mixing * dielectric matrix)
  average eigenvalue GAMMA=   0.8774
  2.1237  0.9300  0.2280  0.2280

 Free energy of the ion-electron system (eV)
  ---------------------------------------------------
  alpha Z        PSCENC =      2535.25610547
  Ewald energy   TEWEN  =    179283.31460367
  -Hartree energ DENC   =   -242324.14429456
  -exchange      EXHF   =         0.00000000
  -V(xc)+E(xc)   XCENC  =       248.31116850
  PAW double counting   =     71499.11973358   -69474.37940179
  entropy T*S    EENTRO =         0.03063634
  eigenvalues    EBANDS =      -573.51003440
  atomic energy  EATOM  =     58329.24398462
  Solvation  Ediel_sol  =         0.00000000
  ---------------------------------------------------
  free energy    TOTEN  =      -476.75749857 eV

  energy without entropy =     -476.78813491  energy(sigma->0) =     -476.76771069


--------------------------------------------------------------------------------------------------------




--------------------------------------- Iteration      1(  10)  ---------------------------------------


    POTLOK:  cpu time    0.1954: real time    0.1959
    SETDIJ:  cpu time    0.0158: real time    0.0159
    EDDIAG:  cpu time    5.3412: real time    5.3561
  RMM-DIIS:  cpu time   18.9509: real time   19.0031
    ORTHCH:  cpu time    0.4832: real time    0.4844
       DOS:  cpu time    0.0010: real time    0.0010
    CHARGE:  cpu time    2.5017: real time    2.5087
    MIXING:  cpu time    0.0074: real time    0.0074
    --------------------------------------------
      LOOP:  cpu time   27.4966: real time   27.5725

 eigenvalue-minimisations  :  3857
 total energy-change (2. order) :-0.4888312E+02  (-0.1698669E+01)
 number of electron     799.9999996 magnetization 
 augmentation part      248.3656089 magnetization 

 Broyden mixing:
  rms(total) = 0.61835E+01    rms(broyden)= 0.61835E+01
  rms(prec ) = 0.10401E+02
  weight for this iteration     100.00

 eigenvalues of (default mixing * dielectric matrix)
  average eigenvalue GAMMA=   0.7825
  2.1912  1.1322  0.2429  0.2429  0.1035

 Free energy of the ion-electron system (eV)
  ---------------------------------------------------
  alpha Z        PSCENC =      2535.25610547
  Ewald energy   TEWEN  =    179283.31460367
  -Hartree energ DENC   =   -242356.24044149
  -exchange      EXHF   =         0.00000000
  -V(xc)+E(xc)   XCENC  =       249.40549755
  PAW double counting   =     71704.71497443   -69677.95169695
  entropy T*S    EENTRO =        -0.10817758
  eigenvalues    EBANDS =      -593.27547186
  atomic energy  EATOM  =     58329.24398462
  Solvation  Ediel_sol  =         0.00000000
  ---------------------------------------------------
  free energy    TOTEN  =      -525.64062214 eV

  energy without entropy =     -525.53244456  energy(sigma->0) =     -525.60456295


--------------------------------------------------------------------------------------------------------




--------------------------------------- Iteration      1(  11)  ---------------------------------------


    POTLOK:  cpu time    0.1934: real time    0.1939
    SETDIJ:  cpu time    0.0158: real time    0.0158
    EDDIAG:  cpu time    5.3391: real time    5.3536
  RMM-DIIS:  cpu time   19.0654: real time   19.1175
    ORTHCH:  cpu time    0.4834: real time    0.4848
       DOS:  cpu time    0.0012: real time    0.0012
    CHARGE:  cpu time    2.5565: real time    2.5633
    MIXING:  cpu time    0.0089: real time    0.0090
    --------------------------------------------
      LOOP:  cpu time   27.6637: real time   27.7392

 eigenvalue-minimisations  :  3865
 total energy-change (2. order) : 0.5715688E+02  (-0.7053801E+00)
 number of electron     799.9999990 magnetization 
 augmentation part      248.5039009 magnetization 

 Broyden mixing:
  rms(total) = 0.21437E+01    rms(broyden)= 0.21437E+01
  rms(prec ) = 0.23719E+01
  weight for this iteration     100.00

 eigenvalues of (default mixing * dielectric matrix)
  average eigenvalue GAMMA=   0.6993
  2.1550  1.0792  0.3122  0.3122  0.2401  0.0971

 Free energy of the ion-electron system (eV)
  ---------------------------------------------------
  alpha Z        PSCENC =      2535.25610547
  Ewald energy   TEWEN  =    179283.31460367
  -Hartree energ DENC   =   -242434.00710883
  -exchange      EXHF   =         0.00000000
  -V(xc)+E(xc)   XCENC  =       250.06536738
  PAW double counting   =     72069.69157387   -70043.32436991
  entropy T*S    EENTRO =        -0.18874124
  eigenvalues    EBANDS =      -458.53515668
  atomic energy  EATOM  =     58329.24398462
  Solvation  Ediel_sol  =         0.00000000
  ---------------------------------------------------
  free energy    TOTEN  =      -468.48374164 eV

  energy without entropy =     -468.29500041  energy(sigma->0) =     -468.42082790


--------------------------------------------------------------------------------------------------------




--------------------------------------- Iteration      1(  12)  ---------------------------------------


    POTLOK:  cpu time    0.2026: real time    0.2034
    SETDIJ:  cpu time    0.0193: real time    0.0194
    EDDIAG:  cpu time    5.3996: real time    5.4143
  RMM-DIIS:  cpu time   19.0455: real time   19.0978
    ORTHCH:  cpu time    0.4838: real time    0.4853
       DOS:  cpu time    0.0012: real time    0.0012
    CHARGE:  cpu time    2.5394: real time    2.5461
    MIXING:  cpu time    0.0079: real time    0.0079
    --------------------------------------------
      LOOP:  cpu time   27.6993: real time   27.7754

 eigenvalue-minimisations  :  3861
 total energy-change (2. order) : 0.1696058E+01  (-0.1865365E+00)
 number of electron     799.9999991 magnetization 
 augmentation part      248.6304971 magnetization 

 Broyden mixing:
  rms(total) = 0.15919E+01    rms(broyden)= 0.15919E+01
  rms(prec ) = 0.18345E+01
  weight for this iteration     100.00

 eigenvalues of (default mixing * dielectric matrix)
  average eigenvalue GAMMA=   0.6483
  2.1126  0.9282  0.4707  0.4707  0.2292  0.2292  0.0977

 Free energy of the ion-electron system (eV)
  ---------------------------------------------------
  alpha Z        PSCENC =      2535.25610547
  Ewald energy   TEWEN  =    179283.31460367
  -Hartree energ DENC   =   -242411.69388581
  -exchange      EXHF   =         0.00000000
  -V(xc)+E(xc)   XCENC  =       250.29730463
  PAW double counting   =     72010.61730423   -69982.80984456
  entropy T*S    EENTRO =        -0.11809994
  eigenvalues    EBANDS =      -480.89515640
  atomic energy  EATOM  =     58329.24398462
  Solvation  Ediel_sol  =         0.00000000
  ---------------------------------------------------
  free energy    TOTEN  =      -466.78768409 eV

  energy without entropy =     -466.66958415  energy(sigma->0) =     -466.74831744


--------------------------------------------------------------------------------------------------------




--------------------------------------- Iteration      1(  13)  ---------------------------------------


    POTLOK:  cpu time    0.1983: real time    0.1988
    SETDIJ:  cpu time    0.0156: real time    0.0156
    EDDIAG:  cpu time    5.3497: real time    5.3645
  RMM-DIIS:  cpu time   19.2424: real time   19.2949
    ORTHCH:  cpu time    0.4841: real time    0.4853
       DOS:  cpu time    0.0012: real time    0.0012
    CHARGE:  cpu time    2.5393: real time    2.5464
    MIXING:  cpu time    0.0086: real time    0.0086
    --------------------------------------------
      LOOP:  cpu time   27.8391: real time   27.9154

 eigenvalue-minimisations  :  3894
 total energy-change (2. order) : 0.7798305E+00  (-0.9614027E-01)
 number of electron     799.9999991 magnetization 
 augmentation part      248.5121863 magnetization 

 Broyden mixing:
  rms(total) = 0.11490E+01    rms(broyden)= 0.11490E+01
  rms(prec ) = 0.16130E+01
  weight for this iteration     100.00

 eigenvalues of (default mixing * dielectric matrix)
  average eigenvalue GAMMA=   0.6952
  2.0524  1.0846  1.0846  0.3702  0.3702  0.2512  0.2512  0.0972

 Free energy of the ion-electron system (eV)
  ---------------------------------------------------
  alpha Z        PSCENC =      2535.25610547
  Ewald energy   TEWEN  =    179283.31460367
  -Hartree energ DENC   =   -242421.38379301
  -exchange      EXHF   =         0.00000000
  -V(xc)+E(xc)   XCENC  =       250.42770854
  PAW double counting   =     71915.77626840   -69886.40947442
  entropy T*S    EENTRO =        -0.13340557
  eigenvalues    EBANDS =      -472.09985126
  atomic energy  EATOM  =     58329.24398462
  Solvation  Ediel_sol  =         0.00000000
  ---------------------------------------------------
  free energy    TOTEN  =      -466.00785356 eV

  energy without entropy =     -465.87444799  energy(sigma->0) =     -465.96338503


--------------------------------------------------------------------------------------------------------




--------------------------------------- Iteration      1(  14)  ---------------------------------------


    POTLOK:  cpu time    0.1930: real time    0.1934
    SETDIJ:  cpu time    0.0157: real time    0.0158
    EDDIAG:  cpu time    5.4787: real time    5.4941
  RMM-DIIS:  cpu time   19.0462: real time   19.0983
    ORTHCH:  cpu time    0.4831: real time    0.4843
       DOS:  cpu time    0.0011: real time    0.0011
    CHARGE:  cpu time    2.4881: real time    2.4950
    MIXING:  cpu time    0.0084: real time    0.0084
    --------------------------------------------
      LOOP:  cpu time   27.7143: real time   27.7904

 eigenvalue-minimisations  :  3864
 total energy-change (2. order) :-0.1375416E+00  (-0.1103161E+00)
 number of electron     799.9999992 magnetization 
 augmentation part      248.1412856 magnetization 

 Broyden mixing:
  rms(total) = 0.10802E+01    rms(broyden)= 0.10802E+01
  rms(prec ) = 0.13152E+01
  weight for this iteration     100.00

 eigenvalues of (default mixing * dielectric matrix)
  average eigenvalue GAMMA=   0.6897
  1.9567  1.3523  1.3523  0.4030  0.4030  0.2322  0.2322  0.0971  0.1787

 Free energy of the ion-electron system (eV)
  ---------------------------------------------------
  alpha Z        PSCENC =      2535.25610547
  Ewald energy   TEWEN  =    179283.31460367
  -Hartree energ DENC   =   -242468.18248819
  -exchange      EXHF   =         0.00000000
  -V(xc)+E(xc)   XCENC  =       250.54580692
  PAW double counting   =     71870.64590663   -69840.22298428
  entropy T*S    EENTRO =        -0.23688287
  eigenvalues    EBANDS =      -426.50944709
  atomic energy  EATOM  =     58329.24398462
  Solvation  Ediel_sol  =         0.00000000
  ---------------------------------------------------
  free energy    TOTEN  =      -466.14539511 eV

  energy without entropy =     -465.90851225  energy(sigma->0) =     -466.06643416


--------------------------------------------------------------------------------------------------------




--------------------------------------- Iteration      1(  15)  ---------------------------------------


    POTLOK:  cpu time    0.1919: real time    0.1924
    SETDIJ:  cpu time    0.0156: real time    0.0157
    EDDIAG:  cpu time    5.3629: real time    5.3771
  RMM-DIIS:  cpu time   19.1760: real time   19.2215
    ORTHCH:  cpu time    0.4844: real time    0.4856
       DOS:  cpu time    0.0011: real time    0.0011
    CHARGE:  cpu time    2.5022: real time    2.5082
    MIXING:  cpu time    0.0086: real time    0.0087
    --------------------------------------------
      LOOP:  cpu time   27.7429: real time   27.8102

 eigenvalue-minimisations  :  3880
 total energy-change (2. order) : 0.3359672E-01  (-0.4114066E-01)
 number of electron     799.9999992 magnetization 
 augmentation part      247.9316154 magnetization 

 Broyden mixing:
  rms(total) = 0.10336E+01    rms(broyden)= 0.10336E+01
  rms(prec ) = 0.14397E+01
  weight for this iteration     100.00

 eigenvalues of (default mixing * dielectric matrix)
  average eigenvalue GAMMA=   0.6732
  1.7919  1.5367  1.5367  0.4127  0.4127  0.2740  0.2740  0.2478  0.0971  0.1487

 Free energy of the ion-electron system (eV)
  ---------------------------------------------------
  alpha Z        PSCENC =      2535.25610547
  Ewald energy   TEWEN  =    179283.31460367
  -Hartree energ DENC   =   -242492.59101466
  -exchange      EXHF   =         0.00000000
  -V(xc)+E(xc)   XCENC  =       250.69053605
  PAW double counting   =     71846.69580625   -69815.49169753
  entropy T*S    EENTRO =        -0.25518427
  eigenvalues    EBANDS =      -402.97493800
  atomic energy  EATOM  =     58329.24398462
  Solvation  Ediel_sol  =         0.00000000
  ---------------------------------------------------
  free energy    TOTEN  =      -466.11179839 eV

  energy without entropy =     -465.85661412  energy(sigma->0) =     -466.02673697


--------------------------------------------------------------------------------------------------------




--------------------------------------- Iteration      1(  16)  ---------------------------------------


    POTLOK:  cpu time    0.1946: real time    0.1951
    SETDIJ:  cpu time    0.0152: real time    0.0153
    EDDIAG:  cpu time    5.3504: real time    5.3633
  RMM-DIIS:  cpu time   19.0814: real time   19.1266
    ORTHCH:  cpu time    0.4817: real time    0.4829
       DOS:  cpu time    0.0011: real time    0.0011
    CHARGE:  cpu time    2.4933: real time    2.4993
    MIXING:  cpu time    0.0086: real time    0.0086
    --------------------------------------------
      LOOP:  cpu time   27.6264: real time   27.6921

 eigenvalue-minimisations  :  3860
 total energy-change (2. order) : 0.5147679E+00  (-0.1685394E-01)
 number of electron     799.9999992 magnetization 
 augmentation part      247.9750516 magnetization 

 Broyden mixing:
  rms(total) = 0.60402E+00    rms(broyden)= 0.60401E+00
  rms(prec ) = 0.77785E+00
  weight for this iteration     100.00

 eigenvalues of (default mixing * dielectric matrix)
  average eigenvalue GAMMA=   0.6472
  1.6534  1.6534  1.6632  0.4505  0.4505  0.2738  0.2738  0.2320  0.2320  0.0971
  0.1397

 Free energy of the ion-electron system (eV)
  ---------------------------------------------------
  alpha Z        PSCENC =      2535.25610547
  Ewald energy   TEWEN  =    179283.31460367
  -Hartree energ DENC   =   -242488.46315348
  -exchange      EXHF   =         0.00000000
  -V(xc)+E(xc)   XCENC  =       250.83297888
  PAW double counting   =     71820.48895003   -69788.58445166
  entropy T*S    EENTRO =        -0.31496948
  eigenvalues    EBANDS =      -407.37107853
  atomic energy  EATOM  =     58329.24398462
  Solvation  Ediel_sol  =         0.00000000
  ---------------------------------------------------
  free energy    TOTEN  =      -465.59703048 eV

  energy without entropy =     -465.28206100  energy(sigma->0) =     -465.49204065


--------------------------------------------------------------------------------------------------------




--------------------------------------- Iteration      1(  17)  ---------------------------------------


    POTLOK:  cpu time    0.1948: real time    0.1953
    SETDIJ:  cpu time    0.0155: real time    0.0156
    EDDIAG:  cpu time    5.3503: real time    5.3631
  RMM-DIIS:  cpu time   19.1853: real time   19.2308
    ORTHCH:  cpu time    0.4848: real time    0.4860
       DOS:  cpu time    0.0010: real time    0.0010
    CHARGE:  cpu time    2.4962: real time    2.5022
    MIXING:  cpu time    0.0097: real time    0.0097
    --------------------------------------------
      LOOP:  cpu time   27.7377: real time   27.8037

 eigenvalue-minimisations  :  3869
 total energy-change (2. order) : 0.2363990E+00  (-0.7622752E-02)
 number of electron     799.9999992 magnetization 
 augmentation part      248.0627378 magnetization 

 Broyden mixing:
  rms(total) = 0.24140E+00    rms(broyden)= 0.24140E+00
  rms(prec ) = 0.30689E+00
  weight for this iteration     100.00

 eigenvalues of (default mixing * dielectric matrix)
  average eigenvalue GAMMA=   0.6381
  1.6982  1.6982  1.6416  0.5283  0.5283  0.3038  0.3038  0.2535  0.2535  0.0971
  0.2099  0.1404

 Free energy of the ion-electron system (eV)
  ---------------------------------------------------
  alpha Z        PSCENC =      2535.25610547
  Ewald energy   TEWEN  =    179283.31460367
  -Hartree energ DENC   =   -242481.54000526
  -exchange      EXHF   =         0.00000000
  -V(xc)+E(xc)   XCENC  =       250.93258197
  PAW double counting   =     71819.85134778   -69787.59504190
  entropy T*S    EENTRO =        -0.29705286
  eigenvalues    EBANDS =      -414.52715493
  atomic energy  EATOM  =     58329.24398462
  Solvation  Ediel_sol  =         0.00000000
  ---------------------------------------------------
  free energy    TOTEN  =      -465.36063144 eV

  energy without entropy =     -465.06357858  energy(sigma->0) =     -465.26161382


--------------------------------------------------------------------------------------------------------




--------------------------------------- Iteration      1(  18)  ---------------------------------------


    POTLOK:  cpu time    0.1962: real time    0.1967
    SETDIJ:  cpu time    0.0153: real time    0.0154
    EDDIAG:  cpu time    5.3459: real time    5.3588
  RMM-DIIS:  cpu time   19.6258: real time   19.6934
    ORTHCH:  cpu time    0.4833: real time    0.4844
       DOS:  cpu time    0.0011: real time    0.0011
    CHARGE:  cpu time    2.4934: real time    2.4993
    MIXING:  cpu time    0.0092: real time    0.0092
    --------------------------------------------
      LOOP:  cpu time   28.1702: real time   28.2583

 eigenvalue-minimisations  :  3935
 total energy-change (2. order) : 0.2640856E-01  (-0.2309654E-02)
 number of electron     799.9999992 magnetization 
 augmentation part      248.0809763 magnetization 

 Broyden mixing:
  rms(total) = 0.17073E+00    rms(broyden)= 0.17073E+00
  rms(prec ) = 0.19541E+00
  weight for this iteration     100.00

 eigenvalues of (default mixing * dielectric matrix)
  average eigenvalue GAMMA=   0.6485
  1.7889  1.7889  1.6230  0.6758  0.6758  0.3420  0.3420  0.2605  0.2571  0.2571
  0.0971  0.1830  0.1393

 Free energy of the ion-electron system (eV)
  ---------------------------------------------------
  alpha Z        PSCENC =      2535.25610547
  Ewald energy   TEWEN  =    179283.31460367
  -Hartree energ DENC   =   -242480.61794939
  -exchange      EXHF   =         0.00000000
  -V(xc)+E(xc)   XCENC  =       250.97354411
  PAW double counting   =     71843.77083125   -69811.52106006
  entropy T*S    EENTRO =        -0.28275495
  eigenvalues    EBANDS =      -415.47152761
  atomic energy  EATOM  =     58329.24398462
  Solvation  Ediel_sol  =         0.00000000
  ---------------------------------------------------
  free energy    TOTEN  =      -465.33422288 eV

  energy without entropy =     -465.05146793  energy(sigma->0) =     -465.23997123


--------------------------------------------------------------------------------------------------------




--------------------------------------- Iteration      1(  19)  ---------------------------------------


    POTLOK:  cpu time    0.1957: real time    0.1962
    SETDIJ:  cpu time    0.0156: real time    0.0157
    EDDIAG:  cpu time    5.3469: real time    5.3597
  RMM-DIIS:  cpu time   19.2053: real time   19.2509
    ORTHCH:  cpu time    0.4823: real time    0.4835
       DOS:  cpu time    0.0011: real time    0.0011
    CHARGE:  cpu time    2.4970: real time    2.5030
    MIXING:  cpu time    0.0101: real time    0.0101
    --------------------------------------------
      LOOP:  cpu time   27.7540: real time   27.8202

 eigenvalue-minimisations  :  3870
 total energy-change (2. order) : 0.5950913E-02  (-0.1377272E-02)
 number of electron     799.9999991 magnetization 
 augmentation part      248.0571719 magnetization 

 Broyden mixing:
  rms(total) = 0.17648E+00    rms(broyden)= 0.17647E+00
  rms(prec ) = 0.20432E+00
  weight for this iteration     100.00

 eigenvalues of (default mixing * dielectric matrix)
  average eigenvalue GAMMA=   0.6507
  1.9147  1.9147  1.5942  0.7447  0.7447  0.4199  0.3586  0.2843  0.2843  0.2641
  0.0971  0.1939  0.1390  0.1561

 Free energy of the ion-electron system (eV)
  ---------------------------------------------------
  alpha Z        PSCENC =      2535.25610547
  Ewald energy   TEWEN  =    179283.31460367
  -Hartree energ DENC   =   -242485.03317289
  -exchange      EXHF   =         0.00000000
  -V(xc)+E(xc)   XCENC  =       251.01297969
  PAW double counting   =     71881.85509844   -69849.69523317
  entropy T*S    EENTRO =        -0.27883743
  eigenvalues    EBANDS =      -411.00380037
  atomic energy  EATOM  =     58329.24398462
  Solvation  Ediel_sol  =         0.00000000
  ---------------------------------------------------
  free energy    TOTEN  =      -465.32827197 eV

  energy without entropy =     -465.04943454  energy(sigma->0) =     -465.23532616


--------------------------------------------------------------------------------------------------------




--------------------------------------- Iteration      1(  20)  ---------------------------------------


    POTLOK:  cpu time    0.1966: real time    0.1971
    SETDIJ:  cpu time    0.0157: real time    0.0158
    EDDIAG:  cpu time    5.3460: real time    5.3588
  RMM-DIIS:  cpu time   19.1392: real time   19.1846
    ORTHCH:  cpu time    0.4844: real time    0.4856
       DOS:  cpu time    0.0011: real time    0.0011
    CHARGE:  cpu time    2.4944: real time    2.5004
    MIXING:  cpu time    0.0094: real time    0.0094
    --------------------------------------------
      LOOP:  cpu time   27.6869: real time   27.7528

 eigenvalue-minimisations  :  3870
 total energy-change (2. order) : 0.6758574E-02  (-0.1278310E-02)
 number of electron     799.9999991 magnetization 
 augmentation part      248.0155451 magnetization 

 Broyden mixing:
  rms(total) = 0.16127E+00    rms(broyden)= 0.16127E+00
  rms(prec ) = 0.21011E+00
  weight for this iteration     100.00

 eigenvalues of (default mixing * dielectric matrix)
  average eigenvalue GAMMA=   0.6568
  1.9487  1.9487  1.6039  0.8859  0.8859  0.4529  0.4529  0.2828  0.2828  0.2644
  0.2644  0.0971  0.2006  0.1440  0.1375

 Free energy of the ion-electron system (eV)
  ---------------------------------------------------
  alpha Z        PSCENC =      2535.25610547
  Ewald energy   TEWEN  =    179283.31460367
  -Hartree energ DENC   =   -242491.21729347
  -exchange      EXHF   =         0.00000000
  -V(xc)+E(xc)   XCENC  =       251.03744239
  PAW double counting   =     71912.70199784   -69880.63879062
  entropy T*S    EENTRO =        -0.28810773
  eigenvalues    EBANDS =      -404.73145556
  atomic energy  EATOM  =     58329.24398462
  Solvation  Ediel_sol  =         0.00000000
  ---------------------------------------------------
  free energy    TOTEN  =      -465.32151339 eV

  energy without entropy =     -465.03340566  energy(sigma->0) =     -465.22547748


--------------------------------------------------------------------------------------------------------




--------------------------------------- Iteration      1(  21)  ---------------------------------------


    POTLOK:  cpu time    0.1968: real time    0.1973
    SETDIJ:  cpu time    0.0153: real time    0.0153
    EDDIAG:  cpu time    5.3448: real time    5.3577
  RMM-DIIS:  cpu time   19.0819: real time   19.1312
    ORTHCH:  cpu time    0.4807: real time    0.4818
       DOS:  cpu time    0.0012: real time    0.0012
    CHARGE:  cpu time    2.4951: real time    2.5022
    MIXING:  cpu time    0.0108: real time    0.0108
    --------------------------------------------
      LOOP:  cpu time   27.6265: real time   27.6975

 eigenvalue-minimisations  :  3864
 total energy-change (2. order) : 0.1798221E-02  (-0.6530949E-03)
 number of electron     799.9999992 magnetization 
 augmentation part      248.0165869 magnetization 

 Broyden mixing:
  rms(total) = 0.16937E+00    rms(broyden)= 0.16937E+00
  rms(prec ) = 0.24665E+00
  weight for this iteration     100.00

 eigenvalues of (default mixing * dielectric matrix)
  average eigenvalue GAMMA=   0.6599
  1.9349  1.9349  1.6616  1.0512  1.0512  0.4929  0.4929  0.2856  0.2856  0.2727
  0.2727  0.2496  0.0971  0.1963  0.1418  0.1377

 Free energy of the ion-electron system (eV)
  ---------------------------------------------------
  alpha Z        PSCENC =      2535.25610547
  Ewald energy   TEWEN  =    179283.31460367
  -Hartree energ DENC   =   -242492.52896807
  -exchange      EXHF   =         0.00000000
  -V(xc)+E(xc)   XCENC  =       251.04245521
  PAW double counting   =     71921.76798111   -69889.75625050
  entropy T*S    EENTRO =        -0.28713219
  eigenvalues    EBANDS =      -403.37249449
  atomic energy  EATOM  =     58329.24398462
  Solvation  Ediel_sol  =         0.00000000
  ---------------------------------------------------
  free energy    TOTEN  =      -465.31971517 eV

  energy without entropy =     -465.03258298  energy(sigma->0) =     -465.22400444


--------------------------------------------------------------------------------------------------------




--------------------------------------- Iteration      1(  22)  ---------------------------------------


    POTLOK:  cpu time    0.2002: real time    0.2006
    SETDIJ:  cpu time    0.0160: real time    0.0161
    EDDIAG:  cpu time    5.3413: real time    5.3559
  RMM-DIIS:  cpu time   19.3898: real time   19.4432
    ORTHCH:  cpu time    0.4849: real time    0.4861
       DOS:  cpu time    0.0012: real time    0.0012
    CHARGE:  cpu time    2.4965: real time    2.5036
    MIXING:  cpu time    0.0099: real time    0.0099
    --------------------------------------------
      LOOP:  cpu time   27.9398: real time   28.0166

 eigenvalue-minimisations  :  3883
 total energy-change (2. order) : 0.1369741E-01  (-0.3406263E-03)
 number of electron     799.9999991 magnetization 
 augmentation part      248.0447092 magnetization 

 Broyden mixing:
  rms(total) = 0.68147E-01    rms(broyden)= 0.68147E-01
  rms(prec ) = 0.10084E+00
  weight for this iteration     100.00

 eigenvalues of (default mixing * dielectric matrix)
  average eigenvalue GAMMA=   0.6526
  1.9345  1.9345  1.6582  1.1250  1.1250  0.5238  0.5238  0.2923  0.2923  0.3074
  0.3074  0.2689  0.0971  0.2263  0.1975  0.1419  0.1375

 Free energy of the ion-electron system (eV)
  ---------------------------------------------------
  alpha Z        PSCENC =      2535.25610547
  Ewald energy   TEWEN  =    179283.31460367
  -Hartree energ DENC   =   -242491.20097931
  -exchange      EXHF   =         0.00000000
  -V(xc)+E(xc)   XCENC  =       251.05476878
  PAW double counting   =     71935.28550573   -69903.34367518
  entropy T*S    EENTRO =        -0.27613445
  eigenvalues    EBANDS =      -404.64019709
  atomic energy  EATOM  =     58329.24398462
  Solvation  Ediel_sol  =         0.00000000
  ---------------------------------------------------
  free energy    TOTEN  =      -465.30601777 eV

  energy without entropy =     -465.02988332  energy(sigma->0) =     -465.21397295


--------------------------------------------------------------------------------------------------------




--------------------------------------- Iteration      1(  23)  ---------------------------------------


    POTLOK:  cpu time    0.1994: real time    0.1998
[...]
   -.532E+00 0.468E+00 -.132E+04   0.364E+00 -.353E+00 0.132E+04   0.250E-01 -.288E-01 0.709E+00   0.153E+00 -.966E-01 -.142E+00
   -.489E+00 -.582E+00 0.260E+04   0.463E+00 0.621E+00 -.260E+04   -.343E-01 0.607E-01 -.144E+01   0.535E-01 -.896E-01 0.325E-01
   -.122E-01 0.708E+00 0.260E+04   0.694E-01 -.661E+00 -.260E+04   -.201E-01 -.183E-01 -.145E+01   -.395E-01 -.328E-01 0.593E-01
   0.101E+00 0.156E-01 0.260E+04   -.254E-01 -.645E-01 -.260E+04   -.283E-01 0.270E-01 -.145E+01   -.451E-01 0.257E-01 0.681E-01
   -.770E-01 0.262E-01 0.132E+04   0.367E-01 -.455E-01 -.132E+04   -.105E-01 0.232E-02 -.695E+00   0.496E-01 0.165E-01 -.488E-01
   0.197E+00 -.258E+00 0.132E+04   -.109E+00 0.299E+00 -.132E+04   -.128E-01 0.275E-02 -.713E+00   -.754E-01 -.486E-01 0.378E-01
   -.156E+00 0.304E+00 -.132E+04   0.435E-03 -.320E+00 0.132E+04   -.949E-02 -.153E-01 0.706E+00   0.163E+00 0.286E-01 -.121E+00
   -.250E+00 -.241E-01 0.260E+04   0.296E+00 -.769E-01 -.260E+04   -.418E-02 0.224E-01 -.145E+01   -.470E-01 0.794E-01 0.440E-01
   0.129E+00 0.153E+00 0.132E+04   -.180E+00 -.155E+00 -.132E+04   -.187E-01 -.105E-01 -.710E+00   0.690E-01 0.567E-02 -.759E-03
   -.411E+00 0.354E+00 -.982E+00   0.270E+00 -.331E+00 0.102E+01   0.220E-03 -.690E-02 -.101E-01   0.141E+00 -.178E-01 -.289E-01
   0.127E+00 -.387E+00 -.132E+04   -.514E-01 0.341E+00 0.132E+04   -.631E-02 0.311E-02 0.702E+00   -.738E-01 0.462E-01 -.375E-01
   0.148E+00 0.192E+00 -.132E+04   0.756E-02 -.259E+00 0.132E+04   0.173E-01 -.125E-01 0.706E+00   -.168E+00 0.768E-01 -.397E-01
   0.285E+00 0.394E-01 -.132E+04   -.198E+00 -.194E+00 0.132E+04   -.198E-01 -.872E-02 0.703E+00   -.757E-01 0.162E+00 -.527E-01
   0.959E+00 -.124E+01 0.260E+04   -.861E+00 0.119E+01 -.260E+04   -.628E-01 0.342E-01 -.144E+01   -.506E-01 0.139E-01 -.638E-02
   -.158E+00 -.164E-01 0.260E+04   0.119E+00 0.245E-01 -.260E+04   0.101E-01 0.302E-01 -.144E+01   0.344E-01 -.307E-01 0.307E-01
   0.321E+00 0.326E+00 0.260E+04   -.266E+00 -.402E+00 -.260E+04   -.144E-01 -.289E-02 -.144E+01   -.446E-01 0.819E-01 0.137E-01
   -.424E+00 -.334E+00 0.132E+04   0.371E+00 0.417E+00 -.132E+04   0.722E-02 0.140E-01 -.705E+00   0.525E-01 -.943E-01 -.397E-01
   -.603E+00 -.326E+00 0.225E+01   0.514E+00 0.445E+00 -.219E+01   0.215E-01 0.234E-02 0.263E-01   0.768E-01 -.116E+00 -.785E-01
   -.322E+00 0.277E-01 0.132E+04   0.236E+00 0.363E-01 -.132E+04   0.162E-01 0.997E-02 -.709E+00   0.811E-01 -.720E-01 0.154E-01
   -.147E+00 0.483E+00 0.132E+04   0.967E-01 -.536E+00 -.132E+04   0.559E-02 -.165E-01 -.710E+00   0.475E-01 0.589E-01 -.338E-01
   0.284E+00 -.833E-01 -.132E+04   -.210E+00 0.160E+00 0.132E+04   0.262E-02 -.440E-02 0.710E+00   -.817E-01 -.706E-01 -.578E-01
   0.596E+00 -.178E+00 0.260E+04   -.534E+00 0.184E+00 -.260E+04   -.331E-01 0.188E-01 -.144E+01   -.340E-01 -.273E-01 0.298E-01
   -.404E+00 0.149E+00 0.132E+04   0.371E+00 -.735E-01 -.132E+04   0.222E-01 0.758E-02 -.705E+00   0.196E-01 -.795E-01 -.366E-01
   0.462E+00 0.510E-01 -.378E+00   -.386E+00 -.995E-02 0.333E+00   -.400E-02 -.228E-01 -.256E-02   -.758E-01 -.291E-01 0.476E-01
   -.121E+00 -.196E+00 -.260E+04   0.921E-02 0.319E+00 0.260E+04   0.180E-01 -.869E-02 0.144E+01   0.102E+00 -.117E+00 -.654E-02
   0.682E+00 0.569E+00 -.260E+04   -.773E+00 -.537E+00 0.260E+04   -.267E-01 -.398E-01 0.144E+01   0.112E+00 0.117E-02 -.128E+00
   -.440E-01 -.953E-01 -.260E+04   -.982E-01 0.226E+00 0.260E+04   0.508E-01 -.166E-01 0.144E+01   0.995E-01 -.123E+00 -.879E-01
   0.112E+00 -.132E+00 -.260E+04   -.196E+00 0.109E+00 0.260E+04   -.978E-02 0.218E-01 0.144E+01   0.938E-01 0.605E-02 -.516E-01
   -.634E+00 -.673E-02 -.260E+04   0.685E+00 0.291E-01 0.260E+04   0.608E-01 -.311E-01 0.144E+01   -.102E+00 0.346E-02 -.744E-01
   0.254E+00 0.404E+00 -.260E+04   -.362E+00 -.368E+00 0.260E+04   0.103E-01 -.943E-02 0.144E+01   0.957E-01 -.218E-01 0.140E-02
   0.243E+00 0.165E+00 -.260E+04   -.355E+00 -.115E+00 0.260E+04   0.326E-03 -.271E-01 0.145E+01   0.109E+00 -.252E-01 -.779E-01
   -.146E+00 -.384E+00 -.260E+04   0.236E+00 0.379E+00 0.260E+04   0.142E-01 0.490E-03 0.144E+01   -.104E+00 0.764E-02 -.167E-02
   -.100E+01 0.815E-01 -.260E+04   0.846E+00 0.261E-01 0.260E+04   0.613E-01 -.600E-02 0.144E+01   0.101E+00 -.971E-01 -.660E-01
   -.405E-01 -.237E+00 -.260E+04   0.124E+00 0.132E+00 0.260E+04   0.151E-01 0.739E-02 0.144E+01   -.956E-01 0.969E-01 -.583E-01
   0.560E+00 0.361E+00 -.260E+04   -.439E+00 -.343E+00 0.260E+04   -.822E-02 -.286E-01 0.144E+01   -.106E+00 0.845E-02 -.124E+00
   -.120E+00 0.182E+00 -.260E+04   0.210E+00 -.310E+00 0.260E+04   0.154E-01 0.127E-01 0.144E+01   -.111E+00 0.123E+00 -.362E-01
   0.122E-01 -.571E+00 -.260E+04   -.136E+00 0.665E+00 0.260E+04   0.200E-01 -.626E-03 0.145E+01   0.110E+00 -.975E-01 -.136E+00
   -.436E+00 0.104E+00 -.260E+04   0.518E+00 -.195E+00 0.260E+04   0.236E-01 0.300E-03 0.144E+01   -.108E+00 0.103E+00 0.180E-01
   0.248E+00 0.156E+00 -.132E+04   -.953E-01 -.367E+00 0.132E+04   0.155E-03 -.984E-02 0.713E+00   -.153E+00 0.220E+00 -.232E-01
   0.729E+00 -.358E+00 0.260E+04   -.754E+00 0.272E+00 -.260E+04   -.320E-01 0.566E-01 -.144E+01   0.567E-01 0.384E-01 -.220E-02
   0.275E+00 -.547E+00 -.132E+04   -.113E+00 0.453E+00 0.132E+04   -.818E-02 0.114E-01 0.717E+00   -.160E+00 0.869E-01 -.187E-01
   -.171E-01 -.846E+00 0.260E+04   -.436E-02 0.847E+00 -.260E+04   -.256E-01 0.266E-01 -.144E+01   0.406E-01 -.201E-01 -.248E-01
   -.523E-01 0.245E+00 0.132E+04   -.619E-03 -.271E+00 -.132E+04   0.300E-02 -.706E-02 -.714E+00   0.508E-01 0.278E-01 0.508E-02
   0.851E-01 0.439E-01 0.132E+04   -.197E-01 -.160E+00 -.132E+04   -.951E-02 -.149E-02 -.724E+00   -.567E-01 0.115E+00 0.944E-01
   -.979E-01 -.747E-01 -.132E+04   -.659E-01 0.179E+00 0.132E+04   0.748E-02 -.883E-02 0.726E+00   0.157E+00 -.963E-01 -.121E+00
   0.104E+00 -.516E+00 0.260E+04   -.330E-01 0.475E+00 -.260E+04   -.442E-01 0.152E-01 -.145E+01   -.336E-01 0.246E-01 0.260E-01
   0.307E+00 -.228E+00 0.132E+04   -.238E+00 0.275E+00 -.132E+04   -.161E-01 0.534E-02 -.704E+00   -.528E-01 -.511E-01 0.890E-01
   -.521E+00 0.432E+00 -.260E+04   0.591E+00 -.526E+00 0.260E+04   0.221E-01 -.280E-01 0.144E+01   -.919E-01 0.119E+00 -.109E+00
   -.563E-02 0.262E+00 -.101E+01   0.114E+00 -.390E+00 0.977E+00   0.138E-01 -.418E-02 -.141E-01   -.120E+00 0.134E+00 0.444E-01
   -.234E+00 -.290E-02 -.260E+04   0.323E+00 -.829E-02 0.260E+04   0.221E-01 0.818E-02 0.144E+01   -.108E+00 0.110E-01 -.501E-01
   0.201E-01 -.111E+00 0.132E+04   0.474E-01 0.430E-01 -.132E+04   -.160E-01 -.468E-02 -.723E+00   -.524E-01 0.682E-01 0.509E-01
   0.344E+00 -.754E-01 0.132E+04   -.258E+00 0.124E-01 -.132E+04   -.271E-01 -.143E-02 -.714E+00   -.651E-01 0.612E-01 0.662E-01
   -.173E+00 0.233E+00 0.494E+00   0.321E-01 -.632E-01 -.434E+00   0.104E-01 -.167E-01 -.243E-02   0.130E+00 -.158E+00 -.596E-01
   -.439E+00 0.349E+00 -.132E+04   0.340E+00 -.294E+00 0.132E+04   0.301E-01 -.140E-01 0.720E+00   0.781E-01 -.469E-01 -.111E+00
   0.211E+00 0.214E+00 -.132E+04   -.146E+00 -.242E+00 0.132E+04   0.753E-02 -.144E-01 0.713E+00   -.698E-01 0.377E-01 -.655E-01
   -.416E+00 0.719E+00 0.260E+04   0.377E+00 -.689E+00 -.260E+04   -.880E-02 0.139E-01 -.144E+01   0.443E-01 -.361E-01 0.484E-01
   0.543E+00 -.172E+00 0.260E+04   -.490E+00 0.125E+00 -.260E+04   -.185E-01 0.278E-01 -.144E+01   -.340E-01 0.260E-01 0.451E-01
   0.804E-01 0.808E-01 0.132E+04   -.380E-01 -.838E-01 -.132E+04   0.198E-01 -.137E-02 -.709E+00   -.523E-01 0.512E-04 0.724E-01
   0.114E+00 0.165E+00 0.132E+04   -.699E-01 -.279E+00 -.132E+04   -.141E-02 -.973E-02 -.730E+00   -.419E-01 0.113E+00 0.711E-01
   -.604E-01 -.283E+00 -.285E+01   0.115E+00 0.162E+00 0.280E+01   -.162E-02 -.101E-01 -.278E-01   -.478E-01 0.129E+00 0.686E-01
   -.513E-01 0.376E+00 -.132E+04   -.216E-01 -.446E+00 0.132E+04   0.141E-02 -.123E-01 0.716E+00   0.697E-01 0.778E-01 -.107E+00
   -.327E+00 0.905E-01 0.260E+04   0.307E+00 -.132E+00 -.260E+04   -.200E-01 0.244E-01 -.144E+01   0.367E-01 0.315E-01 0.298E-01
   -.127E+00 -.115E+00 0.202E+01   -.520E-02 0.253E+00 -.195E+01   -.478E-02 -.162E-02 0.107E-01   0.136E+00 -.132E+00 -.827E-01
   0.444E-01 -.177E-01 0.472E+00   0.978E-01 0.467E-01 -.507E+00   0.249E-01 -.455E-02 0.517E-02   -.160E+00 -.244E-01 0.289E-01
   0.101E+00 0.511E+00 0.657E+00   -.146E+00 -.511E+00 -.584E+00   0.102E-02 -.106E-02 -.548E-02   0.408E-01 -.433E-03 -.741E-01
   -.528E-01 -.327E-01 -.752E+00   0.899E-01 0.930E-01 0.700E+00   0.271E-01 -.198E-01 -.747E-02   -.526E-01 -.475E-01 0.564E-01
   -.228E+00 -.308E+00 0.178E-01   0.349E+00 0.277E+00 -.339E-01   0.558E-02 -.346E-02 -.710E-02   -.122E+00 0.350E-01 0.189E-01
   0.783E-01 0.415E-01 0.132E+04   -.229E-01 -.535E-01 -.132E+04   0.187E-02 0.325E-02 -.719E+00   -.548E-01 0.818E-02 0.105E+00
   -.353E-02 -.542E-01 0.269E+01   -.604E-01 0.150E+00 -.260E+01   -.297E-02 0.228E-03 0.188E-01   0.635E-01 -.955E-01 -.108E+00
   -.107E+00 0.118E+00 -.132E+04   0.236E-01 -.681E-01 0.132E+04   0.378E-02 -.139E-01 0.735E+00   0.785E-01 -.395E-01 -.980E-01
   0.280E-01 -.380E+00 -.132E+04   0.104E+00 0.396E+00 0.132E+04   0.231E-01 0.111E-01 0.724E+00   -.153E+00 -.189E-01 -.252E-01
   0.190E+00 -.320E+00 0.260E+04   -.216E+00 0.309E+00 -.260E+04   -.421E-01 0.355E-01 -.145E+01   0.511E-01 -.170E-01 0.474E-02
   0.573E+00 0.106E+00 0.260E+04   -.555E+00 -.368E-01 -.260E+04   -.456E-01 0.109E-01 -.144E+01   0.229E-01 -.794E-01 -.830E-03
   0.902E-01 0.357E+00 -.306E+01   -.405E-01 -.441E+00 0.299E+01   0.152E-01 -.104E-01 -.276E-01   -.609E-01 0.884E-01 0.915E-01
   0.133E+00 0.232E+00 -.713E-01   -.244E+00 -.236E+00 0.136E+00   -.122E-01 -.996E-02 -.818E-02   0.114E+00 0.962E-02 -.616E-01
   -.424E-01 -.156E+00 0.132E+04   -.246E-01 0.269E+00 -.132E+04   -.381E-02 0.260E-02 -.704E+00   0.736E-01 -.119E+00 0.119E-01
   -.717E-01 0.401E-02 0.230E+01   0.126E-01 -.659E-01 -.222E+01   -.711E-02 -.270E-02 0.248E-01   0.690E-01 0.650E-01 -.104E+00
   0.473E+00 -.119E+00 -.989E+00   -.332E+00 -.423E-01 0.971E+00   -.209E-01 -.673E-03 -.131E-01   -.132E+00 0.163E+00 0.245E-01
 -----------------------------------------------------------------------------------------------
   0.669E-02 -.626E-02 0.160E+01   -.940E-13 0.578E-12 0.114E-10   0.168E-01 -.317E-02 -.589E-01   -.122E-02 0.143E-02 -.160E+01
 
 
 POSITION                                       TOTAL-FORCE (eV/Angst)
 -----------------------------------------------------------------------------------
     13.67634      8.44946      7.19038         0.006101      0.002807     -0.016685
      5.26208      8.45181      7.19252         0.002479      0.003540     -0.020095
      3.85965      6.02357      7.19553         0.008849     -0.010547     -0.017232
     13.70600      8.42786      0.51320        -0.007646      0.009339      0.034936
      5.28952      8.43447      0.51701        -0.003785     -0.003031      0.026010
      3.88371      6.00123      0.51983         0.001505      0.003629      0.020320
      8.08657      1.95994      2.77776        -0.002136     -0.000584      0.026729
      9.48882      9.24928      2.77921        -0.000944     -0.003908      0.019407
      2.46475      3.59284      7.19505        -0.002597     -0.002719     -0.018525
      2.48099      3.57332      0.52174        -0.005349      0.001032      0.016902
     10.89404      1.96263      2.77896        -0.000513     -0.006168      0.017850
     13.68689      5.20832      4.98903         0.000568     -0.001598     -0.004200
      3.86577      1.16027      7.19622        -0.004283      0.003516     -0.019358
      9.47092      6.02046      7.19558         0.004472     -0.003278     -0.022632
      5.27125      3.59144      7.19745        -0.008684     -0.001061     -0.022831
      3.89023      1.14293      0.51828        -0.015399      0.002224      0.021502
      9.48981      6.00112      0.51250         0.004140      0.007606      0.035693
      5.28621      3.57457      0.52068        -0.004088      0.004495      0.019902
     12.29198      9.24781      2.77661         0.006031      0.002733      0.024046
     12.27865      7.63452      4.98321         0.009401      0.004347      0.007690
     13.69132      6.81939      2.77969         0.011635      0.002255      0.021601
      9.48403      4.39243      2.77879         0.002724     -0.010437      0.023120
      8.06879      8.45129      7.19500        -0.004941      0.002125     -0.020886
      8.09474      8.43327      0.51424        -0.006109     -0.001681      0.031333
     10.88314      6.81959      2.77633         0.008407      0.003131      0.020224
      2.46881      0.34842      4.98773        -0.004252     -0.010395      0.000208
     15.07596      9.26249      9.45325         0.008829     -0.003436     -0.021441
      3.86351      4.40675      9.45983        -0.005747     -0.005621     -0.036430
      6.65814      9.26538      9.45642         0.007276     -0.008486     -0.028827
     12.27799      4.40027      9.45651        -0.000076      0.003471     -0.023284
      9.46377      9.26446      9.46099         0.009202     -0.004833     -0.035451
     10.87224      1.97299      9.45394        -0.000587      0.005458     -0.021106
      2.45687      1.97576      9.45681        -0.002284     -0.002065     -0.027976
     12.27086      9.26033      9.45721         0.002061      0.003453     -0.025898
     13.67214      6.83288      9.45734         0.006190      0.004760     -0.026956
      5.26286      1.97258      9.45983         0.002846     -0.001370     -0.037259
      8.06681      6.83583      9.46212         0.006537     -0.002037     -0.039917
      9.47080      4.40034      9.45834        -0.005613      0.006711     -0.031564
      5.25896      6.83491      9.45835         0.005436     -0.004493     -0.029340
      8.06600      1.97145      9.45502        -0.002631      0.011353     -0.024765
      8.07404      3.59114      7.19380        -0.001393     -0.001058     -0.015450
      8.09194      3.56958      0.51572        -0.000798      0.009337      0.029446
      6.67005      1.15782      7.19250        -0.006465      0.004097     -0.015329
      6.69247      1.14127      0.51484        -0.007119      0.007664      0.032283
     12.29094      4.39199      2.78131         0.000945     -0.004976      0.017219
      3.87583      4.39127      2.78580        -0.000833     -0.002898      0.014402
      1.05874      1.16198      7.19112         0.000354     -0.001605     -0.008035
      1.08436      1.14436      0.51829        -0.007014     -0.000957      0.021914
      6.68427      9.25092      2.77981        -0.000247      0.000701      0.025083
      6.66629      4.40534      9.46174        -0.000553     -0.002750     -0.037674
      8.07447      5.20797      4.98898         0.002209      0.000417     -0.005366
     10.86931      6.83050      9.45977         0.002695      0.007581     -0.029761
      5.28268      1.96119      2.78306        -0.001603     -0.003777      0.015098
      2.47857      1.96192      2.78329        -0.006477     -0.002854      0.016657
     15.08697      7.63791      4.98649        -0.000575     -0.005125     -0.001157
     12.27542      6.02058      7.19291         0.008763     -0.005483     -0.011364
      6.66773      6.02298      7.19705         0.002247     -0.004140     -0.014569
     12.29792      6.00170      0.51416        -0.004096      0.007692      0.034820
      6.68713      6.00173      0.51699        -0.000257      0.007041      0.025845
      8.07923      6.82125      2.77957         0.009641     -0.004137      0.021695
      6.68055      4.39126      2.78389         0.001138     -0.010107      0.010336
      3.87367      2.77722      4.99197         0.004020     -0.002299     -0.008663
     10.87888      3.59149      7.19159        -0.002401     -0.004904     -0.014794
     10.89716      3.57247      0.51509        -0.003132      0.014682      0.034791
     10.88444      0.34793      4.98388        -0.000999      0.004322      0.001320
      9.47426      7.63591      4.98609         0.006823      0.000215      0.000332
     10.87981      5.20759      4.98642        -0.003357     -0.001938     -0.005676
      6.67029      7.63820      4.98831         0.011537     -0.007104     -0.002608
      5.27182      0.34549      4.98723         0.003537      0.000917     -0.003538
      5.27570      6.82108      2.78266         0.002488     -0.000111      0.015341
      8.07726      0.34560      4.98271        -0.003359      0.000446      0.000910
      9.47455      1.16152      7.18802        -0.000817     -0.003736     -0.003028
     10.87195      8.44785      7.19347         0.003320      0.008627     -0.010501
      9.49980      1.14090      0.51515        -0.017011      0.007919      0.029084
     10.90061      8.43180      0.51052        -0.004689      0.001407      0.036690
      5.27047      5.20853      4.99231         0.003795     -0.006251     -0.009698
     12.29003      2.77886      4.98745        -0.009300     -0.004530     -0.004436
     15.09908      9.24940      2.77797         0.001949     -0.003491      0.022060
      9.48265      2.77729      4.98310         0.002373      0.000016      0.007548
      6.67905      2.77603      4.98880        -0.012367      0.000915     -0.006043
 -----------------------------------------------------------------------------------
    total drift:                                0.022238     -0.007996     -0.055755


--------------------------------------------------------------------------------------------------------



  FREE ENERGIE OF THE ION-ELECTRON SYSTEM (eV)
  ---------------------------------------------------
  free  energy   TOTEN  =      -512.67648420 eV

  energy  without entropy=     -512.40459505  energy(sigma->0) =     -512.58585448
 
 d Force = 0.2762007E-02[ 0.231E-02, 0.322E-02]  d Energy = 0.2943319E-02-0.181E-03
 d Force =-0.1731379E+03[-0.173E+03,-0.173E+03]  d Ewald  =-0.1731379E+03-0.297E-05


--------------------------------------------------------------------------------------------------------


    POTLOK:  cpu time    0.2163: real time    0.2169


--------------------------------------------------------------------------------------------------------


 Steepest descent step on ions:
 trial-energy change:   -0.002943  1 .order   -0.002762   -0.003217   -0.002307
  (g-gl).g = 0.322E-02      g.g   = 0.322E-02  gl.gl    = 0.000E+00
 g(Force)  = 0.322E-02   g(Stress)= 0.000E+00 ortho     = 0.000E+00
 gamma     =   0.00000
 trial     =   1.00000
 opt step  =   1.80306  (harmonic =   3.53258) maximal distance =0.00417113
 next E    =  -512.677504   (d E  =  -0.00396)


--------------------------------------------------------------------------------------------------------


  
 reached required accuracy - stopping structural energy minimisation
     LOOP+:  cpu time  261.2880: real time  262.0187
    4ORBIT:  cpu time    0.0000: real time    0.0000

 total amount of memory used by VASP MPI-rank0   171993. kBytes
=======================================================================

   base      :      30000. kBytes
   nonlr-proj:      37799. kBytes
   fftplans  :      20287. kBytes
   grid      :      28516. kBytes
   one-center:        311. kBytes
   wavefun   :      55080. kBytes
 
  
  
 General timing and accounting informations for this job:
 ========================================================
  
                  Total CPU time used (sec):     1137.852
                            User time (sec):     1135.729
                          System time (sec):        2.123
                         Elapsed time (sec):     1141.642
  
                   Maximum memory used (kb):      562736.
                   Average memory used (kb):           0.
  
                          Minor page faults:       475426
                          Major page faults:            0
                 Voluntary context switches:         4871
