 vasp.5.4.4.18Apr17-6-g9f103f2a35 (build Nov 30 2020 22:55:02) complex          
  
 executed on             LinuxIFC date 2023.08.05  22:43:46
 running on   40 total cores
 distrk:  each k-point on   40 cores,    1 groups
 distr:  one band on NCORES_PER_BAND=   1 cores,   40 groups


--------------------------------------------------------------------------------------------------------


 INCAR:
 POTCAR:    PAW_PBE Pt 04Feb2005                  
 POTCAR:    PAW_PBE Cu 22Jun2005                  
 POTCAR:    PAW_PBE Ni 02Aug2007                  
 POTCAR:    PAW_PBE Fe 06Sep2000                  
 POTCAR:    PAW_PBE Co 02Aug2007                  
 POTCAR:    PAW_PBE H 15Jun2001                   

 ----------------------------------------------------------------------------- 
|                                                                             |
|           W    W    AA    RRRRR   N    N  II  N    N   GGGG   !!!           |
|           W    W   A  A   R    R  NN   N  II  NN   N  G    G  !!!           |
|           W    W  A    A  R    R  N N  N  II  N N  N  G       !!!           |
|           W WW W  AAAAAA  RRRRR   N  N N  II  N  N N  G  GGG   !            |
|           WW  WW  A    A  R   R   N   NN  II  N   NN  G    G                |
|           W    W  A    A  R    R  N    N  II  N    N   GGGG   !!!           |
|                                                                             |
|      For optimal performance we recommend to set                            |
|        NCORE= 4 - approx SQRT( number of cores)                             |
|      NCORE specifies how many cores store one orbital (NPAR=cpu/NCORE).     |
|      This setting can  greatly improve the performance of VASP for DFT.     |
|      The default,   NCORE=1            might be grossly inefficient         |
|      on modern multi-core architectures or massively parallel machines.     |
|      Do your own testing !!!!                                               |
|      Unfortunately you need to use the default for GW and RPA calculations. |
|      (for HF NCORE is supported but not extensively tested yet)             |
|                                                                             |
 ----------------------------------------------------------------------------- 

 POTCAR:    PAW_PBE Pt 04Feb2005                  
   VRHFIN =Pt: s1d9                                                             
   LEXCH  = PE                                                                  
   EATOM  =   729.1176 eV,   53.5886 Ry                                         
                                                                                
   TITEL  = PAW_PBE Pt 04Feb2005                                                
   LULTRA =        F    use ultrasoft PP ?                                      
   IUNSCR =        1    unscreen: 0-lin 1-nonlin 2-no                           
   RPACOR =    2.330    partial core radius                                     
   POMASS =  195.080; ZVAL   =   10.000    mass and valenz                      
   RCORE  =    2.600    outmost cutoff radius                                   
   RWIGS  =    2.750; RWIGS  =    1.455    wigner-seitz radius (au A)           
   ENMAX  =  230.283; ENMIN  =  172.712 eV                                      
   ICORE  =        3    local potential                                         
   LCOR   =        T    correct aug charges                                     
   LPAW   =        T    paw PP                                                  
   EAUG   =  358.966                                                            
   DEXC   =    0.000                                                            
   RMAX   =    2.658    core radius for proj-oper                               
   RAUG   =    1.300    factor for augmentation sphere                          
   RDEP   =    2.761    radius for radial grids                                 
   RDEPT  =    2.203    core radius for aug-charge                              
                                                                                
   Atomic configuration                                                         
   16 entries                                                                   
     n  l   j            E        occ.                                          
     1  0  0.50    -78401.1885   2.0000                                         
     2  0  0.50    -13770.7750   2.0000                                         
     2  1  1.50    -11931.0468   6.0000                                         
     3  0  0.50     -3234.7234   2.0000                                         
     3  1  1.50     -2699.2216   6.0000                                         
     3  2  2.50     -2119.5714  10.0000                                         
     4  0  0.50      -695.1528   2.0000                                         
     4  1  1.50      -519.6034   6.0000                                         
     4  2  2.50      -306.6786  10.0000                                         
     4  3  3.50       -70.1041  14.0000                                         
     5  0  0.50      -101.7747   2.0000                                         
     5  1  1.50       -55.9873   6.0000                                         
     5  2  2.50        -6.1423   9.0000                                         
     6  0  0.50        -5.6573   1.0000                                         
     6  1  1.50        -6.8029   0.0000                                         
     5  3  2.50        -1.3606   0.0000                                         
   Description                                                                  
     l       E           TYP  RCUT    TYP  RCUT                                 
     2     -6.1423404     23  2.500                                             
     2     -7.5029230     23  2.500                                             
     0     -5.6573207     23  2.500                                             
     0      0.7416693     23  2.500                                             
     1     -2.7211652     23  2.600                                             
     1     20.4087390     23  2.600                                             
     3     -1.3605826     23  2.500                                             
  local pseudopotential read in
  partial core-charges read in
  partial kinetic energy density read in
  atomic valenz-charges read in
  non local Contribution for L=           2  read in
    real space projection operators read in
  non local Contribution for L=           2  read in
    real space projection operators read in
  non local Contribution for L=           0  read in
    real space projection operators read in
  non local Contribution for L=           0  read in
    real space projection operators read in
  non local Contribution for L=           1  read in
    real space projection operators read in
  non local Contribution for L=           1  read in
    real space projection operators read in
    PAW grid and wavefunctions read in
 
   number of l-projection  operators is LMAX  =           6
   number of lm-projection operators is LMMAX =          18
 
 POTCAR:    PAW_PBE Cu 22Jun2005                  
   VRHFIN =Cu: d10 p1                                                           
   LEXCH  = PE                                                                  
   EATOM  =  1390.9808 eV,  102.2342 Ry                                         
                                                                                
   TITEL  = PAW_PBE Cu 22Jun2005                                                
   LULTRA =        F    use ultrasoft PP ?                                      
   IUNSCR =        1    unscreen: 0-lin 1-nonlin 2-no                           
   RPACOR =    2.000    partial core radius                                     
   POMASS =   63.546; ZVAL   =   11.000    mass and valenz                      
   RCORE  =    2.300    outmost cutoff radius                                   
   RWIGS  =    2.200; RWIGS  =    1.164    wigner-seitz radius (au A)           
   ENMAX  =  295.446; ENMIN  =  221.585 eV                                      
   ICORE  =        3    local potential                                         
   LCOR   =        T    correct aug charges                                     
   LPAW   =        T    paw PP                                                  
   EAUG   =  586.980                                                            
   DEXC   =    0.000                                                            
   RMAX   =    2.344    core radius for proj-oper                               
   RAUG   =    1.300    factor for augmentation sphere                          
   RDEP   =    2.302    radius for radial grids                                 
   RDEPT  =    1.771    core radius for aug-charge                              
                                                                                
   Atomic configuration                                                         
    9 entries                                                                   
     n  l   j            E        occ.                                          
     1  0  0.50     -8850.2468   2.0000                                         
     2  0  0.50     -1062.3498   2.0000                                         
     2  1  1.50      -916.8226   6.0000                                         
     3  0  0.50      -114.6929   2.0000                                         
     3  1  1.50       -72.1325   6.0000                                         
     3  2  2.50        -5.0394  10.0000                                         
     4  0  0.50        -4.6097   1.0000                                         
     4  1  0.50        -4.0817   0.0000                                         
     4  3  2.50        -1.3606   0.0000                                         
   Description                                                                  
     l       E           TYP  RCUT    TYP  RCUT                                 
     2     -5.0393973     23  2.200                                             
     2     10.8846608     23  2.200                                             
     0     -4.6097109     23  2.200                                             
     0      8.2520465     23  2.200                                             
     1     -2.7211652     23  2.200                                             
     1     21.7055443     23  2.200                                             
     3      2.7211652     23  2.300                                             
  local pseudopotential read in
  partial core-charges read in
  partial kinetic energy density read in
  atomic valenz-charges read in
  non local Contribution for L=           2  read in
    real space projection operators read in
  non local Contribution for L=           2  read in
    real space projection operators read in
  non local Contribution for L=           0  read in
    real space projection operators read in
  non local Contribution for L=           0  read in
    real space projection operators read in
  non local Contribution for L=           1  read in
    real space projection operators read in
  non local Contribution for L=           1  read in
    real space projection operators read in
    PAW grid and wavefunctions read in
 
   number of l-projection  operators is LMAX  =           6
   number of lm-projection operators is LMMAX =          18
 
 POTCAR:    PAW_PBE Ni 02Aug2007                  
   VRHFIN =Ni:                                                                  
   LEXCH  = PE                                                                  
   EATOM  =  1077.6739 eV,   79.2068 Ry                                         
                                                                                
   TITEL  = PAW_PBE Ni 02Aug2007                                                
   LULTRA =        F    use ultrasoft PP ?                                      
   IUNSCR =        1    unscreen: 0-lin 1-nonlin 2-no                           
   RPACOR =    2.000    partial core radius                                     
   POMASS =   58.690; ZVAL   =   10.000    mass and valenz                      
   RCORE  =    2.300    outmost cutoff radius                                   
   RWIGS  =    2.430; RWIGS  =    1.286    wigner-seitz radius (au A)           
   ENMAX  =  269.532; ENMIN  =  202.149 eV                                      
   RCLOC  =    1.201    cutoff for local pot                                    
   LCOR   =        T    correct aug charges                                     
   LPAW   =        T    paw PP                                                  
   EAUG   =  544.565                                                            
   DEXC   =    0.000                                                            
   RMAX   =    2.357    core radius for proj-oper                               
   RAUG   =    1.300    factor for augmentation sphere                          
   RDEP   =    2.390    radius for radial grids                                 
   RDEPT  =    1.838    core radius for aug-charge                              
                                                                                
   Atomic configuration                                                         
    9 entries                                                                   
     n  l   j            E        occ.                                          
     1  0  0.50     -8206.4253   2.0000                                         
     2  0  0.50      -976.1748   2.0000                                         
     2  1  1.50      -839.0571   6.0000                                         
     3  0  0.50      -105.9991   2.0000                                         
     3  1  1.50       -66.4603   6.0000                                         
     3  2  2.50        -4.6458   9.0000                                         
     4  0  0.50        -4.4926   1.0000                                         
     4  1  1.50        -4.0817   0.0000                                         
     4  3  2.50        -1.3606   0.0000                                         
   Description                                                                  
     l       E           TYP  RCUT    TYP  RCUT                                 
     2     -4.6457903     23  2.300                                             
     2     -6.0063729     23  2.300                                             
     0     -4.4925590     23  2.300                                             
     0      5.0102601     23  2.300                                             
     1     -2.7211652     23  2.300                                             
     1     16.5183231     23  2.300                                             
  local pseudopotential read in
  partial core-charges read in
  partial kinetic energy density read in
  atomic valenz-charges read in
  non local Contribution for L=           2  read in
    real space projection operators read in
  non local Contribution for L=           2  read in
    real space projection operators read in
  non local Contribution for L=           0  read in
    real space projection operators read in
  non local Contribution for L=           0  read in
    real space projection operators read in
  non local Contribution for L=           1  read in
    real space projection operators read in
  non local Contribution for L=           1  read in
    real space projection operators read in
    PAW grid and wavefunctions read in
 
   number of l-projection  operators is LMAX  =           6
   number of lm-projection operators is LMMAX =          18
 
 POTCAR:    PAW_PBE Fe 06Sep2000                  
   VRHFIN =Fe:  d7 s1                                                           
   LEXCH  = PE                                                                  
   EATOM  =   594.3153 eV,   43.6809 Ry                                         
                                                                                
   TITEL  = PAW_PBE Fe 06Sep2000                                                
   LULTRA =        F    use ultrasoft PP ?                                      
   IUNSCR =        1    unscreen: 0-lin 1-nonlin 2-no                           
   RPACOR =    2.000    partial core radius                                     
   POMASS =   55.847; ZVAL   =    8.000    mass and valenz                      
   RCORE  =    2.300    outmost cutoff radius                                   
   RWIGS  =    2.460; RWIGS  =    1.302    wigner-seitz radius (au A)           
   ENMAX  =  267.882; ENMIN  =  200.911 eV                                      
   RCLOC  =    1.701    cutoff for local pot                                    
   LCOR   =        T    correct aug charges                                     
   LPAW   =        T    paw PP                                                  
   EAUG   =  511.368                                                            
   DEXC   =    0.000                                                            
   RMAX   =    2.356    core radius for proj-oper                               
   RAUG   =    1.300    factor for augmentation sphere                          
   RDEP   =    2.442    radius for radial grids                                 
   RDEPT  =    1.890    core radius for aug-charge                              
                                                                                
   Atomic configuration                                                         
    9 entries                                                                   
     n  l   j            E        occ.                                          
     1  0  0.50     -6993.8440   2.0000                                         
     2  0  0.50      -814.6047   2.0000                                         
     2  1  1.50      -693.3689   6.0000                                         
     3  0  0.50       -89.4732   2.0000                                         
     3  1  1.50       -55.6373   6.0000                                         
     3  2  2.50        -3.8151   7.0000                                         
     4  0  0.50        -4.2551   1.0000                                         
     4  1  1.50        -3.4015   0.0000                                         
     4  3  2.50        -1.3606   0.0000                                         
   Description                                                                  
     l       E           TYP  RCUT    TYP  RCUT                                 
     2     -3.8151135     23  2.300                                             
     2     -5.1756961     23  2.300                                             
     0     -4.2550963     23  2.300                                             
     0      7.2035603     23  2.300                                             
     1     -2.7211652     23  2.300                                             
     1     18.4316424     23  2.300                                             
  local pseudopotential read in
  partial core-charges read in
  partial kinetic energy density read in
  atomic valenz-charges read in
  non local Contribution for L=           2  read in
    real space projection operators read in
  non local Contribution for L=           2  read in
    real space projection operators read in
  non local Contribution for L=           0  read in
    real space projection operators read in
  non local Contribution for L=           0  read in
    real space projection operators read in
  non local Contribution for L=           1  read in
    real space projection operators read in
  non local Contribution for L=           1  read in
    real space projection operators read in
    PAW grid and wavefunctions read in
 
   number of l-projection  operators is LMAX  =           6
   number of lm-projection operators is LMMAX =          18
 
 POTCAR:    PAW_PBE Co 02Aug2007                  
   VRHFIN =Co: d8 s1                                                            
   LEXCH  = PE                                                                  
   EATOM  =   813.3670 eV,   59.7808 Ry                                         
                                                                                
   TITEL  = PAW_PBE Co 02Aug2007                                                
   LULTRA =        F    use ultrasoft PP ?                                      
   IUNSCR =        1    unscreen: 0-lin 1-nonlin 2-no                           
   RPACOR =    2.000    partial core radius                                     
   POMASS =   58.933; ZVAL   =    9.000    mass and valenz                      
   RCORE  =    2.300    outmost cutoff radius                                   
   RWIGS  =    2.460; RWIGS  =    1.302    wigner-seitz radius (au A)           
   ENMAX  =  267.968; ENMIN  =  200.976 eV                                      
   RCLOC  =    1.203    cutoff for local pot                                    
   LCOR   =        T    correct aug charges                                     
   LPAW   =        T    paw PP                                                  
   EAUG   =  477.818                                                            
   DEXC   =    0.000                                                            
   RMAX   =    2.360    core radius for proj-oper                               
   RAUG   =    1.300    factor for augmentation sphere                          
   RDEP   =    2.393    radius for radial grids                                 
   RDEPT  =    1.864    core radius for aug-charge                              
                                                                                
   Atomic configuration                                                         
    9 entries                                                                   
     n  l   j            E        occ.                                          
     1  0  0.50     -7587.6674   2.0000                                         
     2  0  0.50      -893.6084   2.0000                                         
     2  1  1.50      -764.5805   6.0000                                         
     3  0  0.50       -97.5973   2.0000                                         
     3  1  1.50       -60.9648   6.0000                                         
     3  2  2.50        -4.2382   8.0000                                         
     4  0  0.50        -4.3746   1.0000                                         
     4  1  1.50        -4.0817   0.0000                                         
     4  3  2.50        -1.3606   0.0000                                         
   Description                                                                  
     l       E           TYP  RCUT    TYP  RCUT                                 
     2     -4.2382362     23  2.300                                             
     2     -5.5988188     23  2.300                                             
     0     -4.3745797     23  2.300                                             
     0      5.7660125     23  2.300                                             
     1     -2.7211652     23  2.300                                             
     1     16.9860234     23  2.300                                             
  local pseudopotential read in
  partial core-charges read in
  partial kinetic energy density read in
  atomic valenz-charges read in
  non local Contribution for L=           2  read in
    real space projection operators read in
  non local Contribution for L=           2  read in
    real space projection operators read in
  non local Contribution for L=           0  read in
    real space projection operators read in
  non local Contribution for L=           0  read in
    real space projection operators read in
  non local Contribution for L=           1  read in
    real space projection operators read in
  non local Contribution for L=           1  read in
    real space projection operators read in
    PAW grid and wavefunctions read in
 
   number of l-projection  operators is LMAX  =           6
   number of lm-projection operators is LMMAX =          18
 
 POTCAR:    PAW_PBE H 15Jun2001                   
   VRHFIN =H: ultrasoft test                                                    
   LEXCH  = PE                                                                  
   EATOM  =    12.4884 eV,    0.9179 Ry                                         
                                                                                
   TITEL  = PAW_PBE H 15Jun2001                                                 
   LULTRA =        F    use ultrasoft PP ?                                      
   IUNSCR =        0    unscreen: 0-lin 1-nonlin 2-no                           
   RPACOR =    0.000    partial core radius                                     
   POMASS =    1.000; ZVAL   =    1.000    mass and valenz                      
   RCORE  =    1.100    outmost cutoff radius                                   
   RWIGS  =    0.700; RWIGS  =    0.370    wigner-seitz radius (au A)           
   ENMAX  =  250.000; ENMIN  =  200.000 eV                                      
   RCLOC  =    0.701    cutoff for local pot                                    
   LCOR   =        T    correct aug charges                                     
   LPAW   =        T    paw PP                                                  
   EAUG   =  400.000                                                            
   RMAX   =    1.123    core radius for proj-oper                               
   RAUG   =    1.200    factor for augmentation sphere                          
   RDEP   =    1.112    radius for radial grids                                 
   RDEPT  =    0.926    core radius for aug-charge                              
                                                                                
   Atomic configuration                                                         
    2 entries                                                                   
     n  l   j            E        occ.                                          
     1  0  0.50        -6.4927   1.0000                                         
     2  1  0.50        -3.4015   0.0000                                         
   Description                                                                  
     l       E           TYP  RCUT    TYP  RCUT                                 
     0     -6.4927494     23  1.100                                             
     0      6.8029130     23  1.100                                             
     1     -4.0817478     23  1.100                                             
  local pseudopotential read in
  atomic valenz-charges read in
  non local Contribution for L=           0  read in
    real space projection operators read in
  non local Contribution for L=           0  read in
    real space projection operators read in
  non local Contribution for L=           1  read in
    real space projection operators read in
    PAW grid and wavefunctions read in
 
   number of l-projection  operators is LMAX  =           3
   number of lm-projection operators is LMMAX =           5
 
 Optimization of the real space projectors (new method)

 maximal supplied QI-value         = 14.36
 optimisation between [QCUT,QGAM] = [ 11.92, 23.98] = [ 39.79,161.09] Ry 
 Optimized for a Real-space Cutoff    1.49 Angstroem

   l    n(q)    QCUT    max X(q) W(low)/X(q) W(high)/X(q)  e(spline) 
   2     10    11.920    66.195    0.79E-04    0.18E-03    0.24E-06
   2     10    11.920    64.643    0.81E-04    0.19E-03    0.24E-06
   0     11    11.920    95.520    0.28E-04    0.54E-04    0.18E-06
   0     11    11.920    63.403    0.27E-04    0.52E-04    0.17E-06
   1     10    11.920    19.961    0.18E-04    0.11E-03    0.23E-06
   1     10    11.920    13.289    0.25E-04    0.87E-04    0.19E-06
 Optimization of the real space projectors (new method)

 maximal supplied QI-value         = 16.25
 optimisation between [QCUT,QGAM] = [ 11.86, 23.89] = [ 39.41,159.82] Ry 
 Optimized for a Real-space Cutoff    1.49 Angstroem

   l    n(q)    QCUT    max X(q) W(low)/X(q) W(high)/X(q)  e(spline) 
   2     10    11.864     4.610    0.10E-03    0.20E-03    0.29E-06
   2     10    11.864     8.522    0.17E-03    0.33E-03    0.50E-06
   0     11    11.864    51.609    0.52E-04    0.55E-04    0.33E-06
   0     11    11.864    27.747    0.46E-04    0.52E-04    0.31E-06
   1     10    11.864    20.408    0.54E-04    0.25E-04    0.21E-06
   1     10    11.864    13.425    0.48E-04    0.22E-04    0.18E-06
 Optimization of the real space projectors (new method)

 maximal supplied QI-value         = 16.25
 optimisation between [QCUT,QGAM] = [ 11.86, 23.89] = [ 39.41,159.82] Ry 
 Optimized for a Real-space Cutoff    1.33 Angstroem

   l    n(q)    QCUT    max X(q) W(low)/X(q) W(high)/X(q)  e(spline) 
   2      9    11.864    60.317    0.21E-03    0.51E-03    0.25E-06
   2      9    11.864    55.921    0.21E-03    0.51E-03    0.26E-06
   0      9    11.864    51.690    0.22E-03    0.30E-04    0.17E-06
   0      9    11.864    30.015    0.20E-03    0.28E-04    0.15E-06
   1      9    11.864    18.849    0.76E-04    0.33E-03    0.17E-06
   1      9    11.864    14.624    0.60E-04    0.28E-03    0.15E-06
 Optimization of the real space projectors (new method)

 maximal supplied QI-value         = 16.25
 optimisation between [QCUT,QGAM] = [ 11.86, 23.89] = [ 39.41,159.82] Ry 
 Optimized for a Real-space Cutoff    1.49 Angstroem

   l    n(q)    QCUT    max X(q) W(low)/X(q) W(high)/X(q)  e(spline) 
   2     10    11.864    80.901    0.13E-03    0.23E-03    0.37E-06
   2     10    11.864    75.754    0.13E-03    0.23E-03    0.38E-06
   0     11    11.864    58.752    0.44E-04    0.11E-04    0.20E-06
   0     11    11.864    30.679    0.36E-04    0.10E-04    0.18E-06
   1     10    11.864    17.977    0.31E-04    0.45E-04    0.10E-06
   1     10    11.864    13.559    0.25E-04    0.37E-04    0.89E-07
 Optimization of the real space projectors (new method)

 maximal supplied QI-value         = 16.25
 optimisation between [QCUT,QGAM] = [ 11.86, 23.89] = [ 39.41,159.82] Ry 
 Optimized for a Real-space Cutoff    1.33 Angstroem

   l    n(q)    QCUT    max X(q) W(low)/X(q) W(high)/X(q)  e(spline) 
   2      9    11.864    65.824    0.22E-03    0.53E-03    0.26E-06
   2      9    11.864    61.429    0.22E-03    0.53E-03    0.26E-06
   0      9    11.864    56.174    0.21E-03    0.32E-04    0.15E-06
   0      9    11.864    31.263    0.19E-03    0.30E-04    0.14E-06
   1      9    11.864    19.828    0.63E-04    0.30E-03    0.16E-06
   1      9    11.864    15.139    0.49E-04    0.25E-03    0.13E-06
 Optimization of the real space projectors (new method)

 maximal supplied QI-value         = 34.20
 optimisation between [QCUT,QGAM] = [ 11.97, 23.94] = [ 40.13,160.53] Ry 
 Optimized for a Real-space Cutoff    1.18 Angstroem

   l    n(q)    QCUT    max X(q) W(low)/X(q) W(high)/X(q)  e(spline) 
   0      8    11.971    19.460    0.15E-03    0.31E-03    0.25E-06
   0      8    11.971    12.209    0.13E-03    0.29E-03    0.25E-06
   1      8    11.971     4.655    0.22E-03    0.24E-03    0.21E-06
  PAW_PBE Pt 04Feb2005                  :
 energy of atom  1       EATOM= -729.1176
 kinetic energy error for atom=    0.0021 (will be added to EATOM!!)
  PAW_PBE Cu 22Jun2005                  :
 energy of atom  2       EATOM=-1390.9808
 kinetic energy error for atom=    0.0036 (will be added to EATOM!!)
  PAW_PBE Ni 02Aug2007                  :
 energy of atom  3       EATOM=-1077.6739
 kinetic energy error for atom=    0.0027 (will be added to EATOM!!)
  PAW_PBE Fe 06Sep2000                  :
 energy of atom  4       EATOM= -594.3153
 kinetic energy error for atom=    0.0024 (will be added to EATOM!!)
  PAW_PBE Co 02Aug2007                  :
 energy of atom  5       EATOM= -813.3670
 kinetic energy error for atom=    0.0026 (will be added to EATOM!!)
  PAW_PBE H 15Jun2001                   :
 energy of atom  6       EATOM=  -12.4884
 kinetic energy error for atom=    0.0008 (will be added to EATOM!!)
 
 
 POSCAR: 10.56                                   
  positions in cartesian coordinates
  No initial velocities read in
 exchange correlation table for  LEXCH =        8
   RHO(1)=    0.500       N(1)  =     2000
   RHO(2)=  100.500       N(2)  =     4000
 


--------------------------------------------------------------------------------------------------------


 ion  position               nearest neighbor table
   1  0.789  0.876  0.317-  49 2.57  59 2.58  19 2.62  61 2.65  60 2.66  33 2.67  29 2.67  28 2.71
                             2 2.72   4 2.82  12 2.84  11 2.90
   2  0.044  0.880  0.316-  79 2.55  77 2.57  60 2.61  30 2.64  22 2.65  28 2.66  52 2.68   1 2.72
                            33 2.73   6 2.76   4 2.82  16 2.87
   3  0.288  0.375  0.321-  39 2.60  64 2.61  33 2.61  68 2.65  31 2.66  19 2.67  43 2.68  30 2.72
                             5 2.76  18 2.78  25 2.81  13 2.91
   4  0.879  0.957  0.424-  16 2.63  12 2.65   6 2.65  17 2.65  11 2.65   9 2.65  60 2.70   2 2.82
                             1 2.82
   5  0.127  0.457  0.427-  13 2.62   7 2.63  10 2.63  12 2.63  16 2.65  25 2.65   3 2.76  39 2.79
                            33 2.79
   6  0.128  0.958  0.422-   8 2.61  10 2.63  14 2.64   4 2.65   9 2.65  16 2.65   2 2.76  52 2.82
                            22 2.88
   7  0.878  0.457  0.423-   9 2.63   5 2.63  15 2.63  10 2.63  12 2.63  27 2.66  39 2.70  29 2.73
                            75 2.77
   8  0.376  0.956  0.417-   6 2.61  14 2.62  43 2.62  27 2.63  10 2.65  52 2.65  61 2.66  11 2.67
                            13 2.69
   9  0.877  0.209  0.422-  17 2.62   7 2.63  15 2.64  10 2.64   6 2.65   4 2.65  60 2.65  75 2.72
                            22 2.83
  10  0.127  0.208  0.423-   6 2.63  13 2.63   7 2.63   5 2.63   9 2.64   8 2.65  43 2.73  39 2.73
                            22 2.82
  11  0.628  0.957  0.430-  81 1.76  12 2.64  27 2.64   4 2.65  17 2.67  13 2.67   8 2.67   1 2.90
                            19 2.93  61 2.94
  12  0.877  0.707  0.425-   5 2.63   7 2.63  16 2.64  11 2.64   4 2.65  27 2.65  33 2.75  29 2.82
                             1 2.84
  13  0.375  0.209  0.434-  81 1.75   5 2.62  10 2.63  25 2.66  11 2.67   8 2.69  17 2.69   3 2.91
                            43 2.97  19 3.00
  14  0.378  0.708  0.427-  27 2.62   8 2.62  25 2.63   6 2.64  15 2.64  16 2.65  44 2.76  30 2.79
                            52 2.88
  15  0.628  0.459  0.424-  27 2.62   7 2.63  17 2.64   9 2.64  14 2.64  25 2.65  44 2.76  18 2.78
                            75 2.80
  16  0.127  0.708  0.425-   4 2.63  25 2.63  12 2.64   5 2.65  14 2.65   6 2.65  33 2.77  30 2.78
                             2 2.87
  17  0.629  0.209  0.424-   9 2.62  15 2.64   4 2.65  25 2.66  11 2.67  60 2.68  13 2.69  18 2.76
                            19 2.88
  18  0.554  0.370  0.318-  67 2.53  75 2.55  60 2.57  68 2.60  44 2.68  26 2.68  19 2.73  30 2.75
                            17 2.76   3 2.78  15 2.78  25 2.91
  19  0.538  0.120  0.316-  59 2.55  80 2.55  68 2.57  43 2.59  61 2.61   1 2.62   3 2.67  18 2.73
                            60 2.74  17 2.88  11 2.93  13 3.00
  20  0.547  0.122  0.038-  57 2.54  37 2.59  48 2.60  62 2.60  47 2.60  34 2.65  45 2.68  63 2.71
                            56 2.75
  21  0.124  0.462  0.127-  36 2.55  47 2.57  40 2.58  58 2.61  42 2.61  64 2.63  31 2.66  69 2.66
                            50 2.67  74 2.69  70 2.69  57 2.69
  22  0.041  0.134  0.313-  65 2.47  75 2.54  55 2.54  77 2.57  39 2.59  43 2.59  60 2.65   2 2.65
                            52 2.74  10 2.82   9 2.83   6 2.88
  23  0.032  0.135  0.034-  70 2.57  62 2.59  40 2.59  41 2.60  76 2.63  45 2.70  24 2.70  35 2.71
                            53 2.86
  24  0.127  0.955  0.132-  79 2.52  55 2.55  53 2.61  35 2.62  77 2.62  58 2.62  73 2.64  70 2.65
                            38 2.67  66 2.68  23 2.70  41 2.74
  25  0.376  0.460  0.427-  16 2.63  14 2.63  15 2.65   5 2.65  17 2.66  13 2.66   3 2.81  30 2.84
                            18 2.91
  26  0.458  0.546  0.220-  73 2.50  74 2.51  51 2.53  79 2.60  64 2.61  30 2.65  68 2.66  18 2.68
                            32 2.69  44 2.70  78 2.71  67 2.74
  27  0.626  0.708  0.424-  14 2.62  15 2.62   8 2.63  11 2.64  12 2.65   7 2.66  44 2.70  29 2.75
                            61 2.78
  28  0.964  0.793  0.218-  66 2.54  50 2.56  58 2.58  77 2.63  42 2.64  64 2.65   2 2.66  79 2.68
                            59 2.70   1 2.71  49 2.75  33 2.75
  29  0.790  0.622  0.319-  42 2.59  44 2.60  32 2.61  39 2.61  75 2.64  61 2.65  33 2.66  49 2.66
                             1 2.67   7 2.73  27 2.75  12 2.82
  30  0.294  0.630  0.319-  79 2.57  64 2.60  44 2.61  52 2.62   2 2.64  26 2.65  33 2.70   3 2.72
                            18 2.75  16 2.78  14 2.79  25 2.84
  31  0.211  0.284  0.223-  57 2.55  70 2.55  65 2.59  43 2.61  55 2.61  80 2.64  21 2.66  39 2.66
                             3 2.66  68 2.67  42 2.71  64 2.72
  32  0.717  0.537  0.221-  69 2.51  54 2.56  51 2.57  65 2.60  29 2.61  42 2.61  67 2.64  75 2.64
                            49 2.68  26 2.69  44 2.74  78 2.78
  33  0.042  0.623  0.321-  42 2.57  39 2.59   3 2.61  64 2.63  29 2.66   1 2.67  30 2.70   2 2.73
                            12 2.75  28 2.75  16 2.77   5 2.79
  34  0.797  0.870  0.037-  50 2.48  66 2.50  36 2.54  48 2.61  35 2.62  63 2.64  71 2.65  20 2.65
                            62 2.72
  35  0.044  0.872  0.035-  58 2.56  36 2.57  66 2.61  24 2.62  34 2.62  72 2.70  23 2.71  62 2.72
                            53 2.74
  36  0.039  0.631  0.035-  58 2.54  34 2.54  21 2.55  35 2.57  50 2.59  40 2.68  71 2.72  72 2.76
                            47 2.78
  37  0.626  0.214  0.133-  68 2.52  59 2.52  67 2.52  41 2.56  51 2.57  56 2.58  66 2.59  20 2.59
                            74 2.60  62 2.60  57 2.64  48 2.76
  38  0.376  0.961  0.131-  80 2.47  53 2.51  55 2.53  78 2.53  63 2.53  45 2.55  54 2.58  48 2.61
                            57 2.62  24 2.67  70 2.69  73 2.69
  39  0.041  0.378  0.321-  33 2.59  22 2.59   3 2.60  42 2.60  29 2.61  75 2.63  31 2.66  65 2.66
                             7 2.70  43 2.70  10 2.73   5 2.79
  40  0.040  0.377  0.033-  69 2.55  21 2.58  23 2.59  76 2.61  70 2.61  45 2.66  71 2.67  36 2.68
                            47 2.81
  41  0.868  0.215  0.131-  67 2.47  65 2.53  76 2.53  77 2.53  37 2.56  51 2.56  62 2.57  69 2.59
                            23 2.60  70 2.61  66 2.63  24 2.74
  42  0.960  0.545  0.225-  33 2.57  29 2.59  39 2.60  50 2.61  32 2.61  21 2.61  28 2.64  64 2.65
                            69 2.68  65 2.69  49 2.70  31 2.71
  43  0.293  0.119  0.319-  52 2.54  55 2.57  22 2.59  19 2.59  31 2.61  61 2.61   8 2.62  80 2.64
                             3 2.68  39 2.70  10 2.73  13 2.97
  44  0.541  0.630  0.321-  61 2.56  52 2.56  29 2.60  30 2.61  78 2.64  18 2.68  27 2.70  26 2.70
                            75 2.73  32 2.74  15 2.76  14 2.76
  45  0.292  0.126  0.037-  38 2.55  57 2.57  70 2.59  40 2.66  53 2.66  20 2.68  23 2.70  47 2.70
                            63 2.74
  46  0.545  0.626  0.042-  73 2.43  51 2.44  54 2.47  71 2.53  53 2.54  76 2.54  63 2.55  72 2.56
                            56 2.56
  47  0.307  0.374  0.039-  74 2.45  57 2.52  56 2.54  21 2.57  20 2.60  72 2.62  45 2.70  36 2.78
                            40 2.81
  48  0.628  0.952  0.133-  49 2.43  80 2.48  59 2.50  63 2.52  50 2.54  54 2.54  20 2.60  34 2.61
                            66 2.61  38 2.61  57 2.66  37 2.76
  49  0.701  0.798  0.223-  48 2.43  54 2.51  80 2.51  61 2.55  78 2.56   1 2.57  50 2.57  59 2.60
                            29 2.66  32 2.68  42 2.70  28 2.75
  50  0.866  0.710  0.128-  71 2.42  34 2.48  48 2.54  28 2.56  49 2.57  54 2.58  36 2.59  42 2.61
                            69 2.64  21 2.67  66 2.71  58 2.84
  51  0.625  0.458  0.128-  56 2.42  76 2.43  46 2.44  26 2.53  41 2.56  37 2.57  32 2.57  74 2.58
                            73 2.62  69 2.63  67 2.64  54 2.70
  52  0.301  0.875  0.316-  78 2.46  55 2.50  79 2.50  61 2.51  43 2.54  44 2.56  30 2.62   8 2.65
                             2 2.68  22 2.74   6 2.82  14 2.88
  53  0.306  0.867  0.039-  73 2.44  38 2.51  46 2.54  63 2.56  72 2.59  24 2.61  45 2.66  35 2.74
                            23 2.86
  54  0.619  0.716  0.132-  63 2.41  71 2.47  46 2.47  49 2.51  78 2.53  48 2.54  32 2.56  38 2.58
                            50 2.58  73 2.61  51 2.70  69 2.72
  55  0.216  0.035  0.224-  52 2.50  78 2.50  79 2.52  38 2.53  22 2.54  24 2.55  43 2.57  80 2.59
                            31 2.61  70 2.62  65 2.68  77 2.79
  56  0.541  0.385  0.039-  51 2.42  74 2.47  72 2.50  47 2.54  46 2.56  37 2.58  76 2.61  62 2.65
                            20 2.75
  57  0.379  0.208  0.130-  47 2.52  20 2.54  31 2.55  68 2.55  80 2.56  45 2.57  38 2.62  37 2.64
                            74 2.66  48 2.66  21 2.69  70 2.75
  58  0.140  0.700  0.126-  72 2.40  74 2.53  36 2.54  73 2.54  35 2.56  28 2.58  21 2.61  64 2.62
                            24 2.62  79 2.68  50 2.84  66 2.84
  59  0.703  0.043  0.222-  48 2.50  37 2.52  19 2.55  66 2.57  77 2.58   1 2.58  49 2.60  80 2.61
                            68 2.61  67 2.65  28 2.70  60 2.73
  60  0.795  0.125  0.323-  18 2.57  77 2.58  75 2.59   2 2.61  67 2.63  22 2.65   9 2.65   1 2.66
                            17 2.68   4 2.70  59 2.73  19 2.74
  61  0.540  0.872  0.317-  78 2.46  52 2.51  49 2.55  44 2.56  80 2.57  43 2.61  19 2.61  29 2.65
                             1 2.65   8 2.66  27 2.78  11 2.94
  62  0.789  0.132  0.036-  66 2.52  41 2.57  23 2.59  20 2.60  37 2.60  56 2.65  76 2.70  35 2.72
                            34 2.72
  63  0.550  0.865  0.041-  54 2.41  71 2.50  48 2.52  38 2.53  46 2.55  53 2.56  34 2.64  20 2.71
                            45 2.74
  64  0.213  0.540  0.225-  74 2.59  30 2.60  68 2.60   3 2.61  26 2.61  58 2.62  21 2.63  33 2.63
                            42 2.65  28 2.65  79 2.71  31 2.72
  65  0.963  0.290  0.222-  70 2.46  22 2.47  41 2.53  69 2.59  31 2.59  32 2.60  67 2.61  75 2.62
                            77 2.63  39 2.66  55 2.68  42 2.69
  66  0.867  0.966  0.127-  34 2.50  62 2.52  28 2.54  59 2.57  77 2.58  37 2.59  35 2.61  48 2.61
                            41 2.63  24 2.68  50 2.71  58 2.84
  67  0.718  0.287  0.225-  77 2.44  41 2.47  37 2.52  18 2.53  75 2.54  65 2.61  60 2.63  51 2.64
                            32 2.64  59 2.65  68 2.70  26 2.74
  68  0.459  0.293  0.224-  37 2.52  57 2.55  19 2.57  74 2.58  18 2.60  64 2.60  59 2.61   3 2.65
                            26 2.66  31 2.67  67 2.70  80 2.73
  69  0.874  0.457  0.127-  76 2.36  71 2.40  32 2.51  40 2.55  65 2.59  70 2.59  41 2.59  51 2.63
                            50 2.64  21 2.66  42 2.68  54 2.72
  70  0.117  0.210  0.130-  65 2.46  31 2.55  23 2.57  69 2.59  45 2.59  41 2.61  40 2.61  55 2.62
                            24 2.65  38 2.69  21 2.69  57 2.75
  71  0.785  0.626  0.043-  69 2.40  50 2.42  54 2.47  76 2.50  63 2.50  46 2.53  34 2.65  40 2.67
                            36 2.72
  72  0.304  0.623  0.041-  73 2.38  58 2.40  74 2.44  56 2.50  46 2.56  53 2.59  47 2.62  35 2.70
                            36 2.76
  73  0.377  0.706  0.128-  72 2.38  46 2.43  53 2.44  26 2.50  58 2.54  74 2.59  79 2.60  54 2.61
                            51 2.62  24 2.64  78 2.68  38 2.69
  74  0.379  0.460  0.129-  72 2.44  47 2.45  56 2.47  26 2.51  58 2.53  51 2.58  68 2.58  73 2.59
                            64 2.59  37 2.60  57 2.66  21 2.69
  75  0.797  0.369  0.318-  67 2.54  22 2.54  18 2.55  60 2.59  65 2.62  39 2.63  29 2.64  32 2.64
                             9 2.72  44 2.73   7 2.77  15 2.80
  76  0.788  0.388  0.041-  69 2.36  51 2.43  71 2.50  41 2.53  46 2.54  40 2.61  56 2.61  23 2.63
                            62 2.70
  77  0.944  0.051  0.223-  67 2.44  41 2.53  22 2.57   2 2.57  66 2.58  60 2.58  59 2.58  24 2.62
                            65 2.63  28 2.63  55 2.79  79 2.79
  78  0.457  0.803  0.225-  52 2.46  61 2.46  80 2.47  55 2.50  38 2.53  54 2.53  49 2.56  79 2.58
                            44 2.64  73 2.68  26 2.71  32 2.78
  79  0.216  0.795  0.225-  52 2.50  24 2.52  55 2.52   2 2.55  30 2.57  78 2.58  73 2.60  26 2.60
                            58 2.68  28 2.68  64 2.71  77 2.79
  80  0.461  0.034  0.222-  78 2.47  38 2.47  48 2.48  49 2.51  19 2.55  57 2.56  61 2.57  55 2.59
                            59 2.61  31 2.64  43 2.64  68 2.73
  81  0.498  0.075  0.484-  13 1.75  11 1.76
 
  LATTYP: Found a hexagonal cell.
 ALAT       =    10.5600004196
 C/A-ratio  =     2.0833332505
  
  Lattice vectors:
  
 A1 = (   5.2800002098,  -9.1452286274,   0.0000000000)
 A2 = ( -10.5600004196,   0.0000000000,   0.0000000000)
 A3 = (   0.0000000000,   0.0000000000, -22.0000000000)


Analysis of symmetry for initial positions (statically):
=====================================================================
 Subroutine PRICEL returns:
 Original cell was already a primitive cell.
 

 Routine SETGRP: Setting up the symmetry group for a 
 hexagonal supercell.


 Subroutine GETGRP returns: Found  1 space group operations
 (whereof  1 operations were pure point group operations)
 out of a pool of 24 trial point group operations.


The static configuration has the point symmetry C_1 .


Analysis of symmetry for dynamics (positions and initial velocities):
=====================================================================
 Subroutine PRICEL returns:
 Original cell was already a primitive cell.
 

 Routine SETGRP: Setting up the symmetry group for a 
 hexagonal supercell.


 Subroutine GETGRP returns: Found  1 space group operations
 (whereof  1 operations were pure point group operations)
 out of a pool of 24 trial point group operations.


The dynamic configuration has the point symmetry C_1 .


Analysis of constrained symmetry for selective dynamics:
=====================================================================
 Subroutine PRICEL returns:
 Original cell was already a primitive cell.
 

 Routine SETGRP: Setting up the symmetry group for a 
 hexagonal supercell.


 Subroutine GETGRP returns: Found  1 space group operations
 (whereof  1 operations were pure point group operations)
 out of a pool of 24 trial point group operations.


The constrained configuration has the point symmetry C_1 .


Analysis of structural, dynamic, and magnetic symmetry:
=====================================================================
 Subroutine PRICEL returns:
 Original cell was already a primitive cell.
 

 Routine SETGRP: Setting up the symmetry group for a 
 hexagonal supercell.


 Subroutine GETGRP returns: Found  1 space group operations
 (whereof  1 operations were pure point group operations)
 out of a pool of 24 trial point group operations.


The magnetic configuration has the point symmetry C_1 .


 Subroutine INISYM returns: Found  1 space group operations
 (whereof  1 operations are pure point group operations),
 and found     1 'primitive' translations

 
 
 KPOINTS: mesh auto                               

Automatic generation of k-mesh.
Space group operators:
 irot       det(A)        alpha          n_x          n_y          n_z        tau_x        tau_y        tau_z
    1     1.000000     0.000001     1.000000     0.000000     0.000000     0.000000     0.000000     0.000000
 
 Subroutine IBZKPT returns following result:
 ===========================================
 
 Found      4 irreducible k-points:
 
 Following reciprocal coordinates:
            Coordinates               Weight
  0.000000  0.000000  0.000000      1.000000
  0.500000  0.000000  0.000000      1.000000
  0.000000  0.500000  0.000000      1.000000
  0.500000  0.500000  0.000000      1.000000
 
 Following cartesian coordinates:
            Coordinates               Weight
  0.000000  0.000000  0.000000      1.000000
  0.047348 -0.027337  0.000000      1.000000
  0.000000  0.054673  0.000000      1.000000
  0.047348  0.027337  0.000000      1.000000
 
 TETIRR: Found     12 inequivalent tetrahedra from       24
 
 Subroutine IBZKPT_HF returns following result:
 ==============================================
 
 Found      4 k-points in 1st BZ
 the following      4 k-points will be used (e.g. in the exchange kernel)
 Following reciprocal coordinates:   # in IRBZ
  0.000000  0.000000  0.000000    0.25000000   1 t-inv F
  0.500000  0.000000  0.000000    0.25000000   2 t-inv F
  0.000000  0.500000  0.000000    0.25000000   3 t-inv F
  0.500000  0.500000  0.000000    0.25000000   4 t-inv F


--------------------------------------------------------------------------------------------------------




 Dimension of arrays:
   k-points           NKPTS =      4   k-points in BZ     NKDIM =      4   number of bands    NBANDS=    520
   number of dos      NEDOS =    301   number of ions     NIONS =     81
   non local maximal  LDIM  =      6   non local SUM 2l+1 LMDIM =     18
   total plane-waves  NPLWV = ******
   max r-space proj   IRMAX =   7802   max aug-charges    IRDMAX=  33988
   dimension x,y,z NGX =    84 NGY =   84 NGZ =  168
   dimension x,y,z NGXF=   168 NGYF=  168 NGZF=  336
   support grid    NGXF=   168 NGYF=  168 NGZF=  336
   ions per type =              32  13  10  13  12   1
   NGX,Y,Z   is equivalent  to a cutoff of  13.22, 13.22, 12.70 a.u.
   NGXF,Y,Z  is equivalent  to a cutoff of  26.45, 26.45, 25.39 a.u.

 SYSTEM =  Pt111                                   
 POSCAR =  10.56                                   

 Startparameter for this run:
   NWRITE =      2    write-flag & timer
   PREC   = accura    normal or accurate (medium, high low for compatibility)
   ISTART =      0    job   : 0-new  1-cont  2-samecut
   ICHARG =      2    charge: 1-file 2-atom 10-const
   ISPIN  =      2    spin polarized calculation?
   LNONCOLLINEAR =      F non collinear calculations
   LSORBIT =      F    spin-orbit coupling
   INIWAV =      1    electr: 0-lowe 1-rand  2-diag
   LASPH  =      F    aspherical Exc in radial PAW
   METAGGA=      F    non-selfconsistent MetaGGA calc.

 Electronic Relaxation 1
   ENCUT  =  550.0 eV  40.42 Ry    6.36 a.u.  20.19 20.19 42.07*2*pi/ulx,y,z
   ENINI  =  550.0     initial cutoff
   ENAUG  =  587.0 eV  augmentation charge cutoff
   NELM   =    200;   NELMIN=  2; NELMDL= -5     # of ELM steps 
   EDIFF  = 0.1E-04   stopping-criterion for ELM
   LREAL  =      T    real-space projection
   NLSPLINE    = F    spline interpolate recip. space projectors
   LCOMPAT=      F    compatible to vasp.4.4
   GGA_COMPAT  = T    GGA compatible to vasp.4.4-vasp.4.6
   LMAXPAW     = -100 max onsite density
   LMAXMIX     =    2 max onsite mixed and CHGCAR
   VOSKOWN=      0    Vosko Wilk Nusair interpolation
   ROPT   =   -0.00025  -0.00025  -0.00025  -0.00025
   ROPT   =   -0.00025  -0.00025
 Ionic relaxation
   EDIFFG = -.5E-01   stopping-criterion for IOM
   NSW    =   1009    number of steps for IOM
   NBLOCK =      1;   KBLOCK =   1009    inner block; outer block 
   IBRION =      5    ionic relax: 0-MD 1-quasi-New 2-CG
   NFREE  =      2    steps in history (QN), initial steepest desc. (CG)
   ISIF   =      2    stress and relaxation
   IWAVPR =     11    prediction:  0-non 1-charg 2-wave 3-comb
   ISYM   =      2    0-nonsym 1-usesym 2-fastsym
   LCORR  =      T    Harris-Foulkes like correction to forces

   POTIM  = 0.5000    time-step for ionic-motion
   TEIN   =    0.0    initial temperature
   TEBEG  =    0.0;   TEEND  =   0.0 temperature during run
   SMASS  =  -3.00    Nose mass-parameter (am)
   estimated Nose-frequenzy (Omega)   =  0.10E-29 period in steps =****** mass=  -0.255E-26a.u.
   SCALEE = 1.0000    scale energy and forces
   NPACO  =    256;   APACO  = 16.0  distance and # of slots for P.C.
   PSTRESS=    0.0 pullay stress

  Mass of Ions in am
   POMASS = 195.08 63.55 58.69 55.85 58.93  1.00
  Ionic Valenz
   ZVAL   =  10.00 11.00 10.00  8.00  9.00  1.00
  Atomic Wigner-Seitz radii
   RWIGS  =  -1.00 -1.00 -1.00 -1.00 -1.00 -1.00
  virtual crystal weights 
   VCA    =   1.00  1.00  1.00  1.00  1.00  1.00
   NELECT =     776.0000    total number of electrons
   NUPDOWN=      -1.0000    fix difference up-down

 DOS related values:
   EMIN   =  10.00;   EMAX   =-10.00  energy-range for DOS
   EFERMI =   0.00
   ISMEAR =    -5;   SIGMA  =   0.10  broadening in eV -4-tet -1-fermi 0-gaus

 Electronic relaxation 2 (details)
   IALGO  =     68    algorithm
   LDIAG  =      T    sub-space diagonalisation (order eigenvalues)
   LSUBROT=      F    optimize rotation matrix (better conditioning)
   TURBO    =      0    0=normal 1=particle mesh
   IRESTART =      0    0=no restart 2=restart with 2 vectors
   NREBOOT  =      0    no. of reboots
   NMIN     =      0    reboot dimension
   EREF     =   0.00    reference energy to select bands
   IMIX   =      4    mixing-type and parameters
     AMIX     =   0.40;   BMIX     =  1.00
     AMIX_MAG =   1.60;   BMIX_MAG =  1.00
     AMIN     =   0.10
     WC   =   100.;   INIMIX=   1;  MIXPRE=   1;  MAXMIX= -45

 Intra band minimization:
   WEIMIN = 0.0010     energy-eigenvalue tresh-hold
   EBREAK =  0.48E-08  absolut break condition
   DEPER  =   0.30     relativ break condition  

   TIME   =   0.40     timestep for ELM

  volume/ion in A,a.u.               =      26.23       177.01
  Fermi-wavevector in a.u.,A,eV,Ry     =   1.170222  2.211399 18.632091  1.369420
  Thomas-Fermi vector in A             =   2.306684
 
 Write flags
   LWAVE        =      F    write WAVECAR
   LDOWNSAMPLE  =      F    k-point downsampling of WAVECAR
   LCHARG       =      F    write CHGCAR
   LVTOT        =      F    write LOCPOT, total local potential
   LVHAR        =      F    write LOCPOT, Hartree potential only
   LELF         =      F    write electronic localiz. function (ELF)
   LORBIT       =      0    0 simple, 1 ext, 2 COOP (PROOUT), +10 PAW based schemes


 Dipole corrections
   LMONO  =      F    monopole corrections only (constant potential shift)
   LDIPOL =      F    correct potential (dipole corrections)
   IDIPOL =      0    1-x, 2-y, 3-z, 4-all directions 
   EPSILON=  1.0000000 bulk dielectric constant

 Exchange correlation treatment:
   GGA     =    --    GGA type
   LEXCH   =     8    internal setting for exchange type
   VOSKOWN=      0    Vosko Wilk Nusair interpolation
   LHFCALC =     F    Hartree Fock is set to
   LHFONE  =     F    Hartree Fock one center treatment
   AEXX    =    0.0000 exact exchange contribution

 Linear response parameters
   LEPSILON=     F    determine dielectric tensor
   LRPA    =     F    only Hartree local field effects (RPA)
   LNABLA  =     F    use nabla operator in PAW spheres
   LVEL    =     F    velocity operator in full k-point grid
   LINTERFAST=   F  fast interpolation
   KINTER  =     0    interpolate to denser k-point grid
   CSHIFT  =0.1000    complex shift for real part using Kramers Kronig
   OMEGAMAX=  -1.0    maximum frequency
   DEG_THRESHOLD= 0.2000000E-02 threshold for treating states as degnerate
   RTIME   =   -0.100 relaxation time in fs
  (WPLASMAI=    0.000 imaginary part of plasma frequency in eV, 0.658/RTIME)
   DFIELD  = 0.0000000 0.0000000 0.0000000 field for delta impulse in time
 
 Orbital magnetization related:
   ORBITALMAG=     F  switch on orbital magnetization
   LCHIMAG   =     F  perturbation theory with respect to B field
   DQ        =  0.001000  dq finite difference perturbation B field
   LLRAUG    =     F  two centre corrections for induced B field



--------------------------------------------------------------------------------------------------------


 finite differences
   using selective dynamics as specified on POSCAR
   WARNING: If single coordinates had been selected the selection of coordinates
            is made according to the corresponding   d i r e c t   coordinates!
            Don't support selection of single cartesian coordinates -- sorry ...
  !
 charge density and potential will be updated during run
 spin polarized calculation
 RMM-DIIS sequential band-by-band and
  variant of blocked Davidson during initial phase
 perform sub-space diagonalisation
    before iterative eigenvector-optimisation
 modified Broyden-mixing scheme, WC =      100.0
 initial mixing is a Kerker type mixing with AMIX =  0.4000 and BMIX =      1.0000
 Hartree-type preconditioning will be used
 using additional bands          132
 real space projection scheme for non local part
 use partial core corrections
 calculate Harris-corrections to forces 
   (improved forces if not selfconsistent)
 use gradient corrections 
 use of overlap-Matrix (Vanderbilt PP)
 Fermi weights with tetrahedron method with Bloechl corrections


--------------------------------------------------------------------------------------------------------


  energy-cutoff  :      550.00
  volume of cell :     2124.62
      direct lattice vectors                 reciprocal lattice vectors
    10.560000420  0.000000000  0.000000000     0.094696966 -0.054673319  0.000000000
     5.280000210  9.145228627  0.000000000     0.000000000  0.109346638  0.000000000
     0.000000000  0.000000000 22.000000000     0.000000000  0.000000000  0.045454545

  length of vectors
    10.560000420 10.560000420 22.000000000     0.109346638  0.109346638  0.045454545


 
 k-points in units of 2pi/SCALE and weight: mesh auto                               
   0.00000000  0.00000000  0.00000000       0.250
   0.04734848 -0.02733666  0.00000000       0.250
   0.00000000  0.05467332  0.00000000       0.250
   0.04734848  0.02733666  0.00000000       0.250
 
 k-points in reciprocal lattice and weights: mesh auto                               
   0.00000000  0.00000000  0.00000000       0.250
   0.50000000  0.00000000  0.00000000       0.250
   0.00000000  0.50000000  0.00000000       0.250
   0.50000000  0.50000000  0.00000000       0.250
 
 position of ions in fractional coordinates (direct lattice) 
   0.78913511  0.87589419  0.31707907
   0.04443017  0.88039310  0.31609593
   0.28848172  0.37530856  0.32119295
   0.87865111  0.95655658  0.42404766
   0.12663411  0.45706700  0.42710110
   0.12849459  0.95803029  0.42197377
   0.87785239  0.45699516  0.42251564
   0.37645654  0.95599041  0.41724226
   0.87697341  0.20862855  0.42230537
   0.12717619  0.20762717  0.42253081
   0.62776223  0.95664343  0.43043835
   0.87746247  0.70655250  0.42535157
   0.37456264  0.20910149  0.43400826
   0.37776600  0.70815003  0.42679109
   0.62780822  0.45867640  0.42438985
   0.12698805  0.70756033  0.42498952
   0.62886664  0.20859463  0.42359459
   0.55440270  0.36961331  0.31754170
   0.53809724  0.12009676  0.31580071
   0.54745577  0.12241455  0.03835403
   0.12360644  0.46198687  0.12740666
   0.04067324  0.13352848  0.31326808
   0.03235129  0.13482511  0.03441534
   0.12671306  0.95484959  0.13162708
   0.37644213  0.45964110  0.42704494
   0.45779299  0.54562474  0.22008560
   0.62565076  0.70782843  0.42351706
   0.96413863  0.79272622  0.21761397
   0.79049871  0.62204445  0.31892329
   0.29367838  0.62999481  0.31923927
   0.21123592  0.28374023  0.22269626
   0.71709822  0.53685317  0.22058810
   0.04163063  0.62317142  0.32077232
   0.79720004  0.86975892  0.03740235
   0.04406258  0.87221915  0.03450723
   0.03926108  0.63118460  0.03512204
   0.62574752  0.21423502  0.13267817
   0.37608349  0.96104394  0.13055742
   0.04107834  0.37819662  0.32052007
   0.03961706  0.37680314  0.03348892
   0.86761936  0.21521963  0.13097207
   0.95962679  0.54542694  0.22473188
   0.29291009  0.11922694  0.31940194
   0.54086036  0.62958722  0.32126805
   0.29178315  0.12606023  0.03725420
   0.54545151  0.62597825  0.04206242
   0.30678791  0.37356804  0.03912988
   0.62788283  0.95185769  0.13263039
   0.70142059  0.79820208  0.22280830
   0.86633517  0.71047377  0.12834734
   0.62467538  0.45773867  0.12814478
   0.30116215  0.87460182  0.31587091
   0.30615091  0.86696452  0.03949459
   0.61892989  0.71603521  0.13157826
   0.21580132  0.03462027  0.22396955
   0.54130035  0.38549347  0.03924212
   0.37935969  0.20774149  0.13048593
   0.13970060  0.70042731  0.12601187
   0.70329280  0.04306983  0.22237866
   0.79517618  0.12479579  0.32326843
   0.53971500  0.87226411  0.31739051
   0.78866377  0.13163117  0.03568706
   0.55002307  0.86477454  0.04096764
   0.21334288  0.54014670  0.22460931
   0.96280137  0.28964998  0.22158834
   0.86740749  0.96641026  0.12740667
   0.71753219  0.28687300  0.22453182
   0.45915719  0.29304584  0.22376919
   0.87387308  0.45689803  0.12677291
   0.11726506  0.21049175  0.13008946
   0.78478084  0.62565658  0.04309165
   0.30446760  0.62284293  0.04138738
   0.37746416  0.70582480  0.12774454
   0.37902910  0.46003850  0.12899471
   0.79653178  0.36886525  0.31834255
   0.78782398  0.38752064  0.04111567
   0.94385566  0.05104212  0.22344851
   0.45702340  0.80263442  0.22502694
   0.21629647  0.79533135  0.22474012
   0.46108857  0.03393525  0.22161390
   0.49833894  0.07475535  0.48385905
 
 position of ions in cartesian coordinates  (Angst):
  12.95798865  8.01025264  6.97573950
   5.11765837  8.05139616  6.95411039
   5.02799636  3.43228258  7.06624489
  14.32917503  8.74792858  9.32904857
   3.75057010  4.17998224  9.39622426
   6.41530310  8.76140608  9.28342291
  11.68305615  4.17932523  9.29534411
   9.02301079  8.74275083  9.17932968
  10.36239833  1.90795581  9.29071812
   2.43925210  1.89879792  9.29567772
  11.68024692  8.74872289  9.46964363
  12.99660139  6.46158419  9.35773450
   5.05943758  1.91228095  9.54818171
   7.72824148  6.47619394  9.38940403
   9.05146653  4.19470052  9.33657679
   5.07691252  6.47080102  9.34976940
   7.74221166  1.90764554  9.31908098
   7.80605108  3.38019819  6.98591741
   6.31641796  1.09831234  6.94761560
   6.42748199  1.11950902  0.84378857
   3.74457485  4.22497551  2.80294662
   1.13453985  1.22114847  6.89189780
   1.05350625  1.23300646  0.75713746
   6.37969601  8.73231780  2.89579587
   6.40213416  4.20352295  9.39498877
   7.71519296  4.98986301  4.84188323
  10.34420649  6.47325281  9.31737539
  14.36689896  7.24966250  4.78750741
  11.63206156  5.68873872  7.01631229
   6.42761657  5.76144660  7.02326391
   3.72879985  2.59486929  4.89931774
  10.40714241  4.90964500  4.85293829
   3.72996475  5.69904513  7.05699107
  13.01076010  7.95414421  0.82285169
   5.07061818  7.97664351  0.75915899
   3.74725186  5.77232751  0.77268479
   7.73905501  1.95922823  2.91891969
   9.04575401  8.78896659  2.87226322
   2.43066551  3.45869453  7.05144163
   2.40787681  3.44595088  0.73675630
  10.29842047  1.96823277  2.88138548
  13.01351367  4.98805409  4.94410139
   3.72264894  1.09035760  7.02684268
   9.03570629  5.75771904  7.06789700
   3.74682824  1.15284966  0.81959249
   9.06513349  5.72471418  0.92537331
   5.21211980  3.41636512  0.86085731
  11.65625177  8.70495616  2.91786869
  11.62150883  7.29974048  4.90178269
  12.89980144  6.49744505  2.82364142
   9.01343253  4.18612478  2.81918506
   7.79817026  7.99843358  6.94916002
   7.81052654  7.92858872  0.86888091
  10.31656596  6.54830568  2.89472164
   2.46165709  0.31661030  4.92733016
   7.75153750  3.52542591  0.86332671
   5.10291361  1.89984346  2.87069041
   5.17349471  6.40556785  2.77226120
   7.65418102  0.39388344  4.89233061
   9.05598255  1.14128600  7.11190551
  10.30494533  7.97705472  6.98259132
   9.02330237  1.20379713  0.78511532
  10.37425363  7.90856090  0.90128811
   5.10487562  4.93976509  4.94140483
  11.69653478  2.64891530  4.87494337
  14.26246981  8.83804282  2.80294666
   9.09182970  2.62351917  4.93970002
   6.39598222  2.67997121  4.92292219
  11.64052176  4.17843690  2.78900405
   2.34971562  1.92499520  2.86196808
  11.59075286  5.72177244  0.94801637
   6.50378879  5.69604102  0.91052233
   7.71277679  6.45492912  2.81037998
   6.43155077  4.20715724  2.83788366
  10.35898459  3.37335706  7.00353606
  10.36553066  3.54396488  0.90454481
  10.23661853  0.46679185  4.91586728
   9.06407717  7.34027527  4.95059278
   6.48344052  7.27348698  4.94428261
   5.04827358  0.31034563  4.87550584
   5.65716764  0.68365472 10.64489913
 


--------------------------------------------------------------------------------------------------------


 k-point  1 :   0.0000 0.0000 0.0000  plane waves:   62167
 k-point  2 :   0.5000 0.0000 0.0000  plane waves:   62242
 k-point  3 :   0.0000 0.5000 0.0000  plane waves:   62242
 k-point  4 :   0.5000 0.5000 0.0000  plane waves:   62242

 maximum and minimum number of plane-waves per node :     62242    62167

 maximum number of plane-waves:     62242
 maximum index in each direction: 
   IXMAX=   20   IYMAX=   20   IZMAX=   42
   IXMIN=  -20   IYMIN=  -20   IZMIN=  -42


 serial   3D FFT for wavefunctions
 parallel 3D FFT for charge:
    minimum data exchange during FFTs selected (reduces bandwidth)


 total amount of memory used by VASP MPI-rank0   377848. kBytes
=======================================================================

   base      :      30000. kBytes
   nonlr-proj:      98408. kBytes
   fftplans  :      13995. kBytes
   grid      :     126830. kBytes
   one-center:       2519. kBytes
   wavefun   :     106096. kBytes
 
     INWAV:  cpu time    0.0000: real time    0.0000
 Broyden mixing: mesh for mixing (old mesh)
   NGX = 41   NGY = 41   NGZ = 85
  (NGX  =168   NGY  =168   NGZ  =336)
  gives a total of 142885 points

 initial charge density was supplied:
 charge density of overlapping atoms calculated
 number of electron     776.0000000 magnetization      81.0000000
 keeping initial charge density in first step


--------------------------------------------------------------------------------------------------------


 Maximum index for non-local projection operator         7557
 Maximum index for augmentation-charges         2130 (set IRDMAX)


--------------------------------------------------------------------------------------------------------


 First call to EWALD:  gamma=   0.138
 Maximum number of real-space cells 4x 4x 2
 Maximum number of reciprocal cells 2x 2x 4

    FEWALD:  cpu time    0.0053: real time    0.0053


--------------------------------------- Iteration      1(   1)  ---------------------------------------


    POTLOK:  cpu time    0.5643: real time    0.5884
    SETDIJ:  cpu time    0.0418: real time    0.0423
     EDDAV:  cpu time   61.8403: real time   62.1416
 BZINTS: Fermi energy: 18.609846;776.000000 electrons
         Band energy:8072.731970;  BLOECHL correction: -0.017918
       DOS:  cpu time    0.0184: real time    0.0186
    --------------------------------------------
      LOOP:  cpu time   62.4648: real time   62.7909

 eigenvalue-minimisations  :  8320
 total energy-change (2. order) : 0.7667045E+04  (-0.3387279E+05)
 number of electron     776.0000000 magnetization      81.0000000
 augmentation part      776.0000000 magnetization      81.0000000

 Free energy of the ion-electron system (eV)
  ---------------------------------------------------
  alpha Z        PSCENC =      2230.33460859
  Ewald energy   TEWEN  =    216882.41091225
  -Hartree energ DENC   =   -288609.65747908
  -exchange      EXHF   =         0.00000000
  -V(xc)+E(xc)   XCENC  =      1276.74637780
  PAW double counting   =     63731.11119875   -65606.67393422
  entropy T*S    EENTRO =         0.00000000
  eigenvalues    EBANDS =      8072.73196965
  atomic energy  EATOM  =     69690.04112127
  Solvation  Ediel_sol  =         0.00000000
  ---------------------------------------------------
  free energy    TOTEN  =      7667.04477500 eV

  energy without entropy =     7667.04477500  energy(sigma->0) =     7667.04477500


--------------------------------------------------------------------------------------------------------




--------------------------------------- Iteration      1(   2)  ---------------------------------------


     EDDAV:  cpu time   61.9351: real time   62.1127
 BZINTS: Fermi energy:  6.188354;776.000000 electrons
         Band energy:1130.471706;  BLOECHL correction: -0.009827
       DOS:  cpu time    0.0180: real time    0.0180
    --------------------------------------------
      LOOP:  cpu time   61.9531: real time   62.1307

 eigenvalue-minimisations  :  8320
 total energy-change (2. order) :-0.6942260E+04  (-0.6372037E+04)
 number of electron     776.0000000 magnetization      81.0000000
 augmentation part      776.0000000 magnetization      81.0000000

 Free energy of the ion-electron system (eV)
  ---------------------------------------------------
  alpha Z        PSCENC =      2230.33460859
  Ewald energy   TEWEN  =    216882.41091225
  -Hartree energ DENC   =   -288609.65747908
  -exchange      EXHF   =         0.00000000
  -V(xc)+E(xc)   XCENC  =      1276.74637780
  PAW double counting   =     63731.11119875   -65606.67393422
  entropy T*S    EENTRO =         0.00000000
  eigenvalues    EBANDS =      1130.47170570
  atomic energy  EATOM  =     69690.04112127
  Solvation  Ediel_sol  =         0.00000000
  ---------------------------------------------------
  free energy    TOTEN  =       724.78451106 eV

  energy without entropy =      724.78451106  energy(sigma->0) =      724.78451106


--------------------------------------------------------------------------------------------------------




--------------------------------------- Iteration      1(   3)  ---------------------------------------


     EDDAV:  cpu time   66.8179: real time   67.0135
 BZINTS: Fermi energy:  3.245872;776.000000 electrons
         Band energy:   6.476217;  BLOECHL correction: -0.013804
       DOS:  cpu time    0.0183: real time    0.0183
    --------------------------------------------
      LOOP:  cpu time   66.8362: real time   67.0318

 eigenvalue-minimisations  :  9160
 total energy-change (2. order) :-0.1123995E+04  (-0.9441730E+03)
 number of electron     776.0000000 magnetization      81.0000000
 augmentation part      776.0000000 magnetization      81.0000000

 Free energy of the ion-electron system (eV)
  ---------------------------------------------------
  alpha Z        PSCENC =      2230.33460859
  Ewald energy   TEWEN  =    216882.41091225
  -Hartree energ DENC   =   -288609.65747908
  -exchange      EXHF   =         0.00000000
  -V(xc)+E(xc)   XCENC  =      1276.74637780
  PAW double counting   =     63731.11119875   -65606.67393422
  entropy T*S    EENTRO =         0.00000000
  eigenvalues    EBANDS =         6.47621725
  atomic energy  EATOM  =     69690.04112127
  Solvation  Ediel_sol  =         0.00000000
  ---------------------------------------------------
  free energy    TOTEN  =      -399.21097739 eV

  energy without entropy =     -399.21097739  energy(sigma->0) =     -399.21097739


--------------------------------------------------------------------------------------------------------




--------------------------------------- Iteration      1(   4)  ---------------------------------------


     EDDAV:  cpu time   83.7584: real time   83.9937
 BZINTS: Fermi energy:  2.995191;776.000000 electrons
         Band energy:-118.663699;  BLOECHL correction: -0.064300
       DOS:  cpu time    0.0202: real time    0.0202
    --------------------------------------------
      LOOP:  cpu time   83.7786: real time   84.0139

 eigenvalue-minimisations  : 12080
 total energy-change (2. order) :-0.1251399E+03  (-0.1142512E+03)
 number of electron     776.0000000 magnetization      81.0000000
 augmentation part      776.0000000 magnetization      81.0000000

 Free energy of the ion-electron system (eV)
  ---------------------------------------------------
  alpha Z        PSCENC =      2230.33460859
  Ewald energy   TEWEN  =    216882.41091225
  -Hartree energ DENC   =   -288609.65747908
  -exchange      EXHF   =         0.00000000
  -V(xc)+E(xc)   XCENC  =      1276.74637780
  PAW double counting   =     63731.11119875   -65606.67393422
  entropy T*S    EENTRO =         0.00000000
  eigenvalues    EBANDS =      -118.66369869
  atomic energy  EATOM  =     69690.04112127
  Solvation  Ediel_sol  =         0.00000000
  ---------------------------------------------------
  free energy    TOTEN  =      -524.35089334 eV

  energy without entropy =     -524.35089334  energy(sigma->0) =     -524.35089334


--------------------------------------------------------------------------------------------------------




--------------------------------------- Iteration      1(   5)  ---------------------------------------


     EDDAV:  cpu time   75.1141: real time   75.2939
 BZINTS: Fermi energy:  2.989188;776.000000 electrons
         Band energy:-121.936404;  BLOECHL correction: -0.072213
       DOS:  cpu time    0.0203: real time    0.0203
    CHARGE:  cpu time    3.0469: real time    3.0548
    MIXING:  cpu time    0.0118: real time    0.0127
    --------------------------------------------
      LOOP:  cpu time   78.1931: real time   78.3819

 eigenvalue-minimisations  : 10560
 total energy-change (2. order) :-0.3272705E+01  (-0.3252076E+01)
 number of electron     776.0000022 magnetization      77.7695538
 augmentation part      333.5762346 magnetization      62.2197996

 Broyden mixing:
  rms(total) = 0.98593E+01    rms(broyden)= 0.98592E+01
  rms(prec ) = 0.10179E+02
  weight for this iteration     100.00

 Free energy of the ion-electron system (eV)
  ---------------------------------------------------
  alpha Z        PSCENC =      2230.33460859
  Ewald energy   TEWEN  =    216882.41091225
  -Hartree energ DENC   =   -288609.65747908
  -exchange      EXHF   =         0.00000000
  -V(xc)+E(xc)   XCENC  =      1276.74637780
  PAW double counting   =     63731.11119875   -65606.67393422
  entropy T*S    EENTRO =         0.00000000
  eigenvalues    EBANDS =      -121.93640377
  atomic energy  EATOM  =     69690.04112127
  Solvation  Ediel_sol  =         0.00000000
  ---------------------------------------------------
  free energy    TOTEN  =      -527.62359842 eV

  energy without entropy =     -527.62359842  energy(sigma->0) =     -527.62359842


--------------------------------------------------------------------------------------------------------




--------------------------------------- Iteration      1(   6)  ---------------------------------------


    POTLOK:  cpu time    0.5049: real time    0.5061
    SETDIJ:  cpu time    0.0416: real time    0.0417
    EDDIAG:  cpu time    9.4276: real time    9.4507
  RMM-DIIS:  cpu time   38.5246: real time   38.6158
    ORTHCH:  cpu time    1.5574: real time    1.5611
 BZINTS: Fermi energy:  1.353387;776.000000 electrons
         Band energy:***********;  BLOECHL correction: -0.011548
       DOS:  cpu time    0.0228: real time    0.0228
    CHARGE:  cpu time    3.0651: real time    3.0725
    MIXING:  cpu time    0.0137: real time    0.0141
    --------------------------------------------
      LOOP:  cpu time   53.1576: real time   53.2847

 eigenvalue-minimisations  :  8347
 total energy-change (2. order) :-0.8397316E+02  (-0.8755149E+02)
 number of electron     776.0000030 magnetization      76.1113136
 augmentation part      387.4969644 magnetization      64.6276712

 Broyden mixing:
  rms(total) = 0.14068E+02    rms(broyden)= 0.14068E+02
  rms(prec ) = 0.15519E+02
  weight for this iteration     100.00

 eigenvalues of (default mixing * dielectric matrix)
  average eigenvalue GAMMA=   0.3450
  0.3450

 Free energy of the ion-electron system (eV)
  ---------------------------------------------------
  alpha Z        PSCENC =      2230.33460859
  Ewald energy   TEWEN  =    216882.41091225
  -Hartree energ DENC   =   -287254.28831417
  -exchange      EXHF   =         0.00000000
  -V(xc)+E(xc)   XCENC  =      1221.35917062
  PAW double counting   =     68483.99418985   -70171.92204244
  entropy T*S    EENTRO =         0.00000000
  eigenvalues    EBANDS =     -1693.52640550
  atomic energy  EATOM  =     69690.04112127
  Solvation  Ediel_sol  =         0.00000000
  ---------------------------------------------------
  free energy    TOTEN  =      -611.59675952 eV

  energy without entropy =     -611.59675952  energy(sigma->0) =     -611.59675952


--------------------------------------------------------------------------------------------------------




--------------------------------------- Iteration      1(   7)  ---------------------------------------


    POTLOK:  cpu time    0.5462: real time    0.5475
    SETDIJ:  cpu time    0.0489: real time    0.0490
    EDDIAG:  cpu time    9.4382: real time    9.4615
  RMM-DIIS:  cpu time   37.5989: real time   37.6939
    ORTHCH:  cpu time    1.5281: real time    1.5317
 BZINTS: Fermi energy:  2.825411;776.000000 electrons
         Band energy:***********;  BLOECHL correction: -0.017864
       DOS:  cpu time    0.0226: real time    0.0227
    CHARGE:  cpu time    3.0947: real time    3.1021
    MIXING:  cpu time    0.0112: real time    0.0112
    --------------------------------------------
      LOOP:  cpu time   52.2887: real time   52.4195

 eigenvalue-minimisations  :  8332
 total energy-change (2. order) :-0.2525680E+02  (-0.2884119E+02)
 number of electron     776.0000019 magnetization      74.3968388
 augmentation part      360.3358847 magnetization      61.3521334

 Broyden mixing:
  rms(total) = 0.15093E+02    rms(broyden)= 0.15093E+02
  rms(prec ) = 0.18104E+02
  weight for this iteration     100.00

 eigenvalues of (default mixing * dielectric matrix)
  average eigenvalue GAMMA=   0.3222
  0.4952  0.1493

 Free energy of the ion-electron system (eV)
  ---------------------------------------------------
  alpha Z        PSCENC =      2230.33460859
  Ewald energy   TEWEN  =    216882.41091225
  -Hartree energ DENC   =   -287658.90940521
  -exchange      EXHF   =         0.00000000
  -V(xc)+E(xc)   XCENC  =      1232.03870730
  PAW double counting   =     69959.61509218   -71795.03983641
  entropy T*S    EENTRO =         0.00000000
  eigenvalues    EBANDS =     -1177.34475546
  atomic energy  EATOM  =     69690.04112127
  Solvation  Ediel_sol  =         0.00000000
  ---------------------------------------------------
  free energy    TOTEN  =      -636.85355549 eV

  energy without entropy =     -636.85355549  energy(sigma->0) =     -636.85355549


--------------------------------------------------------------------------------------------------------




--------------------------------------- Iteration      1(   8)  ---------------------------------------


    POTLOK:  cpu time    0.5146: real time    0.5159
    SETDIJ:  cpu time    0.0429: real time    0.0430
    EDDIAG:  cpu time    9.4292: real time    9.4517
  RMM-DIIS:  cpu time   37.7672: real time   37.8649
    ORTHCH:  cpu time    1.5261: real time    1.5297
 BZINTS: Fermi energy:  2.207066;776.000000 electrons
         Band energy:-921.350125;  BLOECHL correction: -0.042456
       DOS:  cpu time    0.0227: real time    0.0228
    CHARGE:  cpu time    3.1574: real time    3.1650
    MIXING:  cpu time    0.0111: real time    0.0111
    --------------------------------------------
      LOOP:  cpu time   52.4711: real time   52.6040

 eigenvalue-minimisations  :  8354
 total energy-change (2. order) : 0.3477575E+02  (-0.1439120E+02)
[...]
  atomic energy  EATOM  =     69690.04112127
  Solvation  Ediel_sol  =         0.00000000
  ---------------------------------------------------
  free energy    TOTEN  =      -464.52164400 eV

  energy without entropy =     -464.52164400  energy(sigma->0) =     -464.52164400


--------------------------------------------------------------------------------------------------------




--------------------------------------- Iteration      1(  54)  ---------------------------------------


    POTLOK:  cpu time    0.5133: real time    0.5146
    SETDIJ:  cpu time    0.0430: real time    0.0431
    EDDIAG:  cpu time    9.2234: real time    9.2455
  RMM-DIIS:  cpu time   37.6564: real time   37.7454
    ORTHCH:  cpu time    1.5243: real time    1.5279
 BZINTS: Fermi energy:  2.202986;776.000000 electrons
         Band energy:-554.694687;  BLOECHL correction: -0.263940
       DOS:  cpu time    0.0212: real time    0.0213
    CHARGE:  cpu time    3.0765: real time    3.0838
    MIXING:  cpu time    0.0586: real time    0.0588
    --------------------------------------------
      LOOP:  cpu time   52.1169: real time   52.2404

 eigenvalue-minimisations  :  8351
 total energy-change (2. order) :-0.4031599E+00  (-0.2152881E-01)
 number of electron     776.0000025 magnetization      68.8617131
 augmentation part      367.2662431 magnetization      56.0523283

 Broyden mixing:
  rms(total) = 0.19878E+01    rms(broyden)= 0.19878E+01
  rms(prec ) = 0.21434E+01
  weight for this iteration     100.00

 eigenvalues of (default mixing * dielectric matrix)
  average eigenvalue GAMMA=   0.4035
  1.5559  1.5502  1.5502  1.1033  1.1033  1.0880  1.0880  0.9670  0.6667  0.6667
  0.5809  0.5809  0.4197  0.4197  0.4907  0.4527  0.3455  0.2915  0.0629  0.0629
  0.2279  0.2279  0.1607  0.1583  0.1438  0.1438  0.0496  0.1336  0.0644  0.0644
  0.1274  0.0743  0.0743  0.0790  0.0790  0.1157  0.0934  0.0934  0.1108  0.1044
  0.0912  0.0989  0.0980  0.0952

 Free energy of the ion-electron system (eV)
  ---------------------------------------------------
  alpha Z        PSCENC =      2230.33460859
  Ewald energy   TEWEN  =    216882.41091225
  -Hartree energ DENC   =   -287924.14316717
  -exchange      EXHF   =         0.00000000
  -V(xc)+E(xc)   XCENC  =      1256.24727390
  PAW double counting   =     77073.75555315   -79118.87641861
  entropy T*S    EENTRO =         0.00000000
  eigenvalues    EBANDS =      -554.69468724
  atomic energy  EATOM  =     69690.04112127
  Solvation  Ediel_sol  =         0.00000000
  ---------------------------------------------------
  free energy    TOTEN  =      -464.92480386 eV

  energy without entropy =     -464.92480386  energy(sigma->0) =     -464.92480386


--------------------------------------------------------------------------------------------------------




--------------------------------------- Iteration      1(  55)  ---------------------------------------


    POTLOK:  cpu time    0.5460: real time    0.5473
    SETDIJ:  cpu time    0.0504: real time    0.0506
    EDDIAG:  cpu time    9.3221: real time    9.3444
  RMM-DIIS:  cpu time   37.7684: real time   37.8577
    ORTHCH:  cpu time    1.5247: real time    1.5284
 BZINTS: Fermi energy:  2.203842;776.000000 electrons
         Band energy:-551.174302;  BLOECHL correction: -0.244848
       DOS:  cpu time    0.0203: real time    0.0203
    CHARGE:  cpu time    3.0589: real time    3.0662
    MIXING:  cpu time    0.0541: real time    0.0542
    --------------------------------------------
      LOOP:  cpu time   52.3450: real time   52.4691

 eigenvalue-minimisations  :  8352
 total energy-change (2. order) :-0.1060827E+01  (-0.2847305E-01)
 number of electron     776.0000025 magnetization      68.9840868
 augmentation part      367.3954351 magnetization      56.1523098

 Broyden mixing:
  rms(total) = 0.19688E+01    rms(broyden)= 0.19688E+01
  rms(prec ) = 0.21221E+01
  weight for this iteration     100.00

 eigenvalues of (default mixing * dielectric matrix)
  average eigenvalue GAMMA=   0.3881
  1.5690  1.4102  1.4102  1.0931  0.9394  0.9394  0.7855  0.7855  0.6556  0.6556
  0.5256  0.5256  0.4259  0.4259  0.3479  0.3479  0.2951  0.0524  0.0524  0.2069
  0.1649  0.0494  0.1539  0.1451  0.0632  0.0632  0.1312  0.1279  0.1279  0.1211
  0.0724  0.1080  0.1080  0.0793  0.1033  0.0976  0.0861  0.0889  0.0918  0.0918

 Free energy of the ion-electron system (eV)
  ---------------------------------------------------
  alpha Z        PSCENC =      2230.33460859
  Ewald energy   TEWEN  =    216882.41091225
  -Hartree energ DENC   =   -287927.84665975
  -exchange      EXHF   =         0.00000000
  -V(xc)+E(xc)   XCENC  =      1255.09536446
  PAW double counting   =     77077.33355816   -79122.18023426
  entropy T*S    EENTRO =         0.00000000
  eigenvalues    EBANDS =      -551.17430174
  atomic energy  EATOM  =     69690.04112127
  Solvation  Ediel_sol  =         0.00000000
  ---------------------------------------------------
  free energy    TOTEN  =      -465.98563102 eV

  energy without entropy =     -465.98563102  energy(sigma->0) =     -465.98563102


--------------------------------------------------------------------------------------------------------




--------------------------------------- Iteration      1(  56)  ---------------------------------------


    POTLOK:  cpu time    0.5134: real time    0.5146
    SETDIJ:  cpu time    0.0441: real time    0.0442
    EDDIAG:  cpu time    9.5046: real time    9.5296
  RMM-DIIS:  cpu time   37.4687: real time   37.5791
    ORTHCH:  cpu time    1.5365: real time    1.5407
 BZINTS: Fermi energy:  2.202450;776.000000 electrons
         Band energy:-548.885570;  BLOECHL correction: -0.240646
       DOS:  cpu time    0.0206: real time    0.0206
    CHARGE:  cpu time    3.0558: real time    3.0647
    MIXING:  cpu time    0.0508: real time    0.0510
    --------------------------------------------
      LOOP:  cpu time   52.1945: real time   52.3444

 eigenvalue-minimisations  :  8349
 total energy-change (2. order) :-0.2513109E+00  (-0.2168720E-01)
 number of electron     776.0000025 magnetization      68.9438861
 augmentation part      367.3290634 magnetization      56.0315051

 Broyden mixing:
  rms(total) = 0.17923E+01    rms(broyden)= 0.17923E+01
  rms(prec ) = 0.19380E+01
  weight for this iteration     100.00

 eigenvalues of (default mixing * dielectric matrix)
  average eigenvalue GAMMA=   0.3866
  1.5924  1.4186  1.4186  0.9385  0.9385  0.8713  0.8713  0.7579  0.7579  0.6348
  0.6348  0.4301  0.4301  0.4420  0.4420  0.3837  0.2936  0.0523  0.0523  0.2396
  0.2027  0.0494  0.1562  0.0632  0.0632  0.1456  0.0715  0.1386  0.1297  0.1297
  0.1307  0.0794  0.0853  0.0900  0.0900  0.0928  0.1107  0.1107  0.0982  0.1054
  0.1054

 Free energy of the ion-electron system (eV)
  ---------------------------------------------------
  alpha Z        PSCENC =      2230.33460859
  Ewald energy   TEWEN  =    216882.41091225
  -Hartree energ DENC   =   -287930.41665612
  -exchange      EXHF   =         0.00000000
  -V(xc)+E(xc)   XCENC  =      1255.03004534
  PAW double counting   =     77084.45970912   -79129.21111192
  entropy T*S    EENTRO =         0.00000000
  eigenvalues    EBANDS =      -548.88557047
  atomic energy  EATOM  =     69690.04112127
  Solvation  Ediel_sol  =         0.00000000
  ---------------------------------------------------
  free energy    TOTEN  =      -466.23694193 eV

  energy without entropy =     -466.23694193  energy(sigma->0) =     -466.23694193


--------------------------------------------------------------------------------------------------------




--------------------------------------- Iteration      1(  57)  ---------------------------------------


    POTLOK:  cpu time    0.5139: real time    0.5156
    SETDIJ:  cpu time    0.0428: real time    0.0429
    EDDIAG:  cpu time    9.2195: real time    9.2462
  RMM-DIIS:  cpu time   37.4530: real time   37.5637
    ORTHCH:  cpu time    1.5183: real time    1.5226
 BZINTS: Fermi energy:  2.207221;776.000000 electrons
         Band energy:-546.935310;  BLOECHL correction: -0.220334
       DOS:  cpu time    0.0201: real time    0.0201
    CHARGE:  cpu time    3.0501: real time    3.0590
    MIXING:  cpu time    0.0527: real time    0.0528
    --------------------------------------------
      LOOP:  cpu time   51.8703: real time   52.0229

 eigenvalue-minimisations  :  8351
 total energy-change (2. order) :-0.9224187E+00  (-0.1535974E-01)
 number of electron     776.0000025 magnetization      69.0529201
 augmentation part      367.3628442 magnetization      56.1367671

 Broyden mixing:
  rms(total) = 0.17350E+01    rms(broyden)= 0.17350E+01
  rms(prec ) = 0.18601E+01
  weight for this iteration     100.00

 eigenvalues of (default mixing * dielectric matrix)
  average eigenvalue GAMMA=   0.3900
  1.5947  1.4381  1.4381  0.9450  0.9450  1.0320  1.0320  0.7568  0.7568  0.6372
  0.6372  0.4250  0.4250  0.4369  0.4369  0.3623  0.2967  0.0533  0.0533  0.2094
  0.2094  0.2078  0.0487  0.1589  0.0624  0.0624  0.1450  0.1450  0.1286  0.1286
  0.1287  0.0732  0.0795  0.0852  0.0898  0.0898  0.0930  0.1139  0.1083  0.1083
  0.0995  0.1028

 Free energy of the ion-electron system (eV)
  ---------------------------------------------------
  alpha Z        PSCENC =      2230.33460859
  Ewald energy   TEWEN  =    216882.41091225
  -Hartree energ DENC   =   -287932.33746183
  -exchange      EXHF   =         0.00000000
  -V(xc)+E(xc)   XCENC  =      1253.90772211
  PAW double counting   =     77081.03925392   -79125.62020704
  entropy T*S    EENTRO =         0.00000000
  eigenvalues    EBANDS =      -546.93530984
  atomic energy  EATOM  =     69690.04112127
  Solvation  Ediel_sol  =         0.00000000
  ---------------------------------------------------
  free energy    TOTEN  =      -467.15936058 eV

  energy without entropy =     -467.15936058  energy(sigma->0) =     -467.15936058


--------------------------------------------------------------------------------------------------------




--------------------------------------- Iteration      1(  58)  ---------------------------------------


    POTLOK:  cpu time    0.5125: real time    0.5142
    SETDIJ:  cpu time    0.0439: real time    0.0440
    EDDIAG:  cpu time    9.2483: real time    9.2754
  RMM-DIIS:  cpu time   37.5956: real time   37.7064
    ORTHCH:  cpu time    1.5286: real time    1.5329
 BZINTS: Fermi energy:  2.204258;776.000000 electrons
         Band energy:-543.902914;  BLOECHL correction: -0.241428
       DOS:  cpu time    0.0212: real time    0.0212
    CHARGE:  cpu time    3.0622: real time    3.0714
    MIXING:  cpu time    0.0567: real time    0.0571
    --------------------------------------------
      LOOP:  cpu time   52.0691: real time   52.2225

 eigenvalue-minimisations  :  8357
 total energy-change (2. order) :-0.6414084E-01  (-0.8735466E-02)
 number of electron     776.0000025 magnetization      69.1089056
 augmentation part      367.2866830 magnetization      55.9888121

 Broyden mixing:
  rms(total) = 0.17396E+01    rms(broyden)= 0.17396E+01
  rms(prec ) = 0.18663E+01
  weight for this iteration     100.00

 eigenvalues of (default mixing * dielectric matrix)
  average eigenvalue GAMMA=   0.3859
  1.5929  1.4419  1.4419  0.9422  0.9422  0.8847  0.8847  0.7719  0.7719  0.7559
  0.7559  0.4129  0.4129  0.4183  0.3840  0.3840  0.3130  0.3130  0.2831  0.0533
  0.0533  0.2074  0.0486  0.1599  0.0621  0.0621  0.1514  0.1436  0.1331  0.1331
  0.1270  0.0743  0.0798  0.0798  0.1198  0.0900  0.0900  0.0914  0.0963  0.1110
  0.1031  0.1061  0.1088

 Free energy of the ion-electron system (eV)
  ---------------------------------------------------
  alpha Z        PSCENC =      2230.33460859
  Ewald energy   TEWEN  =    216882.41091225
  -Hartree energ DENC   =   -287934.97949200
  -exchange      EXHF   =         0.00000000
  -V(xc)+E(xc)   XCENC  =      1254.03307530
  PAW double counting   =     77077.93727016   -79123.09808319
  entropy T*S    EENTRO =         0.00000000
  eigenvalues    EBANDS =      -543.90291382
  atomic energy  EATOM  =     69690.04112127
  Solvation  Ediel_sol  =         0.00000000
  ---------------------------------------------------
  free energy    TOTEN  =      -467.22350143 eV

  energy without entropy =     -467.22350143  energy(sigma->0) =     -467.22350143


--------------------------------------------------------------------------------------------------------




--------------------------------------- Iteration      1(  59)  ---------------------------------------


    POTLOK:  cpu time    0.5527: real time    0.5540
    SETDIJ:  cpu time    0.0510: real time    0.0512
    EDDIAG:  cpu time    9.3868: real time    9.4127
  RMM-DIIS:  cpu time   37.6581: real time   37.7471
    ORTHCH:  cpu time    1.5235: real time    1.5272
 BZINTS: Fermi energy:  2.200811;776.000000 electrons
         Band energy:-545.771352;  BLOECHL correction: -0.237690
       DOS:  cpu time    0.0204: real time    0.0205
    CHARGE:  cpu time    3.0599: real time    3.0672
    MIXING:  cpu time    0.0581: real time    0.0582
    --------------------------------------------
      LOOP:  cpu time   52.3106: real time   52.4380

 eigenvalue-minimisations  :  8355
 total energy-change (2. order) :-0.1645588E+00  (-0.3292127E-02)
 number of electron     776.0000025 magnetization      69.1023592
 augmentation part      367.3167130 magnetization      56.0022724

 Broyden mixing:
  rms(total) = 0.17323E+01    rms(broyden)= 0.17322E+01
  rms(prec ) = 0.18557E+01
  weight for this iteration     100.00

 eigenvalues of (default mixing * dielectric matrix)
  average eigenvalue GAMMA=   0.3794
  1.5959  1.4460  1.4460  0.9450  0.9450  0.7848  0.7848  0.8344  0.8344  0.7847
  0.7847  0.4095  0.4095  0.4446  0.3723  0.3723  0.3013  0.3013  0.2808  0.0513
  0.0513  0.2069  0.1663  0.0503  0.1513  0.0643  0.0643  0.1440  0.1278  0.1278
  0.1279  0.1233  0.1233  0.0730  0.0807  0.0807  0.0951  0.0951  0.0872  0.0922
  0.1151  0.1101  0.1063  0.1015

 Free energy of the ion-electron system (eV)
  ---------------------------------------------------
  alpha Z        PSCENC =      2230.33460859
  Ewald energy   TEWEN  =    216882.41091225
  -Hartree energ DENC   =   -287933.19075824
  -exchange      EXHF   =         0.00000000
  -V(xc)+E(xc)   XCENC  =      1253.99777518
  PAW double counting   =     77079.28599520   -79124.49636236
  entropy T*S    EENTRO =         0.00000000
  eigenvalues    EBANDS =      -545.77135207
  atomic energy  EATOM  =     69690.04112127
  Solvation  Ediel_sol  =         0.00000000
  ---------------------------------------------------
  free energy    TOTEN  =      -467.38806019 eV

  energy without entropy =     -467.38806019  energy(sigma->0) =     -467.38806019


--------------------------------------------------------------------------------------------------------




--------------------------------------- Iteration      1(  60)  ---------------------------------------


    POTLOK:  cpu time    0.5137: real time    0.5149
    SETDIJ:  cpu time    0.0429: real time    0.0430
    EDDIAG:  cpu time    9.3571: real time    9.3815
  RMM-DIIS:  cpu time   37.6847: real time   37.7955
    ORTHCH:  cpu time    1.5259: real time    1.5300
 BZINTS: Fermi energy:  2.199438;776.000000 electrons
         Band energy:-546.743502;  BLOECHL correction: -0.237289
       DOS:  cpu time    0.0207: real time    0.0207
    CHARGE:  cpu time    3.0515: real time    3.0605
    MIXING:  cpu time    0.0534: real time    0.0535
    --------------------------------------------
      LOOP:  cpu time   52.2498: real time   52.3995

 eigenvalue-minimisations  :  8379
 total energy-change (2. order) :-0.1899861E+00  (-0.1080892E-02)
 number of electron     776.0000025 magnetization      69.2313961
 augmentation part      367.3377759 magnetization      56.1204459

 Broyden mixing:
  rms(total) = 0.17055E+01    rms(broyden)= 0.17055E+01
  rms(prec ) = 0.18227E+01
  weight for this iteration     100.00

 eigenvalues of (default mixing * dielectric matrix)
  average eigenvalue GAMMA=   0.3552
  1.4660  1.1906  1.1906  0.9588  0.9588  0.7050  0.7050  0.4328  0.4328  0.4605
  0.4605  0.4914  0.4914  0.4632  0.3575  0.3575  0.0613  0.0613  0.3039  0.2848
  0.2456  0.1722  0.1526  0.1526  0.0666  0.1420  0.0720  0.1327  0.0798  0.1264
  0.1190  0.1190  0.0836  0.0872  0.0912  0.0976  0.1038  0.1113  0.1113  0.1094

 Free energy of the ion-electron system (eV)
  ---------------------------------------------------
  alpha Z        PSCENC =      2230.33460859
  Ewald energy   TEWEN  =    216882.41091225
  -Hartree energ DENC   =   -287932.29862341
  -exchange      EXHF   =         0.00000000
  -V(xc)+E(xc)   XCENC  =      1253.78691569
  PAW double counting   =     77079.37385465   -79124.48333280
  entropy T*S    EENTRO =         0.00000000
  eigenvalues    EBANDS =      -546.74350249
  atomic energy  EATOM  =     69690.04112127
  Solvation  Ediel_sol  =         0.00000000
  ---------------------------------------------------
  free energy    TOTEN  =      -467.57804624 eV

  energy without entropy =     -467.57804624  energy(sigma->0) =     -467.57804624


--------------------------------------------------------------------------------------------------------




--------------------------------------- Iteration      1(  61)  ---------------------------------------


    POTLOK:  cpu time    0.5160: real time    0.5177
    SETDIJ:  cpu time    0.0429: real time    0.0430
    EDDIAG:  cpu time    9.2309: real time    9.2580
  RMM-DIIS:  cpu time   37.5715: real time   37.6839
    ORTHCH:  cpu time    1.6315: real time    1.6366
 BZINTS: Fermi energy:  2.198518;776.000000 electrons
         Band energy:-550.020024;  BLOECHL correction: -0.245148
       DOS:  cpu time    0.0201: real time    0.0201
    CHARGE:  cpu time    3.0554: real time    3.0642
    MIXING:  cpu time    0.0500: real time    0.0502
    --------------------------------------------
      LOOP:  cpu time   52.1183: real time   52.2737

 eigenvalue-minimisations  :  8358
 total energy-change (2. order) : 0.3917179E+00  (-0.4560638E-02)
 number of electron     776.0000025 magnetization      69.2552627
 augmentation part      367.3697012 magnetization      56.2049529

 Broyden mixing:
  rms(total) = 0.17997E+01    rms(broyden)= 0.17997E+01
  rms(prec ) = 0.19192E+01
  weight for this iteration     100.00

 eigenvalues of (default mixing * dielectric matrix)
  average eigenvalue GAMMA=   0.3555
  1.4656  1.1588  1.1588  0.9733  0.9733  0.6964  0.6964  0.5197  0.5197  0.4845
  0.4845  0.4771  0.4771  0.4539  0.4539  0.3329  0.3329  0.2849  0.0580  0.0580
  0.2162  0.2162  0.1566  0.1566  0.0644  0.0708  0.1435  0.1346  0.1346  0.0798
  0.1006  0.1006  0.0858  0.0907  0.0907  0.1276  0.1187  0.1104  0.1104  0.1017
  0.1047

 Free energy of the ion-electron system (eV)
  ---------------------------------------------------
  alpha Z        PSCENC =      2230.33460859
  Ewald energy   TEWEN  =    216882.41091225
  -Hartree energ DENC   =   -287929.38264607
  -exchange      EXHF   =         0.00000000
  -V(xc)+E(xc)   XCENC  =      1254.57993637
  PAW double counting   =     77080.90299207   -79126.05322895
  entropy T*S    EENTRO =         0.00000000
  eigenvalues    EBANDS =      -550.02002386
  atomic energy  EATOM  =     69690.04112127
  Solvation  Ediel_sol  =         0.00000000
  ---------------------------------------------------
  free energy    TOTEN  =      -467.18632833 eV

  energy without entropy =     -467.18632833  energy(sigma->0) =     -467.18632833


--------------------------------------------------------------------------------------------------------




--------------------------------------- Iteration      1(  62)  ---------------------------------------


    POTLOK:  cpu time    0.5112: real time    0.5124
    SETDIJ:  cpu time    0.0431: real time    0.0432
